[moleculetype]
; molname nrexcl
  SIL    1

[atoms]
;     nr    type   resnr residue    atom    cgnr    charge      mass
       1      Si       1     SIL   Si001       1       2.1    28.086
       2      Si       1     SIL   Si002       1       2.1    28.086
       3      Ob       1     SIL   O0001       1     -1.05    15.999
       4       O       1     SIL   O0002       1    -0.525    15.999
       5      Oh       1     SIL   O0003       1     -0.95    15.999
       6      Oh       1     SIL   O0004       1     -0.95    15.999
       7       O       1     SIL   O0005       1    -0.525    15.999
       8      Ob       1     SIL   O0006       1     -1.05    15.999
       9      Si       1     SIL   Si004       1       2.1    28.086
      10      Si       1     SIL   Si005       1       2.1    28.086
      11      Ob       1     SIL   O0007       1     -1.05    15.999
      12       O       1     SIL   O0008       1    -0.525    15.999
      13      Oh       1     SIL   O0009       1     -0.95    15.999
      14      Oh       1     SIL   O000A       1     -0.95    15.999
      15       O       1     SIL   O000B       1    -0.525    15.999
      16      Ob       1     SIL   O000C       1     -1.05    15.999
      17      Si       1     SIL   Si007       1       2.1    28.086
      18      Si       1     SIL   Si008       1       2.1    28.086
      19      Ob       1     SIL   O000D       1     -1.05    15.999
      20       O       1     SIL   O000E       1    -0.525    15.999
      21      Oh       1     SIL   O000F       1     -0.95    15.999
      22      Oh       1     SIL   O000G       1     -0.95    15.999
      23       O       1     SIL   O000H       1    -0.525    15.999
      24      Ob       1     SIL   O000I       1     -1.05    15.999
      25      Si       1     SIL   Si00A       1       2.1    28.086
      26      Si       1     SIL   Si00B       1       2.1    28.086
      27      Ob       1     SIL   O000J       1     -1.05    15.999
      28       O       1     SIL   O000K       1    -0.525    15.999
      29      Oh       1     SIL   O000L       1     -0.95    15.999
      30      Oh       1     SIL   O000M       1     -0.95    15.999
      31       O       1     SIL   O000N       1    -0.525    15.999
      32      Ob       1     SIL   O000O       1     -1.05    15.999
      33      Si       1     SIL   Si00D       1       2.1    28.086
      34      Si       1     SIL   Si00E       1       2.1    28.086
      35      Ob       1     SIL   O000P       1     -1.05    15.999
      36       O       1     SIL   O000Q       1    -0.525    15.999
      37      Oh       1     SIL   O000R       1     -0.95    15.999
      38      Oh       1     SIL   O000S       1     -0.95    15.999
      39       O       1     SIL   O000T       1    -0.525    15.999
      40      Ob       1     SIL   O000U       1     -1.05    15.999
      41      Si       1     SIL   Si00G       1       2.1    28.086
      42      Si       1     SIL   Si00H       1       2.1    28.086
      43      Ob       1     SIL   O000V       1     -1.05    15.999
      44       O       1     SIL   O000W       1    -0.525    15.999
      45      Oh       1     SIL   O000X       1     -0.95    15.999
      46      Oh       1     SIL   O000Y       1     -0.95    15.999
      47       O       1     SIL   O000Z       1    -0.525    15.999
      48      Ob       1     SIL   O000a       1     -1.05    15.999
      49      Si       1     SIL   Si00J       1       2.1    28.086
      50      Si       1     SIL   Si00K       1       2.1    28.086
      51      Ob       1     SIL   O000b       1     -1.05    15.999
      52       O       1     SIL   O000c       1    -0.525    15.999
      53      Oh       1     SIL   O000d       1     -0.95    15.999
      54      Oh       1     SIL   O000e       1     -0.95    15.999
      55       O       1     SIL   O000f       1    -0.525    15.999
      56      Ob       1     SIL   O000g       1     -1.05    15.999
      57      Si       1     SIL   Si00M       1       2.1    28.086
      58      Si       1     SIL   Si00N       1       2.1    28.086
      59      Ob       1     SIL   O000h       1     -1.05    15.999
      60       O       1     SIL   O000i       1    -0.525    15.999
      61      Oh       1     SIL   O000j       1     -0.95    15.999
      62      Oh       1     SIL   O000k       1     -0.95    15.999
      63       O       1     SIL   O000l       1    -0.525    15.999
      64      Ob       1     SIL   O000m       1     -1.05    15.999
      65      Si       1     SIL   Si00P       1       2.1    28.086
      66      Si       1     SIL   Si00Q       1       2.1    28.086
      67      Ob       1     SIL   O000n       1     -1.05    15.999
      68       O       1     SIL   O000o       1    -0.525    15.999
      69      Oh       1     SIL   O000p       1     -0.95    15.999
      70      Oh       1     SIL   O000q       1     -0.95    15.999
      71       O       1     SIL   O000r       1    -0.525    15.999
      72      Ob       1     SIL   O000s       1     -1.05    15.999
      73      Si       1     SIL   Si00S       1       2.1    28.086
      74      Si       1     SIL   Si00T       1       2.1    28.086
      75      Ob       1     SIL   O000t       1     -1.05    15.999
      76       O       1     SIL   O000u       1    -0.525    15.999
      77      Oh       1     SIL   O000v       1     -0.95    15.999
      78      Oh       1     SIL   O000w       1     -0.95    15.999
      79       O       1     SIL   O000x       1    -0.525    15.999
      80      Ob       1     SIL   O000y       1     -1.05    15.999
      81      Si       1     SIL   Si00V       1       2.1    28.086
      82      Si       1     SIL   Si00W       1       2.1    28.086
      83      Ob       1     SIL   O000z       1     -1.05    15.999
      84       O       1     SIL   O0010       1    -0.525    15.999
      85      Oh       1     SIL   O0011       1     -0.95    15.999
      86      Oh       1     SIL   O0012       1     -0.95    15.999
      87       O       1     SIL   O0013       1    -0.525    15.999
      88      Ob       1     SIL   O0014       1     -1.05    15.999
      89      Si       1     SIL   Si00Y       1       2.1    28.086
      90      Si       1     SIL   Si00Z       1       2.1    28.086
      91      Ob       1     SIL   O0015       1     -1.05    15.999
      92       O       1     SIL   O0016       1    -0.525    15.999
      93      Oh       1     SIL   O0017       1     -0.95    15.999
      94      Oh       1     SIL   O0018       1     -0.95    15.999
      95       O       1     SIL   O0019       1    -0.525    15.999
      96      Ob       1     SIL   O001A       1     -1.05    15.999
      97      Si       1     SIL   Si00b       1       2.1    28.086
      98      Si       1     SIL   Si00c       1       2.1    28.086
      99      Ob       1     SIL   O001B       1     -1.05    15.999
     100       O       1     SIL   O001C       1    -0.525    15.999
     101      Oh       1     SIL   O001D       1     -0.95    15.999
     102      Oh       1     SIL   O001E       1     -0.95    15.999
     103       O       1     SIL   O001F       1    -0.525    15.999
     104      Ob       1     SIL   O001G       1     -1.05    15.999
     105      Si       1     SIL   Si00e       1       2.1    28.086
     106      Si       1     SIL   Si00f       1       2.1    28.086
     107      Ob       1     SIL   O001H       1     -1.05    15.999
     108       O       1     SIL   O001I       1    -0.525    15.999
     109      Oh       1     SIL   O001J       1     -0.95    15.999
     110      Oh       1     SIL   O001K       1     -0.95    15.999
     111       O       1     SIL   O001L       1    -0.525    15.999
     112      Ob       1     SIL   O001M       1     -1.05    15.999
     113      Si       1     SIL   Si00h       1       2.1    28.086
     114      Si       1     SIL   Si00i       1       2.1    28.086
     115      Ob       1     SIL   O001N       1     -1.05    15.999
     116       O       1     SIL   O001O       1    -0.525    15.999
     117      Oh       1     SIL   O001P       1     -0.95    15.999
     118      Oh       1     SIL   O001Q       1     -0.95    15.999
     119       O       1     SIL   O001R       1    -0.525    15.999
     120      Ob       1     SIL   O001S       1     -1.05    15.999
     121      Si       1     SIL   Si00k       1       2.1    28.086
     122      Si       1     SIL   Si00l       1       2.1    28.086
     123      Ob       1     SIL   O001T       1     -1.05    15.999
     124       O       1     SIL   O001U       1    -0.525    15.999
     125      Oh       1     SIL   O001V       1     -0.95    15.999
     126      Oh       1     SIL   O001W       1     -0.95    15.999
     127       O       1     SIL   O001X       1    -0.525    15.999
     128      Ob       1     SIL   O001Y       1     -1.05    15.999
     129      Si       1     SIL   Si00n       1       2.1    28.086
     130      Si       1     SIL   Si00o       1       2.1    28.086
     131      Ob       1     SIL   O001Z       1     -1.05    15.999
     132       O       1     SIL   O001a       1    -0.525    15.999
     133      Oh       1     SIL   O001b       1     -0.95    15.999
     134      Oh       1     SIL   O001c       1     -0.95    15.999
     135       O       1     SIL   O001d       1    -0.525    15.999
     136      Ob       1     SIL   O001e       1     -1.05    15.999
     137      Si       1     SIL   Si00q       1       2.1    28.086
     138      Si       1     SIL   Si00r       1       2.1    28.086
     139      Ob       1     SIL   O001f       1     -1.05    15.999
     140       O       1     SIL   O001g       1    -0.525    15.999
     141      Oh       1     SIL   O001h       1     -0.95    15.999
     142      Oh       1     SIL   O001i       1     -0.95    15.999
     143       O       1     SIL   O001j       1    -0.525    15.999
     144      Ob       1     SIL   O001k       1     -1.05    15.999
     145      Si       1     SIL   Si00t       1       2.1    28.086
     146      Si       1     SIL   Si00u       1       2.1    28.086
     147      Ob       1     SIL   O001l       1     -1.05    15.999
     148       O       1     SIL   O001m       1    -0.525    15.999
     149      Oh       1     SIL   O001n       1     -0.95    15.999
     150      Oh       1     SIL   O001o       1     -0.95    15.999
     151       O       1     SIL   O001p       1    -0.525    15.999
     152      Ob       1     SIL   O001q       1     -1.05    15.999
     153      Si       1     SIL   Si00w       1       2.1    28.086
     154      Si       1     SIL   Si00x       1       2.1    28.086
     155      Ob       1     SIL   O001r       1     -1.05    15.999
     156       O       1     SIL   O001s       1    -0.525    15.999
     157      Oh       1     SIL   O001t       1     -0.95    15.999
     158      Oh       1     SIL   O001u       1     -0.95    15.999
     159       O       1     SIL   O001v       1    -0.525    15.999
     160      Ob       1     SIL   O001w       1     -1.05    15.999
     161      Si       1     SIL   Si00z       1       2.1    28.086
     162      Si       1     SIL   Si010       1       2.1    28.086
     163      Ob       1     SIL   O001x       1     -1.05    15.999
     164       O       1     SIL   O001y       1    -0.525    15.999
     165      Oh       1     SIL   O001z       1     -0.95    15.999
     166      Oh       1     SIL   O0020       1     -0.95    15.999
     167       O       1     SIL   O0021       1    -0.525    15.999
     168      Ob       1     SIL   O0022       1     -1.05    15.999
     169      Si       1     SIL   Si012       1       2.1    28.086
     170      Si       1     SIL   Si013       1       2.1    28.086
     171      Ob       1     SIL   O0023       1     -1.05    15.999
     172       O       1     SIL   O0024       1    -0.525    15.999
     173      Oh       1     SIL   O0025       1     -0.95    15.999
     174      Oh       1     SIL   O0026       1     -0.95    15.999
     175       O       1     SIL   O0027       1    -0.525    15.999
     176      Ob       1     SIL   O0028       1     -1.05    15.999
     177      Si       1     SIL   Si015       1       2.1    28.086
     178      Si       1     SIL   Si016       1       2.1    28.086
     179      Ob       1     SIL   O0029       1     -1.05    15.999
     180       O       1     SIL   O002A       1    -0.525    15.999
     181      Oh       1     SIL   O002B       1     -0.95    15.999
     182      Oh       1     SIL   O002C       1     -0.95    15.999
     183       O       1     SIL   O002D       1    -0.525    15.999
     184      Ob       1     SIL   O002E       1     -1.05    15.999
     185      Si       1     SIL   Si018       1       2.1    28.086
     186      Si       1     SIL   Si019       1       2.1    28.086
     187      Ob       1     SIL   O002F       1     -1.05    15.999
     188       O       1     SIL   O002G       1    -0.525    15.999
     189      Oh       1     SIL   O002H       1     -0.95    15.999
     190      Oh       1     SIL   O002I       1     -0.95    15.999
     191       O       1     SIL   O002J       1    -0.525    15.999
     192      Ob       1     SIL   O002K       1     -1.05    15.999
     193      Si       1     SIL   Si01B       1       2.1    28.086
     194      Si       1     SIL   Si01C       1       2.1    28.086
     195      Ob       1     SIL   O002L       1     -1.05    15.999
     196       O       1     SIL   O002M       1    -0.525    15.999
     197      Oh       1     SIL   O002N       1     -0.95    15.999
     198      Oh       1     SIL   O002O       1     -0.95    15.999
     199       O       1     SIL   O002P       1    -0.525    15.999
     200      Ob       1     SIL   O002Q       1     -1.05    15.999
     201      Si       1     SIL   Si01E       1       2.1    28.086
     202      Si       1     SIL   Si01F       1       2.1    28.086
     203      Ob       1     SIL   O002R       1     -1.05    15.999
     204       O       1     SIL   O002S       1    -0.525    15.999
     205      Oh       1     SIL   O002T       1     -0.95    15.999
     206      Oh       1     SIL   O002U       1     -0.95    15.999
     207       O       1     SIL   O002V       1    -0.525    15.999
     208      Ob       1     SIL   O002W       1     -1.05    15.999
     209      Si       1     SIL   Si01H       1       2.1    28.086
     210      Si       1     SIL   Si01I       1       2.1    28.086
     211      Ob       1     SIL   O002X       1     -1.05    15.999
     212       O       1     SIL   O002Y       1    -0.525    15.999
     213      Oh       1     SIL   O002Z       1     -0.95    15.999
     214      Oh       1     SIL   O002a       1     -0.95    15.999
     215       O       1     SIL   O002b       1    -0.525    15.999
     216      Ob       1     SIL   O002c       1     -1.05    15.999
     217      Si       1     SIL   Si01K       1       2.1    28.086
     218      Si       1     SIL   Si01L       1       2.1    28.086
     219      Ob       1     SIL   O002d       1     -1.05    15.999
     220       O       1     SIL   O002e       1    -0.525    15.999
     221      Oh       1     SIL   O002f       1     -0.95    15.999
     222      Oh       1     SIL   O002g       1     -0.95    15.999
     223       O       1     SIL   O002h       1    -0.525    15.999
     224      Ob       1     SIL   O002i       1     -1.05    15.999
     225      Si       1     SIL   Si01N       1       2.1    28.086
     226      Si       1     SIL   Si01O       1       2.1    28.086
     227      Ob       1     SIL   O002j       1     -1.05    15.999
     228       O       1     SIL   O002k       1    -0.525    15.999
     229      Oh       1     SIL   O002l       1     -0.95    15.999
     230      Oh       1     SIL   O002m       1     -0.95    15.999
     231       O       1     SIL   O002n       1    -0.525    15.999
     232      Ob       1     SIL   O002o       1     -1.05    15.999
     233      Si       1     SIL   Si01Q       1       2.1    28.086
     234      Si       1     SIL   Si01R       1       2.1    28.086
     235      Ob       1     SIL   O002p       1     -1.05    15.999
     236       O       1     SIL   O002q       1    -0.525    15.999
     237      Oh       1     SIL   O002r       1     -0.95    15.999
     238      Oh       1     SIL   O002s       1     -0.95    15.999
     239       O       1     SIL   O002t       1    -0.525    15.999
     240      Ob       1     SIL   O002u       1     -1.05    15.999
     241      Si       1     SIL   Si01T       1       2.1    28.086
     242      Si       1     SIL   Si01U       1       2.1    28.086
     243      Ob       1     SIL   O002v       1     -1.05    15.999
     244       O       1     SIL   O002w       1    -0.525    15.999
     245      Oh       1     SIL   O002x       1     -0.95    15.999
     246      Oh       1     SIL   O002y       1     -0.95    15.999
     247       O       1     SIL   O002z       1    -0.525    15.999
     248      Ob       1     SIL   O0030       1     -1.05    15.999
     249      Si       1     SIL   Si01W       1       2.1    28.086
     250      Si       1     SIL   Si01X       1       2.1    28.086
     251      Ob       1     SIL   O0031       1     -1.05    15.999
     252       O       1     SIL   O0032       1    -0.525    15.999
     253      Oh       1     SIL   O0033       1     -0.95    15.999
     254      Oh       1     SIL   O0034       1     -0.95    15.999
     255       O       1     SIL   O0035       1    -0.525    15.999
     256      Ob       1     SIL   O0036       1     -1.05    15.999
     257      Si       1     SIL   Si01Z       1       2.1    28.086
     258      Si       1     SIL   Si01a       1       2.1    28.086
     259      Ob       1     SIL   O0037       1     -1.05    15.999
     260       O       1     SIL   O0038       1    -0.525    15.999
     261      Oh       1     SIL   O0039       1     -0.95    15.999
     262      Oh       1     SIL   O003A       1     -0.95    15.999
     263       O       1     SIL   O003B       1    -0.525    15.999
     264      Ob       1     SIL   O003C       1     -1.05    15.999
     265      Si       1     SIL   Si01c       1       2.1    28.086
     266      Si       1     SIL   Si01d       1       2.1    28.086
     267      Ob       1     SIL   O003D       1     -1.05    15.999
     268       O       1     SIL   O003E       1    -0.525    15.999
     269      Oh       1     SIL   O003F       1     -0.95    15.999
     270      Oh       1     SIL   O003G       1     -0.95    15.999
     271       O       1     SIL   O003H       1    -0.525    15.999
     272      Ob       1     SIL   O003I       1     -1.05    15.999
     273      Si       1     SIL   Si01f       1       2.1    28.086
     274      Si       1     SIL   Si01g       1       2.1    28.086
     275      Ob       1     SIL   O003J       1     -1.05    15.999
     276       O       1     SIL   O003K       1    -0.525    15.999
     277      Oh       1     SIL   O003L       1     -0.95    15.999
     278      Oh       1     SIL   O003M       1     -0.95    15.999
     279       O       1     SIL   O003N       1    -0.525    15.999
     280      Ob       1     SIL   O003O       1     -1.05    15.999
     281      Si       1     SIL   Si01i       1       2.1    28.086
     282      Si       1     SIL   Si01j       1       2.1    28.086
     283      Ob       1     SIL   O003P       1     -1.05    15.999
     284       O       1     SIL   O003Q       1    -0.525    15.999
     285      Oh       1     SIL   O003R       1     -0.95    15.999
     286      Oh       1     SIL   O003S       1     -0.95    15.999
     287       O       1     SIL   O003T       1    -0.525    15.999
     288      Ob       1     SIL   O003U       1     -1.05    15.999
     289      Si       1     SIL   Si01l       1       2.1    28.086
     290      Si       1     SIL   Si01m       1       2.1    28.086
     291      Ob       1     SIL   O003V       1     -1.05    15.999
     292       O       1     SIL   O003W       1    -0.525    15.999
     293      Oh       1     SIL   O003X       1     -0.95    15.999
     294      Oh       1     SIL   O003Y       1     -0.95    15.999
     295       O       1     SIL   O003Z       1    -0.525    15.999
     296      Ob       1     SIL   O003a       1     -1.05    15.999
     297      Si       1     SIL   Si01o       1       2.1    28.086
     298      Si       1     SIL   Si01p       1       2.1    28.086
     299      Ob       1     SIL   O003b       1     -1.05    15.999
     300       O       1     SIL   O003c       1    -0.525    15.999
     301      Oh       1     SIL   O003d       1     -0.95    15.999
     302      Oh       1     SIL   O003e       1     -0.95    15.999
     303       O       1     SIL   O003f       1    -0.525    15.999
     304      Ob       1     SIL   O003g       1     -1.05    15.999
     305      Si       1     SIL   Si01r       1       2.1    28.086
     306      Si       1     SIL   Si01s       1       2.1    28.086
     307      Ob       1     SIL   O003h       1     -1.05    15.999
     308       O       1     SIL   O003i       1    -0.525    15.999
     309      Oh       1     SIL   O003j       1     -0.95    15.999
     310      Oh       1     SIL   O003k       1     -0.95    15.999
     311       O       1     SIL   O003l       1    -0.525    15.999
     312      Ob       1     SIL   O003m       1     -1.05    15.999
     313      Si       1     SIL   Si01u       1       2.1    28.086
     314      Si       1     SIL   Si01v       1       2.1    28.086
     315      Ob       1     SIL   O003n       1     -1.05    15.999
     316       O       1     SIL   O003o       1    -0.525    15.999
     317      Oh       1     SIL   O003p       1     -0.95    15.999
     318      Oh       1     SIL   O003q       1     -0.95    15.999
     319       O       1     SIL   O003r       1    -0.525    15.999
     320      Ob       1     SIL   O003s       1     -1.05    15.999
     321      Si       1     SIL   Si01x       1       2.1    28.086
     322      Si       1     SIL   Si01y       1       2.1    28.086
     323      Ob       1     SIL   O003t       1     -1.05    15.999
     324       O       1     SIL   O003u       1    -0.525    15.999
     325      Oh       1     SIL   O003v       1     -0.95    15.999
     326      Oh       1     SIL   O003w       1     -0.95    15.999
     327       O       1     SIL   O003x       1    -0.525    15.999
     328      Ob       1     SIL   O003y       1     -1.05    15.999
     329      Si       1     SIL   Si020       1       2.1    28.086
     330      Si       1     SIL   Si021       1       2.1    28.086
     331      Ob       1     SIL   O003z       1     -1.05    15.999
     332       O       1     SIL   O0040       1    -0.525    15.999
     333      Oh       1     SIL   O0041       1     -0.95    15.999
     334      Oh       1     SIL   O0042       1     -0.95    15.999
     335       O       1     SIL   O0043       1    -0.525    15.999
     336      Ob       1     SIL   O0044       1     -1.05    15.999
     337      Si       1     SIL   Si023       1       2.1    28.086
     338      Si       1     SIL   Si024       1       2.1    28.086
     339      Ob       1     SIL   O0045       1     -1.05    15.999
     340       O       1     SIL   O0046       1    -0.525    15.999
     341      Oh       1     SIL   O0047       1     -0.95    15.999
     342      Oh       1     SIL   O0048       1     -0.95    15.999
     343       O       1     SIL   O0049       1    -0.525    15.999
     344      Ob       1     SIL   O004A       1     -1.05    15.999
     345      Si       1     SIL   Si026       1       2.1    28.086
     346      Si       1     SIL   Si027       1       2.1    28.086
     347      Ob       1     SIL   O004B       1     -1.05    15.999
     348       O       1     SIL   O004C       1    -0.525    15.999
     349      Oh       1     SIL   O004D       1     -0.95    15.999
     350      Oh       1     SIL   O004E       1     -0.95    15.999
     351       O       1     SIL   O004F       1    -0.525    15.999
     352      Ob       1     SIL   O004G       1     -1.05    15.999
     353      Si       1     SIL   Si029       1       2.1    28.086
     354      Si       1     SIL   Si02A       1       2.1    28.086
     355      Ob       1     SIL   O004H       1     -1.05    15.999
     356       O       1     SIL   O004I       1    -0.525    15.999
     357      Oh       1     SIL   O004J       1     -0.95    15.999
     358      Oh       1     SIL   O004K       1     -0.95    15.999
     359       O       1     SIL   O004L       1    -0.525    15.999
     360      Ob       1     SIL   O004M       1     -1.05    15.999
     361      Si       1     SIL   Si02C       1       2.1    28.086
     362      Si       1     SIL   Si02D       1       2.1    28.086
     363      Ob       1     SIL   O004N       1     -1.05    15.999
     364       O       1     SIL   O004O       1    -0.525    15.999
     365      Oh       1     SIL   O004P       1     -0.95    15.999
     366      Oh       1     SIL   O004Q       1     -0.95    15.999
     367       O       1     SIL   O004R       1    -0.525    15.999
     368      Ob       1     SIL   O004S       1     -1.05    15.999
     369      Si       1     SIL   Si02F       1       2.1    28.086
     370      Si       1     SIL   Si02G       1       2.1    28.086
     371      Ob       1     SIL   O004T       1     -1.05    15.999
     372       O       1     SIL   O004U       1    -0.525    15.999
     373      Oh       1     SIL   O004V       1     -0.95    15.999
     374      Oh       1     SIL   O004W       1     -0.95    15.999
     375       O       1     SIL   O004X       1    -0.525    15.999
     376      Ob       1     SIL   O004Y       1     -1.05    15.999
     377      Si       1     SIL   Si02I       1       2.1    28.086
     378      Si       1     SIL   Si02J       1       2.1    28.086
     379      Ob       1     SIL   O004Z       1     -1.05    15.999
     380       O       1     SIL   O004a       1    -0.525    15.999
     381      Oh       1     SIL   O004b       1     -0.95    15.999
     382      Oh       1     SIL   O004c       1     -0.95    15.999
     383       O       1     SIL   O004d       1    -0.525    15.999
     384      Ob       1     SIL   O004e       1     -1.05    15.999
     385      Si       1     SIL   Si02L       1       2.1    28.086
     386      Si       1     SIL   Si02M       1       2.1    28.086
     387      Ob       1     SIL   O004f       1     -1.05    15.999
     388       O       1     SIL   O004g       1    -0.525    15.999
     389      Oh       1     SIL   O004h       1     -0.95    15.999
     390      Oh       1     SIL   O004i       1     -0.95    15.999
     391       O       1     SIL   O004j       1    -0.525    15.999
     392      Ob       1     SIL   O004k       1     -1.05    15.999
     393      Si       1     SIL   Si02O       1       2.1    28.086
     394      Si       1     SIL   Si02P       1       2.1    28.086
     395      Ob       1     SIL   O004l       1     -1.05    15.999
     396       O       1     SIL   O004m       1    -0.525    15.999
     397      Oh       1     SIL   O004n       1     -0.95    15.999
     398      Oh       1     SIL   O004o       1     -0.95    15.999
     399       O       1     SIL   O004p       1    -0.525    15.999
     400      Ob       1     SIL   O004q       1     -1.05    15.999
     401      Si       1     SIL   Si02R       1       2.1    28.086
     402      Si       1     SIL   Si02S       1       2.1    28.086
     403      Ob       1     SIL   O004r       1     -1.05    15.999
     404       O       1     SIL   O004s       1    -0.525    15.999
     405      Oh       1     SIL   O004t       1     -0.95    15.999
     406      Oh       1     SIL   O004u       1     -0.95    15.999
     407       O       1     SIL   O004v       1    -0.525    15.999
     408      Ob       1     SIL   O004w       1     -1.05    15.999
     409      Si       1     SIL   Si02U       1       2.1    28.086
     410      Si       1     SIL   Si02V       1       2.1    28.086
     411      Ob       1     SIL   O004x       1     -1.05    15.999
     412       O       1     SIL   O004y       1    -0.525    15.999
     413      Oh       1     SIL   O004z       1     -0.95    15.999
     414      Oh       1     SIL   O0050       1     -0.95    15.999
     415       O       1     SIL   O0051       1    -0.525    15.999
     416      Ob       1     SIL   O0052       1     -1.05    15.999
     417      Si       1     SIL   Si02X       1       2.1    28.086
     418      Si       1     SIL   Si02Y       1       2.1    28.086
     419      Ob       1     SIL   O0053       1     -1.05    15.999
     420       O       1     SIL   O0054       1    -0.525    15.999
     421      Oh       1     SIL   O0055       1     -0.95    15.999
     422      Oh       1     SIL   O0056       1     -0.95    15.999
     423       O       1     SIL   O0057       1    -0.525    15.999
     424      Ob       1     SIL   O0058       1     -1.05    15.999
     425      Si       1     SIL   Si02a       1       2.1    28.086
     426      Si       1     SIL   Si02b       1       2.1    28.086
     427      Ob       1     SIL   O0059       1     -1.05    15.999
     428       O       1     SIL   O005A       1    -0.525    15.999
     429      Oh       1     SIL   O005B       1     -0.95    15.999
     430      Oh       1     SIL   O005C       1     -0.95    15.999
     431       O       1     SIL   O005D       1    -0.525    15.999
     432      Ob       1     SIL   O005E       1     -1.05    15.999
     433      Si       1     SIL   Si02d       1       2.1    28.086
     434      Si       1     SIL   Si02e       1       2.1    28.086
     435      Ob       1     SIL   O005F       1     -1.05    15.999
     436       O       1     SIL   O005G       1    -0.525    15.999
     437      Oh       1     SIL   O005H       1     -0.95    15.999
     438      Oh       1     SIL   O005I       1     -0.95    15.999
     439       O       1     SIL   O005J       1    -0.525    15.999
     440      Ob       1     SIL   O005K       1     -1.05    15.999
     441      Si       1     SIL   Si02g       1       2.1    28.086
     442      Si       1     SIL   Si02h       1       2.1    28.086
     443      Ob       1     SIL   O005L       1     -1.05    15.999
     444       O       1     SIL   O005M       1    -0.525    15.999
     445      Oh       1     SIL   O005N       1     -0.95    15.999
     446      Oh       1     SIL   O005O       1     -0.95    15.999
     447       O       1     SIL   O005P       1    -0.525    15.999
     448      Ob       1     SIL   O005Q       1     -1.05    15.999
     449      Si       1     SIL   Si02j       1       2.1    28.086
     450      Si       1     SIL   Si02k       1       2.1    28.086
     451      Ob       1     SIL   O005R       1     -1.05    15.999
     452       O       1     SIL   O005S       1    -0.525    15.999
     453      Oh       1     SIL   O005T       1     -0.95    15.999
     454      Oh       1     SIL   O005U       1     -0.95    15.999
     455       O       1     SIL   O005V       1    -0.525    15.999
     456      Ob       1     SIL   O005W       1     -1.05    15.999
     457      Si       1     SIL   Si02m       1       2.1    28.086
     458      Si       1     SIL   Si02n       1       2.1    28.086
     459      Ob       1     SIL   O005X       1     -1.05    15.999
     460       O       1     SIL   O005Y       1    -0.525    15.999
     461      Oh       1     SIL   O005Z       1     -0.95    15.999
     462      Oh       1     SIL   O005a       1     -0.95    15.999
     463       O       1     SIL   O005b       1    -0.525    15.999
     464      Ob       1     SIL   O005c       1     -1.05    15.999
     465      Si       1     SIL   Si02p       1       2.1    28.086
     466      Si       1     SIL   Si02q       1       2.1    28.086
     467      Ob       1     SIL   O005d       1     -1.05    15.999
     468       O       1     SIL   O005e       1    -0.525    15.999
     469      Oh       1     SIL   O005f       1     -0.95    15.999
     470      Oh       1     SIL   O005g       1     -0.95    15.999
     471       O       1     SIL   O005h       1    -0.525    15.999
     472      Ob       1     SIL   O005i       1     -1.05    15.999
     473      Si       1     SIL   Si02s       1       2.1    28.086
     474      Si       1     SIL   Si02t       1       2.1    28.086
     475      Ob       1     SIL   O005j       1     -1.05    15.999
     476       O       1     SIL   O005k       1    -0.525    15.999
     477      Oh       1     SIL   O005l       1     -0.95    15.999
     478      Oh       1     SIL   O005m       1     -0.95    15.999
     479       O       1     SIL   O005n       1    -0.525    15.999
     480      Ob       1     SIL   O005o       1     -1.05    15.999
     481      Si       1     SIL   Si02v       1       2.1    28.086
     482      Si       1     SIL   Si02w       1       2.1    28.086
     483      Ob       1     SIL   O005p       1     -1.05    15.999
     484       O       1     SIL   O005q       1    -0.525    15.999
     485      Oh       1     SIL   O005r       1     -0.95    15.999
     486      Oh       1     SIL   O005s       1     -0.95    15.999
     487       O       1     SIL   O005t       1    -0.525    15.999
     488      Ob       1     SIL   O005u       1     -1.05    15.999
     489      Si       1     SIL   Si02y       1       2.1    28.086
     490      Si       1     SIL   Si02z       1       2.1    28.086
     491      Ob       1     SIL   O005v       1     -1.05    15.999
     492       O       1     SIL   O005w       1    -0.525    15.999
     493      Oh       1     SIL   O005x       1     -0.95    15.999
     494      Oh       1     SIL   O005y       1     -0.95    15.999
     495       O       1     SIL   O005z       1    -0.525    15.999
     496      Ob       1     SIL   O0060       1     -1.05    15.999
     497      Si       1     SIL   Si031       1       2.1    28.086
     498      Si       1     SIL   Si032       1       2.1    28.086
     499      Ob       1     SIL   O0061       1     -1.05    15.999
     500       O       1     SIL   O0062       1    -0.525    15.999
     501      Oh       1     SIL   O0063       1     -0.95    15.999
     502      Oh       1     SIL   O0064       1     -0.95    15.999
     503       O       1     SIL   O0065       1    -0.525    15.999
     504      Ob       1     SIL   O0066       1     -1.05    15.999
     505      Si       1     SIL   Si034       1       2.1    28.086
     506      Si       1     SIL   Si035       1       2.1    28.086
     507      Ob       1     SIL   O0067       1     -1.05    15.999
     508       O       1     SIL   O0068       1    -0.525    15.999
     509      Oh       1     SIL   O0069       1     -0.95    15.999
     510      Oh       1     SIL   O006A       1     -0.95    15.999
     511       O       1     SIL   O006B       1    -0.525    15.999
     512      Ob       1     SIL   O006C       1     -1.05    15.999
     513      Si       1     SIL   Si037       1       2.1    28.086
     514      Si       1     SIL   Si038       1       2.1    28.086
     515      Ob       1     SIL   O006D       1     -1.05    15.999
     516       O       1     SIL   O006E       1    -0.525    15.999
     517      Oh       1     SIL   O006F       1     -0.95    15.999
     518      Oh       1     SIL   O006G       1     -0.95    15.999
     519       O       1     SIL   O006H       1    -0.525    15.999
     520      Ob       1     SIL   O006I       1     -1.05    15.999
     521      Si       1     SIL   Si03A       1       2.1    28.086
     522      Si       1     SIL   Si03B       1       2.1    28.086
     523      Ob       1     SIL   O006J       1     -1.05    15.999
     524       O       1     SIL   O006K       1    -0.525    15.999
     525      Oh       1     SIL   O006L       1     -0.95    15.999
     526      Oh       1     SIL   O006M       1     -0.95    15.999
     527       O       1     SIL   O006N       1    -0.525    15.999
     528      Ob       1     SIL   O006O       1     -1.05    15.999
     529      Si       1     SIL   Si03D       1       2.1    28.086
     530      Si       1     SIL   Si03E       1       2.1    28.086
     531      Ob       1     SIL   O006P       1     -1.05    15.999
     532       O       1     SIL   O006Q       1    -0.525    15.999
     533      Oh       1     SIL   O006R       1     -0.95    15.999
     534      Oh       1     SIL   O006S       1     -0.95    15.999
     535       O       1     SIL   O006T       1    -0.525    15.999
     536      Ob       1     SIL   O006U       1     -1.05    15.999
     537      Si       1     SIL   Si03G       1       2.1    28.086
     538      Si       1     SIL   Si03H       1       2.1    28.086
     539      Ob       1     SIL   O006V       1     -1.05    15.999
     540       O       1     SIL   O006W       1    -0.525    15.999
     541      Oh       1     SIL   O006X       1     -0.95    15.999
     542      Oh       1     SIL   O006Y       1     -0.95    15.999
     543       O       1     SIL   O006Z       1    -0.525    15.999
     544      Ob       1     SIL   O006a       1     -1.05    15.999
     545      Si       1     SIL   Si03J       1       2.1    28.086
     546      Si       1     SIL   Si03K       1       2.1    28.086
     547      Ob       1     SIL   O006b       1     -1.05    15.999
     548       O       1     SIL   O006c       1    -0.525    15.999
     549      Oh       1     SIL   O006d       1     -0.95    15.999
     550      Oh       1     SIL   O006e       1     -0.95    15.999
     551       O       1     SIL   O006f       1    -0.525    15.999
     552      Ob       1     SIL   O006g       1     -1.05    15.999
     553      Si       1     SIL   Si03M       1       2.1    28.086
     554      Si       1     SIL   Si03N       1       2.1    28.086
     555      Ob       1     SIL   O006h       1     -1.05    15.999
     556       O       1     SIL   O006i       1    -0.525    15.999
     557      Oh       1     SIL   O006j       1     -0.95    15.999
     558      Oh       1     SIL   O006k       1     -0.95    15.999
     559       O       1     SIL   O006l       1    -0.525    15.999
     560      Ob       1     SIL   O006m       1     -1.05    15.999
     561      Si       1     SIL   Si03P       1       2.1    28.086
     562      Si       1     SIL   Si03Q       1       2.1    28.086
     563      Ob       1     SIL   O006n       1     -1.05    15.999
     564       O       1     SIL   O006o       1    -0.525    15.999
     565      Oh       1     SIL   O006p       1     -0.95    15.999
     566      Oh       1     SIL   O006q       1     -0.95    15.999
     567       O       1     SIL   O006r       1    -0.525    15.999
     568      Ob       1     SIL   O006s       1     -1.05    15.999
     569      Si       1     SIL   Si03S       1       2.1    28.086
     570      Si       1     SIL   Si03T       1       2.1    28.086
     571      Ob       1     SIL   O006t       1     -1.05    15.999
     572       O       1     SIL   O006u       1    -0.525    15.999
     573      Oh       1     SIL   O006v       1     -0.95    15.999
     574      Oh       1     SIL   O006w       1     -0.95    15.999
     575       O       1     SIL   O006x       1    -0.525    15.999
     576      Ob       1     SIL   O006y       1     -1.05    15.999
     577      Si       1     SIL   Si03V       1       2.1    28.086
     578      Si       1     SIL   Si03W       1       2.1    28.086
     579      Ob       1     SIL   O006z       1     -1.05    15.999
     580       O       1     SIL   O0070       1    -0.525    15.999
     581      Oh       1     SIL   O0071       1     -0.95    15.999
     582      Oh       1     SIL   O0072       1     -0.95    15.999
     583       O       1     SIL   O0073       1    -0.525    15.999
     584      Ob       1     SIL   O0074       1     -1.05    15.999
     585      Si       1     SIL   Si03Y       1       2.1    28.086
     586      Si       1     SIL   Si03Z       1       2.1    28.086
     587      Ob       1     SIL   O0075       1     -1.05    15.999
     588       O       1     SIL   O0076       1    -0.525    15.999
     589      Oh       1     SIL   O0077       1     -0.95    15.999
     590      Oh       1     SIL   O0078       1     -0.95    15.999
     591       O       1     SIL   O0079       1    -0.525    15.999
     592      Ob       1     SIL   O007A       1     -1.05    15.999
     593      Si       1     SIL   Si03b       1       2.1    28.086
     594      Si       1     SIL   Si03c       1       2.1    28.086
     595      Ob       1     SIL   O007B       1     -1.05    15.999
     596       O       1     SIL   O007C       1    -0.525    15.999
     597      Oh       1     SIL   O007D       1     -0.95    15.999
     598      Oh       1     SIL   O007E       1     -0.95    15.999
     599       O       1     SIL   O007F       1    -0.525    15.999
     600      Ob       1     SIL   O007G       1     -1.05    15.999
     601      Si       1     SIL   Si03e       1       2.1    28.086
     602      Si       1     SIL   Si03f       1       2.1    28.086
     603      Ob       1     SIL   O007H       1     -1.05    15.999
     604       O       1     SIL   O007I       1    -0.525    15.999
     605      Oh       1     SIL   O007J       1     -0.95    15.999
     606      Oh       1     SIL   O007K       1     -0.95    15.999
     607       O       1     SIL   O007L       1    -0.525    15.999
     608      Ob       1     SIL   O007M       1     -1.05    15.999
     609      Si       1     SIL   Si03h       1       2.1    28.086
     610      Si       1     SIL   Si03i       1       2.1    28.086
     611      Ob       1     SIL   O007N       1     -1.05    15.999
     612       O       1     SIL   O007O       1    -0.525    15.999
     613      Oh       1     SIL   O007P       1     -0.95    15.999
     614      Oh       1     SIL   O007Q       1     -0.95    15.999
     615       O       1     SIL   O007R       1    -0.525    15.999
     616      Ob       1     SIL   O007S       1     -1.05    15.999
     617      Si       1     SIL   Si03k       1       2.1    28.086
     618      Si       1     SIL   Si03l       1       2.1    28.086
     619      Ob       1     SIL   O007T       1     -1.05    15.999
     620       O       1     SIL   O007U       1    -0.525    15.999
     621      Oh       1     SIL   O007V       1     -0.95    15.999
     622      Oh       1     SIL   O007W       1     -0.95    15.999
     623       O       1     SIL   O007X       1    -0.525    15.999
     624      Ob       1     SIL   O007Y       1     -1.05    15.999
     625      Si       1     SIL   Si03n       1       2.1    28.086
     626      Si       1     SIL   Si03o       1       2.1    28.086
     627      Ob       1     SIL   O007Z       1     -1.05    15.999
     628       O       1     SIL   O007a       1    -0.525    15.999
     629      Oh       1     SIL   O007b       1     -0.95    15.999
     630      Oh       1     SIL   O007c       1     -0.95    15.999
     631       O       1     SIL   O007d       1    -0.525    15.999
     632      Ob       1     SIL   O007e       1     -1.05    15.999
     633      Si       1     SIL   Si03q       1       2.1    28.086
     634      Si       1     SIL   Si03r       1       2.1    28.086
     635      Ob       1     SIL   O007f       1     -1.05    15.999
     636       O       1     SIL   O007g       1    -0.525    15.999
     637      Oh       1     SIL   O007h       1     -0.95    15.999
     638      Oh       1     SIL   O007i       1     -0.95    15.999
     639       O       1     SIL   O007j       1    -0.525    15.999
     640      Ob       1     SIL   O007k       1     -1.05    15.999
     641      Si       1     SIL   Si03t       1       2.1    28.086
     642      Si       1     SIL   Si03u       1       2.1    28.086
     643      Ob       1     SIL   O007l       1     -1.05    15.999
     644       O       1     SIL   O007m       1    -0.525    15.999
     645      Oh       1     SIL   O007n       1     -0.95    15.999
     646      Oh       1     SIL   O007o       1     -0.95    15.999
     647       O       1     SIL   O007p       1    -0.525    15.999
     648      Ob       1     SIL   O007q       1     -1.05    15.999
     649      Si       1     SIL   Si03w       1       2.1    28.086
     650      Si       1     SIL   Si03x       1       2.1    28.086
     651      Ob       1     SIL   O007r       1     -1.05    15.999
     652       O       1     SIL   O007s       1    -0.525    15.999
     653      Oh       1     SIL   O007t       1     -0.95    15.999
     654      Oh       1     SIL   O007u       1     -0.95    15.999
     655       O       1     SIL   O007v       1    -0.525    15.999
     656      Ob       1     SIL   O007w       1     -1.05    15.999
     657      Si       1     SIL   Si03z       1       2.1    28.086
     658      Si       1     SIL   Si040       1       2.1    28.086
     659      Ob       1     SIL   O007x       1     -1.05    15.999
     660       O       1     SIL   O007y       1    -0.525    15.999
     661      Oh       1     SIL   O007z       1     -0.95    15.999
     662      Oh       1     SIL   O0080       1     -0.95    15.999
     663       O       1     SIL   O0081       1    -0.525    15.999
     664      Ob       1     SIL   O0082       1     -1.05    15.999
     665      Si       1     SIL   Si042       1       2.1    28.086
     666      Si       1     SIL   Si043       1       2.1    28.086
     667      Ob       1     SIL   O0083       1     -1.05    15.999
     668       O       1     SIL   O0084       1    -0.525    15.999
     669      Oh       1     SIL   O0085       1     -0.95    15.999
     670      Oh       1     SIL   O0086       1     -0.95    15.999
     671       O       1     SIL   O0087       1    -0.525    15.999
     672      Ob       1     SIL   O0088       1     -1.05    15.999
     673      Si       1     SIL   Si045       1       2.1    28.086
     674      Si       1     SIL   Si046       1       2.1    28.086
     675      Ob       1     SIL   O0089       1     -1.05    15.999
     676       O       1     SIL   O008A       1    -0.525    15.999
     677      Oh       1     SIL   O008B       1     -0.95    15.999
     678      Oh       1     SIL   O008C       1     -0.95    15.999
     679       O       1     SIL   O008D       1    -0.525    15.999
     680      Ob       1     SIL   O008E       1     -1.05    15.999
     681      Si       1     SIL   Si048       1       2.1    28.086
     682      Si       1     SIL   Si049       1       2.1    28.086
     683      Ob       1     SIL   O008F       1     -1.05    15.999
     684       O       1     SIL   O008G       1    -0.525    15.999
     685      Oh       1     SIL   O008H       1     -0.95    15.999
     686      Oh       1     SIL   O008I       1     -0.95    15.999
     687       O       1     SIL   O008J       1    -0.525    15.999
     688      Ob       1     SIL   O008K       1     -1.05    15.999
     689      Si       1     SIL   Si04B       1       2.1    28.086
     690      Si       1     SIL   Si04C       1       2.1    28.086
     691      Ob       1     SIL   O008L       1     -1.05    15.999
     692       O       1     SIL   O008M       1    -0.525    15.999
     693      Oh       1     SIL   O008N       1     -0.95    15.999
     694      Oh       1     SIL   O008O       1     -0.95    15.999
     695       O       1     SIL   O008P       1    -0.525    15.999
     696      Ob       1     SIL   O008Q       1     -1.05    15.999
     697      Si       1     SIL   Si04E       1       2.1    28.086
     698      Si       1     SIL   Si04F       1       2.1    28.086
     699      Ob       1     SIL   O008R       1     -1.05    15.999
     700       O       1     SIL   O008S       1    -0.525    15.999
     701      Oh       1     SIL   O008T       1     -0.95    15.999
     702      Oh       1     SIL   O008U       1     -0.95    15.999
     703       O       1     SIL   O008V       1    -0.525    15.999
     704      Ob       1     SIL   O008W       1     -1.05    15.999
     705      Si       1     SIL   Si04H       1       2.1    28.086
     706      Si       1     SIL   Si04I       1       2.1    28.086
     707      Ob       1     SIL   O008X       1     -1.05    15.999
     708       O       1     SIL   O008Y       1    -0.525    15.999
     709      Oh       1     SIL   O008Z       1     -0.95    15.999
     710      Oh       1     SIL   O008a       1     -0.95    15.999
     711       O       1     SIL   O008b       1    -0.525    15.999
     712      Ob       1     SIL   O008c       1     -1.05    15.999
     713      Si       1     SIL   Si04K       1       2.1    28.086
     714      Si       1     SIL   Si04L       1       2.1    28.086
     715      Ob       1     SIL   O008d       1     -1.05    15.999
     716       O       1     SIL   O008e       1    -0.525    15.999
     717      Oh       1     SIL   O008f       1     -0.95    15.999
     718      Oh       1     SIL   O008g       1     -0.95    15.999
     719       O       1     SIL   O008h       1    -0.525    15.999
     720      Ob       1     SIL   O008i       1     -1.05    15.999
     721      Si       1     SIL   Si04N       1       2.1    28.086
     722      Si       1     SIL   Si04O       1       2.1    28.086
     723      Ob       1     SIL   O008j       1     -1.05    15.999
     724       O       1     SIL   O008k       1    -0.525    15.999
     725      Oh       1     SIL   O008l       1     -0.95    15.999
     726      Oh       1     SIL   O008m       1     -0.95    15.999
     727       O       1     SIL   O008n       1    -0.525    15.999
     728      Ob       1     SIL   O008o       1     -1.05    15.999
     729      Si       1     SIL   Si04Q       1       2.1    28.086
     730      Si       1     SIL   Si04R       1       2.1    28.086
     731      Ob       1     SIL   O008p       1     -1.05    15.999
     732       O       1     SIL   O008q       1    -0.525    15.999
     733      Oh       1     SIL   O008r       1     -0.95    15.999
     734      Oh       1     SIL   O008s       1     -0.95    15.999
     735       O       1     SIL   O008t       1    -0.525    15.999
     736      Ob       1     SIL   O008u       1     -1.05    15.999
     737      Si       1     SIL   Si04T       1       2.1    28.086
     738      Si       1     SIL   Si04U       1       2.1    28.086
     739      Ob       1     SIL   O008v       1     -1.05    15.999
     740       O       1     SIL   O008w       1    -0.525    15.999
     741      Oh       1     SIL   O008x       1     -0.95    15.999
     742      Oh       1     SIL   O008y       1     -0.95    15.999
     743       O       1     SIL   O008z       1    -0.525    15.999
     744      Ob       1     SIL   O0090       1     -1.05    15.999
     745      Si       1     SIL   Si04W       1       2.1    28.086
     746      Si       1     SIL   Si04X       1       2.1    28.086
     747      Ob       1     SIL   O0091       1     -1.05    15.999
     748       O       1     SIL   O0092       1    -0.525    15.999
     749      Oh       1     SIL   O0093       1     -0.95    15.999
     750      Oh       1     SIL   O0094       1     -0.95    15.999
     751       O       1     SIL   O0095       1    -0.525    15.999
     752      Ob       1     SIL   O0096       1     -1.05    15.999
     753      Si       1     SIL   Si04Z       1       2.1    28.086
     754      Si       1     SIL   Si04a       1       2.1    28.086
     755      Ob       1     SIL   O0097       1     -1.05    15.999
     756       O       1     SIL   O0098       1    -0.525    15.999
     757      Oh       1     SIL   O0099       1     -0.95    15.999
     758      Oh       1     SIL   O009A       1     -0.95    15.999
     759       O       1     SIL   O009B       1    -0.525    15.999
     760      Ob       1     SIL   O009C       1     -1.05    15.999
     761      Si       1     SIL   Si04c       1       2.1    28.086
     762      Si       1     SIL   Si04d       1       2.1    28.086
     763      Ob       1     SIL   O009D       1     -1.05    15.999
     764       O       1     SIL   O009E       1    -0.525    15.999
     765      Oh       1     SIL   O009F       1     -0.95    15.999
     766      Oh       1     SIL   O009G       1     -0.95    15.999
     767       O       1     SIL   O009H       1    -0.525    15.999
     768      Ob       1     SIL   O009I       1     -1.05    15.999
     769      Si       1     SIL   Si04f       1       2.1    28.086
     770      Si       1     SIL   Si04g       1       2.1    28.086
     771      Ob       1     SIL   O009J       1     -1.05    15.999
     772       O       1     SIL   O009K       1    -0.525    15.999
     773      Oh       1     SIL   O009L       1     -0.95    15.999
     774      Oh       1     SIL   O009M       1     -0.95    15.999
     775       O       1     SIL   O009N       1    -0.525    15.999
     776      Ob       1     SIL   O009O       1     -1.05    15.999
     777      Si       1     SIL   Si04i       1       2.1    28.086
     778      Si       1     SIL   Si04j       1       2.1    28.086
     779      Ob       1     SIL   O009P       1     -1.05    15.999
     780       O       1     SIL   O009Q       1    -0.525    15.999
     781      Oh       1     SIL   O009R       1     -0.95    15.999
     782      Oh       1     SIL   O009S       1     -0.95    15.999
     783       O       1     SIL   O009T       1    -0.525    15.999
     784      Ob       1     SIL   O009U       1     -1.05    15.999
     785      Si       1     SIL   Si04l       1       2.1    28.086
     786      Si       1     SIL   Si04m       1       2.1    28.086
     787      Ob       1     SIL   O009V       1     -1.05    15.999
     788       O       1     SIL   O009W       1    -0.525    15.999
     789      Oh       1     SIL   O009X       1     -0.95    15.999
     790      Oh       1     SIL   O009Y       1     -0.95    15.999
     791       O       1     SIL   O009Z       1    -0.525    15.999
     792      Ob       1     SIL   O009a       1     -1.05    15.999
     793      Si       1     SIL   Si04o       1       2.1    28.086
     794      Si       1     SIL   Si04p       1       2.1    28.086
     795      Ob       1     SIL   O009b       1     -1.05    15.999
     796       O       1     SIL   O009c       1    -0.525    15.999
     797      Oh       1     SIL   O009d       1     -0.95    15.999
     798      Oh       1     SIL   O009e       1     -0.95    15.999
     799       O       1     SIL   O009f       1    -0.525    15.999
     800      Ob       1     SIL   O009g       1     -1.05    15.999
     801      Si       1     SIL   Si04r       1       2.1    28.086
     802      Si       1     SIL   Si04s       1       2.1    28.086
     803      Ob       1     SIL   O009h       1     -1.05    15.999
     804       O       1     SIL   O009i       1    -0.525    15.999
     805      Oh       1     SIL   O009j       1     -0.95    15.999
     806      Oh       1     SIL   O009k       1     -0.95    15.999
     807       O       1     SIL   O009l       1    -0.525    15.999
     808      Ob       1     SIL   O009m       1     -1.05    15.999
     809      Si       1     SIL   Si04u       1       2.1    28.086
     810      Si       1     SIL   Si04v       1       2.1    28.086
     811      Ob       1     SIL   O009n       1     -1.05    15.999
     812       O       1     SIL   O009o       1    -0.525    15.999
     813      Oh       1     SIL   O009p       1     -0.95    15.999
     814      Oh       1     SIL   O009q       1     -0.95    15.999
     815       O       1     SIL   O009r       1    -0.525    15.999
     816      Ob       1     SIL   O009s       1     -1.05    15.999
     817      Si       1     SIL   Si04x       1       2.1    28.086
     818      Si       1     SIL   Si04y       1       2.1    28.086
     819      Ob       1     SIL   O009t       1     -1.05    15.999
     820       O       1     SIL   O009u       1    -0.525    15.999
     821      Oh       1     SIL   O009v       1     -0.95    15.999
     822      Oh       1     SIL   O009w       1     -0.95    15.999
     823       O       1     SIL   O009x       1    -0.525    15.999
     824      Ob       1     SIL   O009y       1     -1.05    15.999
     825      Si       1     SIL   Si050       1       2.1    28.086
     826      Si       1     SIL   Si051       1       2.1    28.086
     827      Ob       1     SIL   O009z       1     -1.05    15.999
     828       O       1     SIL   O00A0       1    -0.525    15.999
     829      Oh       1     SIL   O00A1       1     -0.95    15.999
     830      Oh       1     SIL   O00A2       1     -0.95    15.999
     831       O       1     SIL   O00A3       1    -0.525    15.999
     832      Ob       1     SIL   O00A4       1     -1.05    15.999
     833      Si       1     SIL   Si053       1       2.1    28.086
     834      Si       1     SIL   Si054       1       2.1    28.086
     835      Ob       1     SIL   O00A5       1     -1.05    15.999
     836       O       1     SIL   O00A6       1    -0.525    15.999
     837      Oh       1     SIL   O00A7       1     -0.95    15.999
     838      Oh       1     SIL   O00A8       1     -0.95    15.999
     839       O       1     SIL   O00A9       1    -0.525    15.999
     840      Ob       1     SIL   O00AA       1     -1.05    15.999
     841      Si       1     SIL   Si056       1       2.1    28.086
     842      Si       1     SIL   Si057       1       2.1    28.086
     843      Ob       1     SIL   O00AB       1     -1.05    15.999
     844       O       1     SIL   O00AC       1    -0.525    15.999
     845      Oh       1     SIL   O00AD       1     -0.95    15.999
     846      Oh       1     SIL   O00AE       1     -0.95    15.999
     847       O       1     SIL   O00AF       1    -0.525    15.999
     848      Ob       1     SIL   O00AG       1     -1.05    15.999
     849      Si       1     SIL   Si059       1       2.1    28.086
     850      Si       1     SIL   Si05A       1       2.1    28.086
     851      Ob       1     SIL   O00AH       1     -1.05    15.999
     852       O       1     SIL   O00AI       1    -0.525    15.999
     853      Oh       1     SIL   O00AJ       1     -0.95    15.999
     854      Oh       1     SIL   O00AK       1     -0.95    15.999
     855       O       1     SIL   O00AL       1    -0.525    15.999
     856      Ob       1     SIL   O00AM       1     -1.05    15.999
     857      Si       1     SIL   Si05C       1       2.1    28.086
     858      Si       1     SIL   Si05D       1       2.1    28.086
     859      Ob       1     SIL   O00AN       1     -1.05    15.999
     860       O       1     SIL   O00AO       1    -0.525    15.999
     861      Oh       1     SIL   O00AP       1     -0.95    15.999
     862      Oh       1     SIL   O00AQ       1     -0.95    15.999
     863       O       1     SIL   O00AR       1    -0.525    15.999
     864      Ob       1     SIL   O00AS       1     -1.05    15.999
     865      Si       1     SIL   Si05F       1       2.1    28.086
     866      Si       1     SIL   Si05G       1       2.1    28.086
     867      Ob       1     SIL   O00AT       1     -1.05    15.999
     868       O       1     SIL   O00AU       1    -0.525    15.999
     869      Oh       1     SIL   O00AV       1     -0.95    15.999
     870      Oh       1     SIL   O00AW       1     -0.95    15.999
     871       O       1     SIL   O00AX       1    -0.525    15.999
     872      Ob       1     SIL   O00AY       1     -1.05    15.999
     873      Si       1     SIL   Si05I       1       2.1    28.086
     874      Si       1     SIL   Si05J       1       2.1    28.086
     875      Ob       1     SIL   O00AZ       1     -1.05    15.999
     876       O       1     SIL   O00Aa       1    -0.525    15.999
     877      Oh       1     SIL   O00Ab       1     -0.95    15.999
     878      Oh       1     SIL   O00Ac       1     -0.95    15.999
     879       O       1     SIL   O00Ad       1    -0.525    15.999
     880      Ob       1     SIL   O00Ae       1     -1.05    15.999
     881      Si       1     SIL   Si05L       1       2.1    28.086
     882      Si       1     SIL   Si05M       1       2.1    28.086
     883      Ob       1     SIL   O00Af       1     -1.05    15.999
     884       O       1     SIL   O00Ag       1    -0.525    15.999
     885      Oh       1     SIL   O00Ah       1     -0.95    15.999
     886      Oh       1     SIL   O00Ai       1     -0.95    15.999
     887       O       1     SIL   O00Aj       1    -0.525    15.999
     888      Ob       1     SIL   O00Ak       1     -1.05    15.999
     889      Si       1     SIL   Si05O       1       2.1    28.086
     890      Si       1     SIL   Si05P       1       2.1    28.086
     891      Ob       1     SIL   O00Al       1     -1.05    15.999
     892       O       1     SIL   O00Am       1    -0.525    15.999
     893      Oh       1     SIL   O00An       1     -0.95    15.999
     894      Oh       1     SIL   O00Ao       1     -0.95    15.999
     895       O       1     SIL   O00Ap       1    -0.525    15.999
     896      Ob       1     SIL   O00Aq       1     -1.05    15.999
     897      Si       1     SIL   Si05R       1       2.1    28.086
     898      Si       1     SIL   Si05S       1       2.1    28.086
     899      Ob       1     SIL   O00Ar       1     -1.05    15.999
     900       O       1     SIL   O00As       1    -0.525    15.999
     901      Oh       1     SIL   O00At       1     -0.95    15.999
     902      Oh       1     SIL   O00Au       1     -0.95    15.999
     903       O       1     SIL   O00Av       1    -0.525    15.999
     904      Ob       1     SIL   O00Aw       1     -1.05    15.999
     905      Si       1     SIL   Si05U       1       2.1    28.086
     906      Si       1     SIL   Si05V       1       2.1    28.086
     907      Ob       1     SIL   O00Ax       1     -1.05    15.999
     908       O       1     SIL   O00Ay       1    -0.525    15.999
     909      Oh       1     SIL   O00Az       1     -0.95    15.999
     910      Oh       1     SIL   O00B0       1     -0.95    15.999
     911       O       1     SIL   O00B1       1    -0.525    15.999
     912      Ob       1     SIL   O00B2       1     -1.05    15.999
     913      Si       1     SIL   Si05X       1       2.1    28.086
     914      Si       1     SIL   Si05Y       1       2.1    28.086
     915      Ob       1     SIL   O00B3       1     -1.05    15.999
     916       O       1     SIL   O00B4       1    -0.525    15.999
     917      Oh       1     SIL   O00B5       1     -0.95    15.999
     918      Oh       1     SIL   O00B6       1     -0.95    15.999
     919       O       1     SIL   O00B7       1    -0.525    15.999
     920      Ob       1     SIL   O00B8       1     -1.05    15.999
     921      Si       1     SIL   Si05a       1       2.1    28.086
     922      Si       1     SIL   Si05b       1       2.1    28.086
     923      Ob       1     SIL   O00B9       1     -1.05    15.999
     924       O       1     SIL   O00BA       1    -0.525    15.999
     925      Oh       1     SIL   O00BB       1     -0.95    15.999
     926      Oh       1     SIL   O00BC       1     -0.95    15.999
     927       O       1     SIL   O00BD       1    -0.525    15.999
     928      Ob       1     SIL   O00BE       1     -1.05    15.999
     929      Si       1     SIL   Si05d       1       2.1    28.086
     930      Si       1     SIL   Si05e       1       2.1    28.086
     931      Ob       1     SIL   O00BF       1     -1.05    15.999
     932       O       1     SIL   O00BG       1    -0.525    15.999
     933      Oh       1     SIL   O00BH       1     -0.95    15.999
     934      Oh       1     SIL   O00BI       1     -0.95    15.999
     935       O       1     SIL   O00BJ       1    -0.525    15.999
     936      Ob       1     SIL   O00BK       1     -1.05    15.999
     937      Si       1     SIL   Si05g       1       2.1    28.086
     938      Si       1     SIL   Si05h       1       2.1    28.086
     939      Ob       1     SIL   O00BL       1     -1.05    15.999
     940       O       1     SIL   O00BM       1    -0.525    15.999
     941      Oh       1     SIL   O00BN       1     -0.95    15.999
     942      Oh       1     SIL   O00BO       1     -0.95    15.999
     943       O       1     SIL   O00BP       1    -0.525    15.999
     944      Ob       1     SIL   O00BQ       1     -1.05    15.999
     945      Si       1     SIL   Si05j       1       2.1    28.086
     946      Si       1     SIL   Si05k       1       2.1    28.086
     947      Ob       1     SIL   O00BR       1     -1.05    15.999
     948       O       1     SIL   O00BS       1    -0.525    15.999
     949      Oh       1     SIL   O00BT       1     -0.95    15.999
     950      Oh       1     SIL   O00BU       1     -0.95    15.999
     951       O       1     SIL   O00BV       1    -0.525    15.999
     952      Ob       1     SIL   O00BW       1     -1.05    15.999
     953      Si       1     SIL   Si05m       1       2.1    28.086
     954      Si       1     SIL   Si05n       1       2.1    28.086
     955      Ob       1     SIL   O00BX       1     -1.05    15.999
     956       O       1     SIL   O00BY       1    -0.525    15.999
     957      Oh       1     SIL   O00BZ       1     -0.95    15.999
     958      Oh       1     SIL   O00Ba       1     -0.95    15.999
     959       O       1     SIL   O00Bb       1    -0.525    15.999
     960      Ob       1     SIL   O00Bc       1     -1.05    15.999
     961      Si       1     SIL   Si05p       1       2.1    28.086
     962      Si       1     SIL   Si05q       1       2.1    28.086
     963      Ob       1     SIL   O00Bd       1     -1.05    15.999
     964       O       1     SIL   O00Be       1    -0.525    15.999
     965      Oh       1     SIL   O00Bf       1     -0.95    15.999
     966      Oh       1     SIL   O00Bg       1     -0.95    15.999
     967       O       1     SIL   O00Bh       1    -0.525    15.999
     968      Ob       1     SIL   O00Bi       1     -1.05    15.999
     969      Si       1     SIL   Si05s       1       2.1    28.086
     970      Si       1     SIL   Si05t       1       2.1    28.086
     971      Ob       1     SIL   O00Bj       1     -1.05    15.999
     972       O       1     SIL   O00Bk       1    -0.525    15.999
     973      Oh       1     SIL   O00Bl       1     -0.95    15.999
     974      Oh       1     SIL   O00Bm       1     -0.95    15.999
     975       O       1     SIL   O00Bn       1    -0.525    15.999
     976      Ob       1     SIL   O00Bo       1     -1.05    15.999
     977      Si       1     SIL   Si05v       1       2.1    28.086
     978      Si       1     SIL   Si05w       1       2.1    28.086
     979      Ob       1     SIL   O00Bp       1     -1.05    15.999
     980       O       1     SIL   O00Bq       1    -0.525    15.999
     981      Oh       1     SIL   O00Br       1     -0.95    15.999
     982      Oh       1     SIL   O00Bs       1     -0.95    15.999
     983       O       1     SIL   O00Bt       1    -0.525    15.999
     984      Ob       1     SIL   O00Bu       1     -1.05    15.999
     985      Si       1     SIL   Si05y       1       2.1    28.086
     986      Si       1     SIL   Si05z       1       2.1    28.086
     987      Ob       1     SIL   O00Bv       1     -1.05    15.999
     988       O       1     SIL   O00Bw       1    -0.525    15.999
     989      Oh       1     SIL   O00Bx       1     -0.95    15.999
     990      Oh       1     SIL   O00By       1     -0.95    15.999
     991       O       1     SIL   O00Bz       1    -0.525    15.999
     992      Ob       1     SIL   O00C0       1     -1.05    15.999
     993      Si       1     SIL   Si061       1       2.1    28.086
     994      Si       1     SIL   Si062       1       2.1    28.086
     995      Ob       1     SIL   O00C1       1     -1.05    15.999
     996       O       1     SIL   O00C2       1    -0.525    15.999
     997      Oh       1     SIL   O00C3       1     -0.95    15.999
     998      Oh       1     SIL   O00C4       1     -0.95    15.999
     999       O       1     SIL   O00C5       1    -0.525    15.999
    1000      Ob       1     SIL   O00C6       1     -1.05    15.999
    1001      Si       1     SIL   Si064       1       2.1    28.086
    1002      Si       1     SIL   Si065       1       2.1    28.086
    1003      Ob       1     SIL   O00C7       1     -1.05    15.999
    1004       O       1     SIL   O00C8       1    -0.525    15.999
    1005      Oh       1     SIL   O00C9       1     -0.95    15.999
    1006      Oh       1     SIL   O00CA       1     -0.95    15.999
    1007       O       1     SIL   O00CB       1    -0.525    15.999
    1008      Ob       1     SIL   O00CC       1     -1.05    15.999
    1009      Si       1     SIL   Si067       1       2.1    28.086
    1010      Si       1     SIL   Si068       1       2.1    28.086
    1011      Ob       1     SIL   O00CD       1     -1.05    15.999
    1012       O       1     SIL   O00CE       1    -0.525    15.999
    1013      Oh       1     SIL   O00CF       1     -0.95    15.999
    1014      Oh       1     SIL   O00CG       1     -0.95    15.999
    1015       O       1     SIL   O00CH       1    -0.525    15.999
    1016      Ob       1     SIL   O00CI       1     -1.05    15.999
    1017      Si       1     SIL   Si06A       1       2.1    28.086
    1018      Si       1     SIL   Si06B       1       2.1    28.086
    1019      Ob       1     SIL   O00CJ       1     -1.05    15.999
    1020       O       1     SIL   O00CK       1    -0.525    15.999
    1021      Oh       1     SIL   O00CL       1     -0.95    15.999
    1022      Oh       1     SIL   O00CM       1     -0.95    15.999
    1023       O       1     SIL   O00CN       1    -0.525    15.999
    1024      Ob       1     SIL   O00CO       1     -1.05    15.999
    1025      Si       1     SIL   Si06D       1       2.1    28.086
    1026      Si       1     SIL   Si06E       1       2.1    28.086
    1027      Ob       1     SIL   O00CP       1     -1.05    15.999
    1028       O       1     SIL   O00CQ       1    -0.525    15.999
    1029      Oh       1     SIL   O00CR       1     -0.95    15.999
    1030      Oh       1     SIL   O00CS       1     -0.95    15.999
    1031       O       1     SIL   O00CT       1    -0.525    15.999
    1032      Ob       1     SIL   O00CU       1     -1.05    15.999
    1033      Si       1     SIL   Si06G       1       2.1    28.086
    1034      Si       1     SIL   Si06H       1       2.1    28.086
    1035      Ob       1     SIL   O00CV       1     -1.05    15.999
    1036       O       1     SIL   O00CW       1    -0.525    15.999
    1037      Oh       1     SIL   O00CX       1     -0.95    15.999
    1038      Oh       1     SIL   O00CY       1     -0.95    15.999
    1039       O       1     SIL   O00CZ       1    -0.525    15.999
    1040      Ob       1     SIL   O00Ca       1     -1.05    15.999
    1041      Si       1     SIL   Si06J       1       2.1    28.086
    1042      Si       1     SIL   Si06K       1       2.1    28.086
    1043      Ob       1     SIL   O00Cb       1     -1.05    15.999
    1044       O       1     SIL   O00Cc       1    -0.525    15.999
    1045      Oh       1     SIL   O00Cd       1     -0.95    15.999
    1046      Oh       1     SIL   O00Ce       1     -0.95    15.999
    1047       O       1     SIL   O00Cf       1    -0.525    15.999
    1048      Ob       1     SIL   O00Cg       1     -1.05    15.999
    1049      Si       1     SIL   Si06M       1       2.1    28.086
    1050      Si       1     SIL   Si06N       1       2.1    28.086
    1051      Ob       1     SIL   O00Ch       1     -1.05    15.999
    1052       O       1     SIL   O00Ci       1    -0.525    15.999
    1053      Oh       1     SIL   O00Cj       1     -0.95    15.999
    1054      Oh       1     SIL   O00Ck       1     -0.95    15.999
    1055       O       1     SIL   O00Cl       1    -0.525    15.999
    1056      Ob       1     SIL   O00Cm       1     -1.05    15.999
    1057      Si       1     SIL   Si06P       1       2.1    28.086
    1058      Si       1     SIL   Si06Q       1       2.1    28.086
    1059      Ob       1     SIL   O00Cn       1     -1.05    15.999
    1060       O       1     SIL   O00Co       1    -0.525    15.999
    1061      Oh       1     SIL   O00Cp       1     -0.95    15.999
    1062      Oh       1     SIL   O00Cq       1     -0.95    15.999
    1063       O       1     SIL   O00Cr       1    -0.525    15.999
    1064      Ob       1     SIL   O00Cs       1     -1.05    15.999
    1065      Si       1     SIL   Si06S       1       2.1    28.086
    1066      Si       1     SIL   Si06T       1       2.1    28.086
    1067      Ob       1     SIL   O00Ct       1     -1.05    15.999
    1068       O       1     SIL   O00Cu       1    -0.525    15.999
    1069      Oh       1     SIL   O00Cv       1     -0.95    15.999
    1070      Oh       1     SIL   O00Cw       1     -0.95    15.999
    1071       O       1     SIL   O00Cx       1    -0.525    15.999
    1072      Ob       1     SIL   O00Cy       1     -1.05    15.999
    1073      Si       1     SIL   Si06V       1       2.1    28.086
    1074      Si       1     SIL   Si06W       1       2.1    28.086
    1075      Ob       1     SIL   O00Cz       1     -1.05    15.999
    1076       O       1     SIL   O00D0       1    -0.525    15.999
    1077      Oh       1     SIL   O00D1       1     -0.95    15.999
    1078      Oh       1     SIL   O00D2       1     -0.95    15.999
    1079       O       1     SIL   O00D3       1    -0.525    15.999
    1080      Ob       1     SIL   O00D4       1     -1.05    15.999
    1081      Si       1     SIL   Si06Y       1       2.1    28.086
    1082      Si       1     SIL   Si06Z       1       2.1    28.086
    1083      Ob       1     SIL   O00D5       1     -1.05    15.999
    1084       O       1     SIL   O00D6       1    -0.525    15.999
    1085      Oh       1     SIL   O00D7       1     -0.95    15.999
    1086      Oh       1     SIL   O00D8       1     -0.95    15.999
    1087       O       1     SIL   O00D9       1    -0.525    15.999
    1088      Ob       1     SIL   O00DA       1     -1.05    15.999
    1089      Si       1     SIL   Si06b       1       2.1    28.086
    1090      Si       1     SIL   Si06c       1       2.1    28.086
    1091      Ob       1     SIL   O00DB       1     -1.05    15.999
    1092       O       1     SIL   O00DC       1    -0.525    15.999
    1093      Oh       1     SIL   O00DD       1     -0.95    15.999
    1094      Oh       1     SIL   O00DE       1     -0.95    15.999
    1095       O       1     SIL   O00DF       1    -0.525    15.999
    1096      Ob       1     SIL   O00DG       1     -1.05    15.999
    1097      Si       1     SIL   Si06e       1       2.1    28.086
    1098      Si       1     SIL   Si06f       1       2.1    28.086
    1099      Ob       1     SIL   O00DH       1     -1.05    15.999
    1100       O       1     SIL   O00DI       1    -0.525    15.999
    1101      Oh       1     SIL   O00DJ       1     -0.95    15.999
    1102      Oh       1     SIL   O00DK       1     -0.95    15.999
    1103       O       1     SIL   O00DL       1    -0.525    15.999
    1104      Ob       1     SIL   O00DM       1     -1.05    15.999
    1105      Si       1     SIL   Si06h       1       2.1    28.086
    1106      Si       1     SIL   Si06i       1       2.1    28.086
    1107      Ob       1     SIL   O00DN       1     -1.05    15.999
    1108       O       1     SIL   O00DO       1    -0.525    15.999
    1109      Oh       1     SIL   O00DP       1     -0.95    15.999
    1110      Oh       1     SIL   O00DQ       1     -0.95    15.999
    1111       O       1     SIL   O00DR       1    -0.525    15.999
    1112      Ob       1     SIL   O00DS       1     -1.05    15.999
    1113      Si       1     SIL   Si06k       1       2.1    28.086
    1114      Si       1     SIL   Si06l       1       2.1    28.086
    1115      Ob       1     SIL   O00DT       1     -1.05    15.999
    1116       O       1     SIL   O00DU       1    -0.525    15.999
    1117      Oh       1     SIL   O00DV       1     -0.95    15.999
    1118      Oh       1     SIL   O00DW       1     -0.95    15.999
    1119       O       1     SIL   O00DX       1    -0.525    15.999
    1120      Ob       1     SIL   O00DY       1     -1.05    15.999
    1121      Si       1     SIL   Si06n       1       2.1    28.086
    1122      Si       1     SIL   Si06o       1       2.1    28.086
    1123      Ob       1     SIL   O00DZ       1     -1.05    15.999
    1124       O       1     SIL   O00Da       1    -0.525    15.999
    1125      Oh       1     SIL   O00Db       1     -0.95    15.999
    1126      Oh       1     SIL   O00Dc       1     -0.95    15.999
    1127       O       1     SIL   O00Dd       1    -0.525    15.999
    1128      Ob       1     SIL   O00De       1     -1.05    15.999
    1129      Si       1     SIL   Si06q       1       2.1    28.086
    1130      Si       1     SIL   Si06r       1       2.1    28.086
    1131      Ob       1     SIL   O00Df       1     -1.05    15.999
    1132       O       1     SIL   O00Dg       1    -0.525    15.999
    1133      Oh       1     SIL   O00Dh       1     -0.95    15.999
    1134      Oh       1     SIL   O00Di       1     -0.95    15.999
    1135       O       1     SIL   O00Dj       1    -0.525    15.999
    1136      Ob       1     SIL   O00Dk       1     -1.05    15.999
    1137      Si       1     SIL   Si06t       1       2.1    28.086
    1138      Si       1     SIL   Si06u       1       2.1    28.086
    1139      Ob       1     SIL   O00Dl       1     -1.05    15.999
    1140       O       1     SIL   O00Dm       1    -0.525    15.999
    1141      Oh       1     SIL   O00Dn       1     -0.95    15.999
    1142      Oh       1     SIL   O00Do       1     -0.95    15.999
    1143       O       1     SIL   O00Dp       1    -0.525    15.999
    1144      Ob       1     SIL   O00Dq       1     -1.05    15.999
    1145      Si       1     SIL   Si06w       1       2.1    28.086
    1146      Si       1     SIL   Si06x       1       2.1    28.086
    1147      Ob       1     SIL   O00Dr       1     -1.05    15.999
    1148       O       1     SIL   O00Ds       1    -0.525    15.999
    1149      Oh       1     SIL   O00Dt       1     -0.95    15.999
    1150      Oh       1     SIL   O00Du       1     -0.95    15.999
    1151       O       1     SIL   O00Dv       1    -0.525    15.999
    1152      Ob       1     SIL   O00Dw       1     -1.05    15.999
    1153      Si       1     SIL   Si06z       1       2.1    28.086
    1154      Si       1     SIL   Si070       1       2.1    28.086
    1155      Ob       1     SIL   O00Dx       1     -1.05    15.999
    1156       O       1     SIL   O00Dy       1    -0.525    15.999
    1157      Oh       1     SIL   O00Dz       1     -0.95    15.999
    1158      Oh       1     SIL   O00E0       1     -0.95    15.999
    1159       O       1     SIL   O00E1       1    -0.525    15.999
    1160      Ob       1     SIL   O00E2       1     -1.05    15.999
    1161      Si       1     SIL   Si072       1       2.1    28.086
    1162      Si       1     SIL   Si073       1       2.1    28.086
    1163      Ob       1     SIL   O00E3       1     -1.05    15.999
    1164       O       1     SIL   O00E4       1    -0.525    15.999
    1165      Oh       1     SIL   O00E5       1     -0.95    15.999
    1166      Oh       1     SIL   O00E6       1     -0.95    15.999
    1167       O       1     SIL   O00E7       1    -0.525    15.999
    1168      Ob       1     SIL   O00E8       1     -1.05    15.999
    1169      Si       1     SIL   Si075       1       2.1    28.086
    1170      Si       1     SIL   Si076       1       2.1    28.086
    1171      Ob       1     SIL   O00E9       1     -1.05    15.999
    1172       O       1     SIL   O00EA       1    -0.525    15.999
    1173      Oh       1     SIL   O00EB       1     -0.95    15.999
    1174      Oh       1     SIL   O00EC       1     -0.95    15.999
    1175       O       1     SIL   O00ED       1    -0.525    15.999
    1176      Ob       1     SIL   O00EE       1     -1.05    15.999
    1177      Si       1     SIL   Si078       1       2.1    28.086
    1178      Si       1     SIL   Si079       1       2.1    28.086
    1179      Ob       1     SIL   O00EF       1     -1.05    15.999
    1180       O       1     SIL   O00EG       1    -0.525    15.999
    1181      Oh       1     SIL   O00EH       1     -0.95    15.999
    1182      Oh       1     SIL   O00EI       1     -0.95    15.999
    1183       O       1     SIL   O00EJ       1    -0.525    15.999
    1184      Ob       1     SIL   O00EK       1     -1.05    15.999
    1185      Si       1     SIL   Si07B       1       2.1    28.086
    1186      Si       1     SIL   Si07C       1       2.1    28.086
    1187      Ob       1     SIL   O00EL       1     -1.05    15.999
    1188       O       1     SIL   O00EM       1    -0.525    15.999
    1189      Oh       1     SIL   O00EN       1     -0.95    15.999
    1190      Oh       1     SIL   O00EO       1     -0.95    15.999
    1191       O       1     SIL   O00EP       1    -0.525    15.999
    1192      Ob       1     SIL   O00EQ       1     -1.05    15.999
    1193      Si       1     SIL   Si07E       1       2.1    28.086
    1194      Si       1     SIL   Si07F       1       2.1    28.086
    1195      Ob       1     SIL   O00ER       1     -1.05    15.999
    1196       O       1     SIL   O00ES       1    -0.525    15.999
    1197      Oh       1     SIL   O00ET       1     -0.95    15.999
    1198      Oh       1     SIL   O00EU       1     -0.95    15.999
    1199       O       1     SIL   O00EV       1    -0.525    15.999
    1200      Ob       1     SIL   O00EW       1     -1.05    15.999
    1201      Si       1     SIL   Si07H       1       2.1    28.086
    1202      Si       1     SIL   Si07I       1       2.1    28.086
    1203      Ob       1     SIL   O00EX       1     -1.05    15.999
    1204       O       1     SIL   O00EY       1    -0.525    15.999
    1205      Oh       1     SIL   O00EZ       1     -0.95    15.999
    1206      Oh       1     SIL   O00Ea       1     -0.95    15.999
    1207       O       1     SIL   O00Eb       1    -0.525    15.999
    1208      Ob       1     SIL   O00Ec       1     -1.05    15.999
    1209      Si       1     SIL   Si07K       1       2.1    28.086
    1210      Si       1     SIL   Si07L       1       2.1    28.086
    1211      Ob       1     SIL   O00Ed       1     -1.05    15.999
    1212       O       1     SIL   O00Ee       1    -0.525    15.999
    1213      Oh       1     SIL   O00Ef       1     -0.95    15.999
    1214      Oh       1     SIL   O00Eg       1     -0.95    15.999
    1215       O       1     SIL   O00Eh       1    -0.525    15.999
    1216      Ob       1     SIL   O00Ei       1     -1.05    15.999
    1217      Si       1     SIL   Si07N       1       2.1    28.086
    1218      Si       1     SIL   Si07O       1       2.1    28.086
    1219      Ob       1     SIL   O00Ej       1     -1.05    15.999
    1220       O       1     SIL   O00Ek       1    -0.525    15.999
    1221      Oh       1     SIL   O00El       1     -0.95    15.999
    1222      Oh       1     SIL   O00Em       1     -0.95    15.999
    1223       O       1     SIL   O00En       1    -0.525    15.999
    1224      Ob       1     SIL   O00Eo       1     -1.05    15.999
    1225      Si       1     SIL   Si07Q       1       2.1    28.086
    1226      Si       1     SIL   Si07R       1       2.1    28.086
    1227      Ob       1     SIL   O00Ep       1     -1.05    15.999
    1228       O       1     SIL   O00Eq       1    -0.525    15.999
    1229      Oh       1     SIL   O00Er       1     -0.95    15.999
    1230      Oh       1     SIL   O00Es       1     -0.95    15.999
    1231       O       1     SIL   O00Et       1    -0.525    15.999
    1232      Ob       1     SIL   O00Eu       1     -1.05    15.999
    1233      Si       1     SIL   Si07T       1       2.1    28.086
    1234      Si       1     SIL   Si07U       1       2.1    28.086
    1235      Ob       1     SIL   O00Ev       1     -1.05    15.999
    1236       O       1     SIL   O00Ew       1    -0.525    15.999
    1237      Oh       1     SIL   O00Ex       1     -0.95    15.999
    1238      Oh       1     SIL   O00Ey       1     -0.95    15.999
    1239       O       1     SIL   O00Ez       1    -0.525    15.999
    1240      Ob       1     SIL   O00F0       1     -1.05    15.999
    1241      Si       1     SIL   Si07W       1       2.1    28.086
    1242      Si       1     SIL   Si07X       1       2.1    28.086
    1243      Ob       1     SIL   O00F1       1     -1.05    15.999
    1244       O       1     SIL   O00F2       1    -0.525    15.999
    1245      Oh       1     SIL   O00F3       1     -0.95    15.999
    1246      Oh       1     SIL   O00F4       1     -0.95    15.999
    1247       O       1     SIL   O00F5       1    -0.525    15.999
    1248      Ob       1     SIL   O00F6       1     -1.05    15.999
    1249      Si       1     SIL   Si07Z       1       2.1    28.086
    1250      Si       1     SIL   Si07a       1       2.1    28.086
    1251      Ob       1     SIL   O00F7       1     -1.05    15.999
    1252       O       1     SIL   O00F8       1    -0.525    15.999
    1253      Oh       1     SIL   O00F9       1     -0.95    15.999
    1254      Oh       1     SIL   O00FA       1     -0.95    15.999
    1255       O       1     SIL   O00FB       1    -0.525    15.999
    1256      Ob       1     SIL   O00FC       1     -1.05    15.999
    1257      Si       1     SIL   Si07c       1       2.1    28.086
    1258      Si       1     SIL   Si07d       1       2.1    28.086
    1259      Ob       1     SIL   O00FD       1     -1.05    15.999
    1260       O       1     SIL   O00FE       1    -0.525    15.999
    1261      Oh       1     SIL   O00FF       1     -0.95    15.999
    1262      Oh       1     SIL   O00FG       1     -0.95    15.999
    1263       O       1     SIL   O00FH       1    -0.525    15.999
    1264      Ob       1     SIL   O00FI       1     -1.05    15.999
    1265      Si       1     SIL   Si07f       1       2.1    28.086
    1266      Si       1     SIL   Si07g       1       2.1    28.086
    1267      Ob       1     SIL   O00FJ       1     -1.05    15.999
    1268       O       1     SIL   O00FK       1    -0.525    15.999
    1269      Oh       1     SIL   O00FL       1     -0.95    15.999
    1270      Oh       1     SIL   O00FM       1     -0.95    15.999
    1271       O       1     SIL   O00FN       1    -0.525    15.999
    1272      Ob       1     SIL   O00FO       1     -1.05    15.999
    1273      Si       1     SIL   Si07i       1       2.1    28.086
    1274      Si       1     SIL   Si07j       1       2.1    28.086
    1275      Ob       1     SIL   O00FP       1     -1.05    15.999
    1276       O       1     SIL   O00FQ       1    -0.525    15.999
    1277      Oh       1     SIL   O00FR       1     -0.95    15.999
    1278      Oh       1     SIL   O00FS       1     -0.95    15.999
    1279       O       1     SIL   O00FT       1    -0.525    15.999
    1280      Ob       1     SIL   O00FU       1     -1.05    15.999
    1281      Si       1     SIL   Si07l       1       2.1    28.086
    1282      Si       1     SIL   Si07m       1       2.1    28.086
    1283      Ob       1     SIL   O00FV       1     -1.05    15.999
    1284       O       1     SIL   O00FW       1    -0.525    15.999
    1285      Oh       1     SIL   O00FX       1     -0.95    15.999
    1286      Oh       1     SIL   O00FY       1     -0.95    15.999
    1287       O       1     SIL   O00FZ       1    -0.525    15.999
    1288      Ob       1     SIL   O00Fa       1     -1.05    15.999
    1289      Si       1     SIL   Si07o       1       2.1    28.086
    1290      Si       1     SIL   Si07p       1       2.1    28.086
    1291      Ob       1     SIL   O00Fb       1     -1.05    15.999
    1292       O       1     SIL   O00Fc       1    -0.525    15.999
    1293      Oh       1     SIL   O00Fd       1     -0.95    15.999
    1294      Oh       1     SIL   O00Fe       1     -0.95    15.999
    1295       O       1     SIL   O00Ff       1    -0.525    15.999
    1296      Ob       1     SIL   O00Fg       1     -1.05    15.999
    1297      Si       1     SIL   Si07r       1       2.1    28.086
    1298      Si       1     SIL   Si07s       1       2.1    28.086
    1299      Ob       1     SIL   O00Fh       1     -1.05    15.999
    1300       O       1     SIL   O00Fi       1    -0.525    15.999
    1301      Oh       1     SIL   O00Fj       1     -0.95    15.999
    1302      Oh       1     SIL   O00Fk       1     -0.95    15.999
    1303       O       1     SIL   O00Fl       1    -0.525    15.999
    1304      Ob       1     SIL   O00Fm       1     -1.05    15.999
    1305      Si       1     SIL   Si07u       1       2.1    28.086
    1306      Si       1     SIL   Si07v       1       2.1    28.086
    1307      Ob       1     SIL   O00Fn       1     -1.05    15.999
    1308       O       1     SIL   O00Fo       1    -0.525    15.999
    1309      Oh       1     SIL   O00Fp       1     -0.95    15.999
    1310      Oh       1     SIL   O00Fq       1     -0.95    15.999
    1311       O       1     SIL   O00Fr       1    -0.525    15.999
    1312      Ob       1     SIL   O00Fs       1     -1.05    15.999
    1313      Si       1     SIL   Si07x       1       2.1    28.086
    1314      Si       1     SIL   Si07y       1       2.1    28.086
    1315      Ob       1     SIL   O00Ft       1     -1.05    15.999
    1316       O       1     SIL   O00Fu       1    -0.525    15.999
    1317      Oh       1     SIL   O00Fv       1     -0.95    15.999
    1318      Oh       1     SIL   O00Fw       1     -0.95    15.999
    1319       O       1     SIL   O00Fx       1    -0.525    15.999
    1320      Ob       1     SIL   O00Fy       1     -1.05    15.999
    1321      Si       1     SIL   Si080       1       2.1    28.086
    1322      Si       1     SIL   Si081       1       2.1    28.086
    1323      Ob       1     SIL   O00Fz       1     -1.05    15.999
    1324       O       1     SIL   O00G0       1    -0.525    15.999
    1325      Oh       1     SIL   O00G1       1     -0.95    15.999
    1326      Oh       1     SIL   O00G2       1     -0.95    15.999
    1327       O       1     SIL   O00G3       1    -0.525    15.999
    1328      Ob       1     SIL   O00G4       1     -1.05    15.999
    1329      Si       1     SIL   Si083       1       2.1    28.086
    1330      Si       1     SIL   Si084       1       2.1    28.086
    1331      Ob       1     SIL   O00G5       1     -1.05    15.999
    1332       O       1     SIL   O00G6       1    -0.525    15.999
    1333      Oh       1     SIL   O00G7       1     -0.95    15.999
    1334      Oh       1     SIL   O00G8       1     -0.95    15.999
    1335       O       1     SIL   O00G9       1    -0.525    15.999
    1336      Ob       1     SIL   O00GA       1     -1.05    15.999
    1337      Si       1     SIL   Si086       1       2.1    28.086
    1338      Si       1     SIL   Si087       1       2.1    28.086
    1339      Ob       1     SIL   O00GB       1     -1.05    15.999
    1340       O       1     SIL   O00GC       1    -0.525    15.999
    1341      Oh       1     SIL   O00GD       1     -0.95    15.999
    1342      Oh       1     SIL   O00GE       1     -0.95    15.999
    1343       O       1     SIL   O00GF       1    -0.525    15.999
    1344      Ob       1     SIL   O00GG       1     -1.05    15.999
    1345      Si       1     SIL   Si089       1       2.1    28.086
    1346      Si       1     SIL   Si08A       1       2.1    28.086
    1347      Ob       1     SIL   O00GH       1     -1.05    15.999
    1348       O       1     SIL   O00GI       1    -0.525    15.999
    1349      Oh       1     SIL   O00GJ       1     -0.95    15.999
    1350      Oh       1     SIL   O00GK       1     -0.95    15.999
    1351       O       1     SIL   O00GL       1    -0.525    15.999
    1352      Ob       1     SIL   O00GM       1     -1.05    15.999
    1353      Si       1     SIL   Si08C       1       2.1    28.086
    1354      Si       1     SIL   Si08D       1       2.1    28.086
    1355      Ob       1     SIL   O00GN       1     -1.05    15.999
    1356       O       1     SIL   O00GO       1    -0.525    15.999
    1357      Oh       1     SIL   O00GP       1     -0.95    15.999
    1358      Oh       1     SIL   O00GQ       1     -0.95    15.999
    1359       O       1     SIL   O00GR       1    -0.525    15.999
    1360      Ob       1     SIL   O00GS       1     -1.05    15.999
    1361      Si       1     SIL   Si08F       1       2.1    28.086
    1362      Si       1     SIL   Si08G       1       2.1    28.086
    1363      Ob       1     SIL   O00GT       1     -1.05    15.999
    1364       O       1     SIL   O00GU       1    -0.525    15.999
    1365      Oh       1     SIL   O00GV       1     -0.95    15.999
    1366      Oh       1     SIL   O00GW       1     -0.95    15.999
    1367       O       1     SIL   O00GX       1    -0.525    15.999
    1368      Ob       1     SIL   O00GY       1     -1.05    15.999
    1369      Si       1     SIL   Si08I       1       2.1    28.086
    1370      Si       1     SIL   Si08J       1       2.1    28.086
    1371      Ob       1     SIL   O00GZ       1     -1.05    15.999
    1372       O       1     SIL   O00Ga       1    -0.525    15.999
    1373      Oh       1     SIL   O00Gb       1     -0.95    15.999
    1374      Oh       1     SIL   O00Gc       1     -0.95    15.999
    1375       O       1     SIL   O00Gd       1    -0.525    15.999
    1376      Ob       1     SIL   O00Ge       1     -1.05    15.999
    1377      Si       1     SIL   Si08L       1       2.1    28.086
    1378      Si       1     SIL   Si08M       1       2.1    28.086
    1379      Ob       1     SIL   O00Gf       1     -1.05    15.999
    1380       O       1     SIL   O00Gg       1    -0.525    15.999
    1381      Oh       1     SIL   O00Gh       1     -0.95    15.999
    1382      Oh       1     SIL   O00Gi       1     -0.95    15.999
    1383       O       1     SIL   O00Gj       1    -0.525    15.999
    1384      Ob       1     SIL   O00Gk       1     -1.05    15.999
    1385      Si       1     SIL   Si08O       1       2.1    28.086
    1386      Si       1     SIL   Si08P       1       2.1    28.086
    1387      Ob       1     SIL   O00Gl       1     -1.05    15.999
    1388       O       1     SIL   O00Gm       1    -0.525    15.999
    1389      Oh       1     SIL   O00Gn       1     -0.95    15.999
    1390      Oh       1     SIL   O00Go       1     -0.95    15.999
    1391       O       1     SIL   O00Gp       1    -0.525    15.999
    1392      Ob       1     SIL   O00Gq       1     -1.05    15.999
    1393      Si       1     SIL   Si08R       1       2.1    28.086
    1394      Si       1     SIL   Si08S       1       2.1    28.086
    1395      Ob       1     SIL   O00Gr       1     -1.05    15.999
    1396       O       1     SIL   O00Gs       1    -0.525    15.999
    1397      Oh       1     SIL   O00Gt       1     -0.95    15.999
    1398      Oh       1     SIL   O00Gu       1     -0.95    15.999
    1399       O       1     SIL   O00Gv       1    -0.525    15.999
    1400      Ob       1     SIL   O00Gw       1     -1.05    15.999
    1401      Si       1     SIL   Si08U       1       2.1    28.086
    1402      Si       1     SIL   Si08V       1       2.1    28.086
    1403      Ob       1     SIL   O00Gx       1     -1.05    15.999
    1404       O       1     SIL   O00Gy       1    -0.525    15.999
    1405      Oh       1     SIL   O00Gz       1     -0.95    15.999
    1406      Oh       1     SIL   O00H0       1     -0.95    15.999
    1407       O       1     SIL   O00H1       1    -0.525    15.999
    1408      Ob       1     SIL   O00H2       1     -1.05    15.999
    1409      Si       1     SIL   Si08X       1       2.1    28.086
    1410      Si       1     SIL   Si08Y       1       2.1    28.086
    1411      Ob       1     SIL   O00H3       1     -1.05    15.999
    1412       O       1     SIL   O00H4       1    -0.525    15.999
    1413      Oh       1     SIL   O00H5       1     -0.95    15.999
    1414      Oh       1     SIL   O00H6       1     -0.95    15.999
    1415       O       1     SIL   O00H7       1    -0.525    15.999
    1416      Ob       1     SIL   O00H8       1     -1.05    15.999
    1417      Si       1     SIL   Si08a       1       2.1    28.086
    1418      Si       1     SIL   Si08b       1       2.1    28.086
    1419      Ob       1     SIL   O00H9       1     -1.05    15.999
    1420       O       1     SIL   O00HA       1    -0.525    15.999
    1421      Oh       1     SIL   O00HB       1     -0.95    15.999
    1422      Oh       1     SIL   O00HC       1     -0.95    15.999
    1423       O       1     SIL   O00HD       1    -0.525    15.999
    1424      Ob       1     SIL   O00HE       1     -1.05    15.999
    1425      Si       1     SIL   Si08d       1       2.1    28.086
    1426      Si       1     SIL   Si08e       1       2.1    28.086
    1427      Ob       1     SIL   O00HF       1     -1.05    15.999
    1428       O       1     SIL   O00HG       1    -0.525    15.999
    1429      Oh       1     SIL   O00HH       1     -0.95    15.999
    1430      Oh       1     SIL   O00HI       1     -0.95    15.999
    1431       O       1     SIL   O00HJ       1    -0.525    15.999
    1432      Ob       1     SIL   O00HK       1     -1.05    15.999
    1433      Si       1     SIL   Si08g       1       2.1    28.086
    1434      Si       1     SIL   Si08h       1       2.1    28.086
    1435      Ob       1     SIL   O00HL       1     -1.05    15.999
    1436       O       1     SIL   O00HM       1    -0.525    15.999
    1437      Oh       1     SIL   O00HN       1     -0.95    15.999
    1438      Oh       1     SIL   O00HO       1     -0.95    15.999
    1439       O       1     SIL   O00HP       1    -0.525    15.999
    1440      Ob       1     SIL   O00HQ       1     -1.05    15.999
    1441      Si       1     SIL   Si08j       1       2.1    28.086
    1442      Si       1     SIL   Si08k       1       2.1    28.086
    1443      Ob       1     SIL   O00HR       1     -1.05    15.999
    1444       O       1     SIL   O00HS       1    -0.525    15.999
    1445      Oh       1     SIL   O00HT       1     -0.95    15.999
    1446      Oh       1     SIL   O00HU       1     -0.95    15.999
    1447       O       1     SIL   O00HV       1    -0.525    15.999
    1448      Ob       1     SIL   O00HW       1     -1.05    15.999
    1449      Si       1     SIL   Si08m       1       2.1    28.086
    1450      Si       1     SIL   Si08n       1       2.1    28.086
    1451      Ob       1     SIL   O00HX       1     -1.05    15.999
    1452       O       1     SIL   O00HY       1    -0.525    15.999
    1453      Oh       1     SIL   O00HZ       1     -0.95    15.999
    1454      Oh       1     SIL   O00Ha       1     -0.95    15.999
    1455       O       1     SIL   O00Hb       1    -0.525    15.999
    1456      Ob       1     SIL   O00Hc       1     -1.05    15.999
    1457      Si       1     SIL   Si08p       1       2.1    28.086
    1458      Si       1     SIL   Si08q       1       2.1    28.086
    1459      Ob       1     SIL   O00Hd       1     -1.05    15.999
    1460       O       1     SIL   O00He       1    -0.525    15.999
    1461      Oh       1     SIL   O00Hf       1     -0.95    15.999
    1462      Oh       1     SIL   O00Hg       1     -0.95    15.999
    1463       O       1     SIL   O00Hh       1    -0.525    15.999
    1464      Ob       1     SIL   O00Hi       1     -1.05    15.999
    1465      Si       1     SIL   Si08s       1       2.1    28.086
    1466      Si       1     SIL   Si08t       1       2.1    28.086
    1467      Ob       1     SIL   O00Hj       1     -1.05    15.999
    1468       O       1     SIL   O00Hk       1    -0.525    15.999
    1469      Oh       1     SIL   O00Hl       1     -0.95    15.999
    1470      Oh       1     SIL   O00Hm       1     -0.95    15.999
    1471       O       1     SIL   O00Hn       1    -0.525    15.999
    1472      Ob       1     SIL   O00Ho       1     -1.05    15.999
    1473      Si       1     SIL   Si08v       1       2.1    28.086
    1474      Si       1     SIL   Si08w       1       2.1    28.086
    1475      Ob       1     SIL   O00Hp       1     -1.05    15.999
    1476       O       1     SIL   O00Hq       1    -0.525    15.999
    1477      Oh       1     SIL   O00Hr       1     -0.95    15.999
    1478      Oh       1     SIL   O00Hs       1     -0.95    15.999
    1479       O       1     SIL   O00Ht       1    -0.525    15.999
    1480      Ob       1     SIL   O00Hu       1     -1.05    15.999
    1481      Si       1     SIL   Si08y       1       2.1    28.086
    1482      Si       1     SIL   Si08z       1       2.1    28.086
    1483      Ob       1     SIL   O00Hv       1     -1.05    15.999
    1484       O       1     SIL   O00Hw       1    -0.525    15.999
    1485      Oh       1     SIL   O00Hx       1     -0.95    15.999
    1486      Oh       1     SIL   O00Hy       1     -0.95    15.999
    1487       O       1     SIL   O00Hz       1    -0.525    15.999
    1488      Ob       1     SIL   O00I0       1     -1.05    15.999
    1489      Si       1     SIL   Si091       1       2.1    28.086
    1490      Si       1     SIL   Si092       1       2.1    28.086
    1491      Ob       1     SIL   O00I1       1     -1.05    15.999
    1492       O       1     SIL   O00I2       1    -0.525    15.999
    1493      Oh       1     SIL   O00I3       1     -0.95    15.999
    1494      Oh       1     SIL   O00I4       1     -0.95    15.999
    1495       O       1     SIL   O00I5       1    -0.525    15.999
    1496      Ob       1     SIL   O00I6       1     -1.05    15.999
    1497      Si       1     SIL   Si094       1       2.1    28.086
    1498      Si       1     SIL   Si095       1       2.1    28.086
    1499      Ob       1     SIL   O00I7       1     -1.05    15.999
    1500       O       1     SIL   O00I8       1    -0.525    15.999
    1501      Oh       1     SIL   O00I9       1     -0.95    15.999
    1502      Oh       1     SIL   O00IA       1     -0.95    15.999
    1503       O       1     SIL   O00IB       1    -0.525    15.999
    1504      Ob       1     SIL   O00IC       1     -1.05    15.999
    1505      Si       1     SIL   Si097       1       2.1    28.086
    1506      Si       1     SIL   Si098       1       2.1    28.086
    1507      Ob       1     SIL   O00ID       1     -1.05    15.999
    1508       O       1     SIL   O00IE       1    -0.525    15.999
    1509      Oh       1     SIL   O00IF       1     -0.95    15.999
    1510      Oh       1     SIL   O00IG       1     -0.95    15.999
    1511       O       1     SIL   O00IH       1    -0.525    15.999
    1512      Ob       1     SIL   O00II       1     -1.05    15.999
    1513      Si       1     SIL   Si09A       1       2.1    28.086
    1514      Si       1     SIL   Si09B       1       2.1    28.086
    1515      Ob       1     SIL   O00IJ       1     -1.05    15.999
    1516       O       1     SIL   O00IK       1    -0.525    15.999
    1517      Oh       1     SIL   O00IL       1     -0.95    15.999
    1518      Oh       1     SIL   O00IM       1     -0.95    15.999
    1519       O       1     SIL   O00IN       1    -0.525    15.999
    1520      Ob       1     SIL   O00IO       1     -1.05    15.999
    1521      Si       1     SIL   Si09D       1       2.1    28.086
    1522      Si       1     SIL   Si09E       1       2.1    28.086
    1523      Ob       1     SIL   O00IP       1     -1.05    15.999
    1524       O       1     SIL   O00IQ       1    -0.525    15.999
    1525      Oh       1     SIL   O00IR       1     -0.95    15.999
    1526      Oh       1     SIL   O00IS       1     -0.95    15.999
    1527       O       1     SIL   O00IT       1    -0.525    15.999
    1528      Ob       1     SIL   O00IU       1     -1.05    15.999
    1529      Si       1     SIL   Si09G       1       2.1    28.086
    1530      Si       1     SIL   Si09H       1       2.1    28.086
    1531      Ob       1     SIL   O00IV       1     -1.05    15.999
    1532       O       1     SIL   O00IW       1    -0.525    15.999
    1533      Oh       1     SIL   O00IX       1     -0.95    15.999
    1534      Oh       1     SIL   O00IY       1     -0.95    15.999
    1535       O       1     SIL   O00IZ       1    -0.525    15.999
    1536      Ob       1     SIL   O00Ia       1     -1.05    15.999
    1537      Si       1     SIL   Si09J       1       2.1    28.086
    1538      Si       1     SIL   Si09K       1       2.1    28.086
    1539      Ob       1     SIL   O00Ib       1     -1.05    15.999
    1540       O       1     SIL   O00Ic       1    -0.525    15.999
    1541      Oh       1     SIL   O00Id       1     -0.95    15.999
    1542      Oh       1     SIL   O00Ie       1     -0.95    15.999
    1543       O       1     SIL   O00If       1    -0.525    15.999
    1544      Ob       1     SIL   O00Ig       1     -1.05    15.999
    1545      Si       1     SIL   Si09M       1       2.1    28.086
    1546      Si       1     SIL   Si09N       1       2.1    28.086
    1547      Ob       1     SIL   O00Ih       1     -1.05    15.999
    1548       O       1     SIL   O00Ii       1    -0.525    15.999
    1549      Oh       1     SIL   O00Ij       1     -0.95    15.999
    1550      Oh       1     SIL   O00Ik       1     -0.95    15.999
    1551       O       1     SIL   O00Il       1    -0.525    15.999
    1552      Ob       1     SIL   O00Im       1     -1.05    15.999
    1553      Si       1     SIL   Si09P       1       2.1    28.086
    1554      Si       1     SIL   Si09Q       1       2.1    28.086
    1555      Ob       1     SIL   O00In       1     -1.05    15.999
    1556       O       1     SIL   O00Io       1    -0.525    15.999
    1557      Oh       1     SIL   O00Ip       1     -0.95    15.999
    1558      Oh       1     SIL   O00Iq       1     -0.95    15.999
    1559       O       1     SIL   O00Ir       1    -0.525    15.999
    1560      Ob       1     SIL   O00Is       1     -1.05    15.999
    1561      Si       1     SIL   Si09S       1       2.1    28.086
    1562      Si       1     SIL   Si09T       1       2.1    28.086
    1563      Ob       1     SIL   O00It       1     -1.05    15.999
    1564       O       1     SIL   O00Iu       1    -0.525    15.999
    1565      Oh       1     SIL   O00Iv       1     -0.95    15.999
    1566      Oh       1     SIL   O00Iw       1     -0.95    15.999
    1567       O       1     SIL   O00Ix       1    -0.525    15.999
    1568      Ob       1     SIL   O00Iy       1     -1.05    15.999
    1569      Si       1     SIL   Si09V       1       2.1    28.086
    1570      Si       1     SIL   Si09W       1       2.1    28.086
    1571      Ob       1     SIL   O00Iz       1     -1.05    15.999
    1572       O       1     SIL   O00J0       1    -0.525    15.999
    1573      Oh       1     SIL   O00J1       1     -0.95    15.999
    1574      Oh       1     SIL   O00J2       1     -0.95    15.999
    1575       O       1     SIL   O00J3       1    -0.525    15.999
    1576      Ob       1     SIL   O00J4       1     -1.05    15.999
    1577      Si       1     SIL   Si09Y       1       2.1    28.086
    1578      Si       1     SIL   Si09Z       1       2.1    28.086
    1579      Ob       1     SIL   O00J5       1     -1.05    15.999
    1580       O       1     SIL   O00J6       1    -0.525    15.999
    1581      Oh       1     SIL   O00J7       1     -0.95    15.999
    1582      Oh       1     SIL   O00J8       1     -0.95    15.999
    1583       O       1     SIL   O00J9       1    -0.525    15.999
    1584      Ob       1     SIL   O00JA       1     -1.05    15.999
    1585      Si       1     SIL   Si09b       1       2.1    28.086
    1586      Si       1     SIL   Si09c       1       2.1    28.086
    1587      Ob       1     SIL   O00JB       1     -1.05    15.999
    1588       O       1     SIL   O00JC       1    -0.525    15.999
    1589      Oh       1     SIL   O00JD       1     -0.95    15.999
    1590      Oh       1     SIL   O00JE       1     -0.95    15.999
    1591       O       1     SIL   O00JF       1    -0.525    15.999
    1592      Ob       1     SIL   O00JG       1     -1.05    15.999
    1593      Si       1     SIL   Si09e       1       2.1    28.086
    1594      Si       1     SIL   Si09f       1       2.1    28.086
    1595      Ob       1     SIL   O00JH       1     -1.05    15.999
    1596       O       1     SIL   O00JI       1    -0.525    15.999
    1597      Oh       1     SIL   O00JJ       1     -0.95    15.999
    1598      Oh       1     SIL   O00JK       1     -0.95    15.999
    1599       O       1     SIL   O00JL       1    -0.525    15.999
    1600      Ob       1     SIL   O00JM       1     -1.05    15.999
    1601      Si       1     SIL   Si09h       1       2.1    28.086
    1602      Si       1     SIL   Si09i       1       2.1    28.086
    1603      Ob       1     SIL   O00JN       1     -1.05    15.999
    1604       O       1     SIL   O00JO       1    -0.525    15.999
    1605      Oh       1     SIL   O00JP       1     -0.95    15.999
    1606      Oh       1     SIL   O00JQ       1     -0.95    15.999
    1607       O       1     SIL   O00JR       1    -0.525    15.999
    1608      Ob       1     SIL   O00JS       1     -1.05    15.999
    1609      Si       1     SIL   Si09k       1       2.1    28.086
    1610      Si       1     SIL   Si09l       1       2.1    28.086
    1611      Ob       1     SIL   O00JT       1     -1.05    15.999
    1612       O       1     SIL   O00JU       1    -0.525    15.999
    1613      Oh       1     SIL   O00JV       1     -0.95    15.999
    1614      Oh       1     SIL   O00JW       1     -0.95    15.999
    1615       O       1     SIL   O00JX       1    -0.525    15.999
    1616      Ob       1     SIL   O00JY       1     -1.05    15.999
    1617      Si       1     SIL   Si09n       1       2.1    28.086
    1618      Si       1     SIL   Si09o       1       2.1    28.086
    1619      Ob       1     SIL   O00JZ       1     -1.05    15.999
    1620       O       1     SIL   O00Ja       1    -0.525    15.999
    1621      Oh       1     SIL   O00Jb       1     -0.95    15.999
    1622      Oh       1     SIL   O00Jc       1     -0.95    15.999
    1623       O       1     SIL   O00Jd       1    -0.525    15.999
    1624      Ob       1     SIL   O00Je       1     -1.05    15.999
    1625      Si       1     SIL   Si09q       1       2.1    28.086
    1626      Si       1     SIL   Si09r       1       2.1    28.086
    1627      Ob       1     SIL   O00Jf       1     -1.05    15.999
    1628       O       1     SIL   O00Jg       1    -0.525    15.999
    1629      Oh       1     SIL   O00Jh       1     -0.95    15.999
    1630      Oh       1     SIL   O00Ji       1     -0.95    15.999
    1631       O       1     SIL   O00Jj       1    -0.525    15.999
    1632      Ob       1     SIL   O00Jk       1     -1.05    15.999
    1633      Si       1     SIL   Si09t       1       2.1    28.086
    1634      Si       1     SIL   Si09u       1       2.1    28.086
    1635      Ob       1     SIL   O00Jl       1     -1.05    15.999
    1636       O       1     SIL   O00Jm       1    -0.525    15.999
    1637      Oh       1     SIL   O00Jn       1     -0.95    15.999
    1638      Oh       1     SIL   O00Jo       1     -0.95    15.999
    1639       O       1     SIL   O00Jp       1    -0.525    15.999
    1640      Ob       1     SIL   O00Jq       1     -1.05    15.999
    1641      Si       1     SIL   Si09w       1       2.1    28.086
    1642      Si       1     SIL   Si09x       1       2.1    28.086
    1643      Ob       1     SIL   O00Jr       1     -1.05    15.999
    1644       O       1     SIL   O00Js       1    -0.525    15.999
    1645      Oh       1     SIL   O00Jt       1     -0.95    15.999
    1646      Oh       1     SIL   O00Ju       1     -0.95    15.999
    1647       O       1     SIL   O00Jv       1    -0.525    15.999
    1648      Ob       1     SIL   O00Jw       1     -1.05    15.999
    1649      Si       1     SIL   Si09z       1       2.1    28.086
    1650      Si       1     SIL   Si0A0       1       2.1    28.086
    1651      Ob       1     SIL   O00Jx       1     -1.05    15.999
    1652       O       1     SIL   O00Jy       1    -0.525    15.999
    1653      Oh       1     SIL   O00Jz       1     -0.95    15.999
    1654      Oh       1     SIL   O00K0       1     -0.95    15.999
    1655       O       1     SIL   O00K1       1    -0.525    15.999
    1656      Ob       1     SIL   O00K2       1     -1.05    15.999
    1657      Si       1     SIL   Si0A2       1       2.1    28.086
    1658      Si       1     SIL   Si0A3       1       2.1    28.086
    1659      Ob       1     SIL   O00K3       1     -1.05    15.999
    1660       O       1     SIL   O00K4       1    -0.525    15.999
    1661      Oh       1     SIL   O00K5       1     -0.95    15.999
    1662      Oh       1     SIL   O00K6       1     -0.95    15.999
    1663       O       1     SIL   O00K7       1    -0.525    15.999
    1664      Ob       1     SIL   O00K8       1     -1.05    15.999
    1665      Si       1     SIL   Si0A5       1       2.1    28.086
    1666      Si       1     SIL   Si0A6       1       2.1    28.086
    1667      Ob       1     SIL   O00K9       1     -1.05    15.999
    1668       O       1     SIL   O00KA       1    -0.525    15.999
    1669      Oh       1     SIL   O00KB       1     -0.95    15.999
    1670      Oh       1     SIL   O00KC       1     -0.95    15.999
    1671       O       1     SIL   O00KD       1    -0.525    15.999
    1672      Ob       1     SIL   O00KE       1     -1.05    15.999
    1673      Si       1     SIL   Si0A8       1       2.1    28.086
    1674      Si       1     SIL   Si0A9       1       2.1    28.086
    1675      Ob       1     SIL   O00KF       1     -1.05    15.999
    1676       O       1     SIL   O00KG       1    -0.525    15.999
    1677      Oh       1     SIL   O00KH       1     -0.95    15.999
    1678      Oh       1     SIL   O00KI       1     -0.95    15.999
    1679       O       1     SIL   O00KJ       1    -0.525    15.999
    1680      Ob       1     SIL   O00KK       1     -1.05    15.999
    1681      Si       1     SIL   Si0AB       1       2.1    28.086
    1682      Si       1     SIL   Si0AC       1       2.1    28.086
    1683      Ob       1     SIL   O00KL       1     -1.05    15.999
    1684       O       1     SIL   O00KM       1    -0.525    15.999
    1685      Oh       1     SIL   O00KN       1     -0.95    15.999
    1686      Oh       1     SIL   O00KO       1     -0.95    15.999
    1687       O       1     SIL   O00KP       1    -0.525    15.999
    1688      Ob       1     SIL   O00KQ       1     -1.05    15.999
    1689      Si       1     SIL   Si0AE       1       2.1    28.086
    1690      Si       1     SIL   Si0AF       1       2.1    28.086
    1691      Ob       1     SIL   O00KR       1     -1.05    15.999
    1692       O       1     SIL   O00KS       1    -0.525    15.999
    1693      Oh       1     SIL   O00KT       1     -0.95    15.999
    1694      Oh       1     SIL   O00KU       1     -0.95    15.999
    1695       O       1     SIL   O00KV       1    -0.525    15.999
    1696      Ob       1     SIL   O00KW       1     -1.05    15.999
    1697      Si       1     SIL   Si0AH       1       2.1    28.086
    1698      Si       1     SIL   Si0AI       1       2.1    28.086
    1699      Ob       1     SIL   O00KX       1     -1.05    15.999
    1700       O       1     SIL   O00KY       1    -0.525    15.999
    1701      Oh       1     SIL   O00KZ       1     -0.95    15.999
    1702      Oh       1     SIL   O00Ka       1     -0.95    15.999
    1703       O       1     SIL   O00Kb       1    -0.525    15.999
    1704      Ob       1     SIL   O00Kc       1     -1.05    15.999
    1705      Si       1     SIL   Si0AK       1       2.1    28.086
    1706      Si       1     SIL   Si0AL       1       2.1    28.086
    1707      Ob       1     SIL   O00Kd       1     -1.05    15.999
    1708       O       1     SIL   O00Ke       1    -0.525    15.999
    1709      Oh       1     SIL   O00Kf       1     -0.95    15.999
    1710      Oh       1     SIL   O00Kg       1     -0.95    15.999
    1711       O       1     SIL   O00Kh       1    -0.525    15.999
    1712      Ob       1     SIL   O00Ki       1     -1.05    15.999
    1713      Si       1     SIL   Si0AN       1       2.1    28.086
    1714      Si       1     SIL   Si0AO       1       2.1    28.086
    1715      Ob       1     SIL   O00Kj       1     -1.05    15.999
    1716       O       1     SIL   O00Kk       1    -0.525    15.999
    1717      Oh       1     SIL   O00Kl       1     -0.95    15.999
    1718      Oh       1     SIL   O00Km       1     -0.95    15.999
    1719       O       1     SIL   O00Kn       1    -0.525    15.999
    1720      Ob       1     SIL   O00Ko       1     -1.05    15.999
    1721      Si       1     SIL   Si0AQ       1       2.1    28.086
    1722      Si       1     SIL   Si0AR       1       2.1    28.086
    1723      Ob       1     SIL   O00Kp       1     -1.05    15.999
    1724       O       1     SIL   O00Kq       1    -0.525    15.999
    1725      Oh       1     SIL   O00Kr       1     -0.95    15.999
    1726      Oh       1     SIL   O00Ks       1     -0.95    15.999
    1727       O       1     SIL   O00Kt       1    -0.525    15.999
    1728      Ob       1     SIL   O00Ku       1     -1.05    15.999
    1729      Si       1     SIL   Si0AT       1       2.1    28.086
    1730      Si       1     SIL   Si0AU       1       2.1    28.086
    1731      Ob       1     SIL   O00Kv       1     -1.05    15.999
    1732       O       1     SIL   O00Kw       1    -0.525    15.999
    1733      Oh       1     SIL   O00Kx       1     -0.95    15.999
    1734      Oh       1     SIL   O00Ky       1     -0.95    15.999
    1735       O       1     SIL   O00Kz       1    -0.525    15.999
    1736      Ob       1     SIL   O00L0       1     -1.05    15.999
    1737      Si       1     SIL   Si0AW       1       2.1    28.086
    1738      Si       1     SIL   Si0AX       1       2.1    28.086
    1739      Ob       1     SIL   O00L1       1     -1.05    15.999
    1740       O       1     SIL   O00L2       1    -0.525    15.999
    1741      Oh       1     SIL   O00L3       1     -0.95    15.999
    1742      Oh       1     SIL   O00L4       1     -0.95    15.999
    1743       O       1     SIL   O00L5       1    -0.525    15.999
    1744      Ob       1     SIL   O00L6       1     -1.05    15.999
    1745      Si       1     SIL   Si0AZ       1       2.1    28.086
    1746      Si       1     SIL   Si0Aa       1       2.1    28.086
    1747      Ob       1     SIL   O00L7       1     -1.05    15.999
    1748       O       1     SIL   O00L8       1    -0.525    15.999
    1749      Oh       1     SIL   O00L9       1     -0.95    15.999
    1750      Oh       1     SIL   O00LA       1     -0.95    15.999
    1751       O       1     SIL   O00LB       1    -0.525    15.999
    1752      Ob       1     SIL   O00LC       1     -1.05    15.999
    1753      Si       1     SIL   Si0Ac       1       2.1    28.086
    1754      Si       1     SIL   Si0Ad       1       2.1    28.086
    1755      Ob       1     SIL   O00LD       1     -1.05    15.999
    1756       O       1     SIL   O00LE       1    -0.525    15.999
    1757      Oh       1     SIL   O00LF       1     -0.95    15.999
    1758      Oh       1     SIL   O00LG       1     -0.95    15.999
    1759       O       1     SIL   O00LH       1    -0.525    15.999
    1760      Ob       1     SIL   O00LI       1     -1.05    15.999
    1761      Si       1     SIL   Si0Af       1       2.1    28.086
    1762      Si       1     SIL   Si0Ag       1       2.1    28.086
    1763      Ob       1     SIL   O00LJ       1     -1.05    15.999
    1764       O       1     SIL   O00LK       1    -0.525    15.999
    1765      Oh       1     SIL   O00LL       1     -0.95    15.999
    1766      Oh       1     SIL   O00LM       1     -0.95    15.999
    1767       O       1     SIL   O00LN       1    -0.525    15.999
    1768      Ob       1     SIL   O00LO       1     -1.05    15.999
    1769      Si       1     SIL   Si0Ai       1       2.1    28.086
    1770      Si       1     SIL   Si0Aj       1       2.1    28.086
    1771      Ob       1     SIL   O00LP       1     -1.05    15.999
    1772       O       1     SIL   O00LQ       1    -0.525    15.999
    1773      Oh       1     SIL   O00LR       1     -0.95    15.999
    1774      Oh       1     SIL   O00LS       1     -0.95    15.999
    1775       O       1     SIL   O00LT       1    -0.525    15.999
    1776      Ob       1     SIL   O00LU       1     -1.05    15.999
    1777      Si       1     SIL   Si0Al       1       2.1    28.086
    1778      Si       1     SIL   Si0Am       1       2.1    28.086
    1779      Ob       1     SIL   O00LV       1     -1.05    15.999
    1780       O       1     SIL   O00LW       1    -0.525    15.999
    1781      Oh       1     SIL   O00LX       1     -0.95    15.999
    1782      Oh       1     SIL   O00LY       1     -0.95    15.999
    1783       O       1     SIL   O00LZ       1    -0.525    15.999
    1784      Ob       1     SIL   O00La       1     -1.05    15.999
    1785      Si       1     SIL   Si0Ao       1       2.1    28.086
    1786      Si       1     SIL   Si0Ap       1       2.1    28.086
    1787      Ob       1     SIL   O00Lb       1     -1.05    15.999
    1788       O       1     SIL   O00Lc       1    -0.525    15.999
    1789      Oh       1     SIL   O00Ld       1     -0.95    15.999
    1790      Oh       1     SIL   O00Le       1     -0.95    15.999
    1791       O       1     SIL   O00Lf       1    -0.525    15.999
    1792      Ob       1     SIL   O00Lg       1     -1.05    15.999
    1793      Si       1     SIL   Si0Ar       1       2.1    28.086
    1794      Si       1     SIL   Si0As       1       2.1    28.086
    1795      Ob       1     SIL   O00Lh       1     -1.05    15.999
    1796       O       1     SIL   O00Li       1    -0.525    15.999
    1797      Oh       1     SIL   O00Lj       1     -0.95    15.999
    1798      Oh       1     SIL   O00Lk       1     -0.95    15.999
    1799       O       1     SIL   O00Ll       1    -0.525    15.999
    1800      Ob       1     SIL   O00Lm       1     -1.05    15.999
    1801      Si       1     SIL   Si0Au       1       2.1    28.086
    1802      Si       1     SIL   Si0Av       1       2.1    28.086
    1803      Ob       1     SIL   O00Ln       1     -1.05    15.999
    1804       O       1     SIL   O00Lo       1    -0.525    15.999
    1805      Oh       1     SIL   O00Lp       1     -0.95    15.999
    1806      Oh       1     SIL   O00Lq       1     -0.95    15.999
    1807       O       1     SIL   O00Lr       1    -0.525    15.999
    1808      Ob       1     SIL   O00Ls       1     -1.05    15.999
    1809      Si       1     SIL   Si0Ax       1       2.1    28.086
    1810      Si       1     SIL   Si0Ay       1       2.1    28.086
    1811      Ob       1     SIL   O00Lt       1     -1.05    15.999
    1812       O       1     SIL   O00Lu       1    -0.525    15.999
    1813      Oh       1     SIL   O00Lv       1     -0.95    15.999
    1814      Oh       1     SIL   O00Lw       1     -0.95    15.999
    1815       O       1     SIL   O00Lx       1    -0.525    15.999
    1816      Ob       1     SIL   O00Ly       1     -1.05    15.999
    1817      Si       1     SIL   Si0B0       1       2.1    28.086
    1818      Si       1     SIL   Si0B1       1       2.1    28.086
    1819      Ob       1     SIL   O00Lz       1     -1.05    15.999
    1820       O       1     SIL   O00M0       1    -0.525    15.999
    1821      Oh       1     SIL   O00M1       1     -0.95    15.999
    1822      Oh       1     SIL   O00M2       1     -0.95    15.999
    1823       O       1     SIL   O00M3       1    -0.525    15.999
    1824      Ob       1     SIL   O00M4       1     -1.05    15.999
    1825      Si       1     SIL   Si0B3       1       2.1    28.086
    1826      Si       1     SIL   Si0B4       1       2.1    28.086
    1827      Ob       1     SIL   O00M5       1     -1.05    15.999
    1828       O       1     SIL   O00M6       1    -0.525    15.999
    1829      Oh       1     SIL   O00M7       1     -0.95    15.999
    1830      Oh       1     SIL   O00M8       1     -0.95    15.999
    1831       O       1     SIL   O00M9       1    -0.525    15.999
    1832      Ob       1     SIL   O00MA       1     -1.05    15.999
    1833      Si       1     SIL   Si0B6       1       2.1    28.086
    1834      Si       1     SIL   Si0B7       1       2.1    28.086
    1835      Ob       1     SIL   O00MB       1     -1.05    15.999
    1836       O       1     SIL   O00MC       1    -0.525    15.999
    1837      Oh       1     SIL   O00MD       1     -0.95    15.999
    1838      Oh       1     SIL   O00ME       1     -0.95    15.999
    1839       O       1     SIL   O00MF       1    -0.525    15.999
    1840      Ob       1     SIL   O00MG       1     -1.05    15.999
    1841      Si       1     SIL   Si0B9       1       2.1    28.086
    1842      Si       1     SIL   Si0BA       1       2.1    28.086
    1843      Ob       1     SIL   O00MH       1     -1.05    15.999
    1844       O       1     SIL   O00MI       1    -0.525    15.999
    1845      Oh       1     SIL   O00MJ       1     -0.95    15.999
    1846      Oh       1     SIL   O00MK       1     -0.95    15.999
    1847       O       1     SIL   O00ML       1    -0.525    15.999
    1848      Ob       1     SIL   O00MM       1     -1.05    15.999
    1849      Si       1     SIL   Si0BC       1       2.1    28.086
    1850      Si       1     SIL   Si0BD       1       2.1    28.086
    1851      Ob       1     SIL   O00MN       1     -1.05    15.999
    1852       O       1     SIL   O00MO       1    -0.525    15.999
    1853      Oh       1     SIL   O00MP       1     -0.95    15.999
    1854      Oh       1     SIL   O00MQ       1     -0.95    15.999
    1855       O       1     SIL   O00MR       1    -0.525    15.999
    1856      Ob       1     SIL   O00MS       1     -1.05    15.999
    1857      Si       1     SIL   Si0BF       1       2.1    28.086
    1858      Si       1     SIL   Si0BG       1       2.1    28.086
    1859      Ob       1     SIL   O00MT       1     -1.05    15.999
    1860       O       1     SIL   O00MU       1    -0.525    15.999
    1861      Oh       1     SIL   O00MV       1     -0.95    15.999
    1862      Oh       1     SIL   O00MW       1     -0.95    15.999
    1863       O       1     SIL   O00MX       1    -0.525    15.999
    1864      Ob       1     SIL   O00MY       1     -1.05    15.999
    1865      Si       1     SIL   Si0BI       1       2.1    28.086
    1866      Si       1     SIL   Si0BJ       1       2.1    28.086
    1867      Ob       1     SIL   O00MZ       1     -1.05    15.999
    1868       O       1     SIL   O00Ma       1    -0.525    15.999
    1869      Oh       1     SIL   O00Mb       1     -0.95    15.999
    1870      Oh       1     SIL   O00Mc       1     -0.95    15.999
    1871       O       1     SIL   O00Md       1    -0.525    15.999
    1872      Ob       1     SIL   O00Me       1     -1.05    15.999
    1873      Si       1     SIL   Si0BL       1       2.1    28.086
    1874      Si       1     SIL   Si0BM       1       2.1    28.086
    1875      Ob       1     SIL   O00Mf       1     -1.05    15.999
    1876       O       1     SIL   O00Mg       1    -0.525    15.999
    1877      Oh       1     SIL   O00Mh       1     -0.95    15.999
    1878      Oh       1     SIL   O00Mi       1     -0.95    15.999
    1879       O       1     SIL   O00Mj       1    -0.525    15.999
    1880      Ob       1     SIL   O00Mk       1     -1.05    15.999
    1881      Si       1     SIL   Si0BO       1       2.1    28.086
    1882      Si       1     SIL   Si0BP       1       2.1    28.086
    1883      Ob       1     SIL   O00Ml       1     -1.05    15.999
    1884       O       1     SIL   O00Mm       1    -0.525    15.999
    1885      Oh       1     SIL   O00Mn       1     -0.95    15.999
    1886      Oh       1     SIL   O00Mo       1     -0.95    15.999
    1887       O       1     SIL   O00Mp       1    -0.525    15.999
    1888      Ob       1     SIL   O00Mq       1     -1.05    15.999
    1889      Si       1     SIL   Si0BR       1       2.1    28.086
    1890      Si       1     SIL   Si0BS       1       2.1    28.086
    1891      Ob       1     SIL   O00Mr       1     -1.05    15.999
    1892       O       1     SIL   O00Ms       1    -0.525    15.999
    1893      Oh       1     SIL   O00Mt       1     -0.95    15.999
    1894      Oh       1     SIL   O00Mu       1     -0.95    15.999
    1895       O       1     SIL   O00Mv       1    -0.525    15.999
    1896      Ob       1     SIL   O00Mw       1     -1.05    15.999
    1897      Si       1     SIL   Si0BU       1       2.1    28.086
    1898      Si       1     SIL   Si0BV       1       2.1    28.086
    1899      Ob       1     SIL   O00Mx       1     -1.05    15.999
    1900       O       1     SIL   O00My       1    -0.525    15.999
    1901      Oh       1     SIL   O00Mz       1     -0.95    15.999
    1902      Oh       1     SIL   O00N0       1     -0.95    15.999
    1903       O       1     SIL   O00N1       1    -0.525    15.999
    1904      Ob       1     SIL   O00N2       1     -1.05    15.999
    1905      Si       1     SIL   Si0BX       1       2.1    28.086
    1906      Si       1     SIL   Si0BY       1       2.1    28.086
    1907      Ob       1     SIL   O00N3       1     -1.05    15.999
    1908       O       1     SIL   O00N4       1    -0.525    15.999
    1909      Oh       1     SIL   O00N5       1     -0.95    15.999
    1910      Oh       1     SIL   O00N6       1     -0.95    15.999
    1911       O       1     SIL   O00N7       1    -0.525    15.999
    1912      Ob       1     SIL   O00N8       1     -1.05    15.999
    1913      Si       1     SIL   Si0Ba       1       2.1    28.086
    1914      Si       1     SIL   Si0Bb       1       2.1    28.086
    1915      Ob       1     SIL   O00N9       1     -1.05    15.999
    1916       O       1     SIL   O00NA       1    -0.525    15.999
    1917      Oh       1     SIL   O00NB       1     -0.95    15.999
    1918      Oh       1     SIL   O00NC       1     -0.95    15.999
    1919       O       1     SIL   O00ND       1    -0.525    15.999
    1920      Ob       1     SIL   O00NE       1     -1.05    15.999
    1921      Si       1     SIL   Si0Bd       1       2.1    28.086
    1922      Si       1     SIL   Si0Be       1       2.1    28.086
    1923      Ob       1     SIL   O00NF       1     -1.05    15.999
    1924       O       1     SIL   O00NG       1    -0.525    15.999
    1925      Oh       1     SIL   O00NH       1     -0.95    15.999
    1926      Oh       1     SIL   O00NI       1     -0.95    15.999
    1927       O       1     SIL   O00NJ       1    -0.525    15.999
    1928      Ob       1     SIL   O00NK       1     -1.05    15.999
    1929      Si       1     SIL   Si0Bg       1       2.1    28.086
    1930      Si       1     SIL   Si0Bh       1       2.1    28.086
    1931      Ob       1     SIL   O00NL       1     -1.05    15.999
    1932       O       1     SIL   O00NM       1    -0.525    15.999
    1933      Oh       1     SIL   O00NN       1     -0.95    15.999
    1934      Oh       1     SIL   O00NO       1     -0.95    15.999
    1935       O       1     SIL   O00NP       1    -0.525    15.999
    1936      Ob       1     SIL   O00NQ       1     -1.05    15.999
    1937      Si       1     SIL   Si0Bj       1       2.1    28.086
    1938      Si       1     SIL   Si0Bk       1       2.1    28.086
    1939      Ob       1     SIL   O00NR       1     -1.05    15.999
    1940       O       1     SIL   O00NS       1    -0.525    15.999
    1941      Oh       1     SIL   O00NT       1     -0.95    15.999
    1942      Oh       1     SIL   O00NU       1     -0.95    15.999
    1943       O       1     SIL   O00NV       1    -0.525    15.999
    1944      Ob       1     SIL   O00NW       1     -1.05    15.999
    1945      Si       1     SIL   Si0Bm       1       2.1    28.086
    1946      Si       1     SIL   Si0Bn       1       2.1    28.086
    1947      Ob       1     SIL   O00NX       1     -1.05    15.999
    1948       O       1     SIL   O00NY       1    -0.525    15.999
    1949      Oh       1     SIL   O00NZ       1     -0.95    15.999
    1950      Oh       1     SIL   O00Na       1     -0.95    15.999
    1951       O       1     SIL   O00Nb       1    -0.525    15.999
    1952      Ob       1     SIL   O00Nc       1     -1.05    15.999
    1953      Si       1     SIL   Si0Bp       1       2.1    28.086
    1954      Si       1     SIL   Si0Bq       1       2.1    28.086
    1955      Ob       1     SIL   O00Nd       1     -1.05    15.999
    1956       O       1     SIL   O00Ne       1    -0.525    15.999
    1957      Oh       1     SIL   O00Nf       1     -0.95    15.999
    1958      Oh       1     SIL   O00Ng       1     -0.95    15.999
    1959       O       1     SIL   O00Nh       1    -0.525    15.999
    1960      Ob       1     SIL   O00Ni       1     -1.05    15.999
    1961      Si       1     SIL   Si0Bs       1       2.1    28.086
    1962      Si       1     SIL   Si0Bt       1       2.1    28.086
    1963      Ob       1     SIL   O00Nj       1     -1.05    15.999
    1964       O       1     SIL   O00Nk       1    -0.525    15.999
    1965      Oh       1     SIL   O00Nl       1     -0.95    15.999
    1966      Oh       1     SIL   O00Nm       1     -0.95    15.999
    1967       O       1     SIL   O00Nn       1    -0.525    15.999
    1968      Ob       1     SIL   O00No       1     -1.05    15.999
    1969      Si       1     SIL   Si0Bv       1       2.1    28.086
    1970      Si       1     SIL   Si0Bw       1       2.1    28.086
    1971      Ob       1     SIL   O00Np       1     -1.05    15.999
    1972       O       1     SIL   O00Nq       1    -0.525    15.999
    1973      Oh       1     SIL   O00Nr       1     -0.95    15.999
    1974      Oh       1     SIL   O00Ns       1     -0.95    15.999
    1975       O       1     SIL   O00Nt       1    -0.525    15.999
    1976      Ob       1     SIL   O00Nu       1     -1.05    15.999
    1977      Si       1     SIL   Si0By       1       2.1    28.086
    1978      Si       1     SIL   Si0Bz       1       2.1    28.086
    1979      Ob       1     SIL   O00Nv       1     -1.05    15.999
    1980       O       1     SIL   O00Nw       1    -0.525    15.999
    1981      Oh       1     SIL   O00Nx       1     -0.95    15.999
    1982      Oh       1     SIL   O00Ny       1     -0.95    15.999
    1983       O       1     SIL   O00Nz       1    -0.525    15.999
    1984      Ob       1     SIL   O00O0       1     -1.05    15.999
    1985      Si       1     SIL   Si0C1       1       2.1    28.086
    1986      Si       1     SIL   Si0C2       1       2.1    28.086
    1987      Ob       1     SIL   O00O1       1     -1.05    15.999
    1988       O       1     SIL   O00O2       1    -0.525    15.999
    1989      Oh       1     SIL   O00O3       1     -0.95    15.999
    1990      Oh       1     SIL   O00O4       1     -0.95    15.999
    1991       O       1     SIL   O00O5       1    -0.525    15.999
    1992      Ob       1     SIL   O00O6       1     -1.05    15.999
    1993      Si       1     SIL   Si0C4       1       2.1    28.086
    1994      Si       1     SIL   Si0C5       1       2.1    28.086
    1995      Ob       1     SIL   O00O7       1     -1.05    15.999
    1996       O       1     SIL   O00O8       1    -0.525    15.999
    1997      Oh       1     SIL   O00O9       1     -0.95    15.999
    1998      Oh       1     SIL   O00OA       1     -0.95    15.999
    1999       O       1     SIL   O00OB       1    -0.525    15.999
    2000      Ob       1     SIL   O00OC       1     -1.05    15.999
    2001      Si       1     SIL   Si0C7       1       2.1    28.086
    2002      Si       1     SIL   Si0C8       1       2.1    28.086
    2003      Ob       1     SIL   O00OD       1     -1.05    15.999
    2004       O       1     SIL   O00OE       1    -0.525    15.999
    2005      Oh       1     SIL   O00OF       1     -0.95    15.999
    2006      Oh       1     SIL   O00OG       1     -0.95    15.999
    2007       O       1     SIL   O00OH       1    -0.525    15.999
    2008      Ob       1     SIL   O00OI       1     -1.05    15.999
    2009      Si       1     SIL   Si0CA       1       2.1    28.086
    2010      Si       1     SIL   Si0CB       1       2.1    28.086
    2011      Ob       1     SIL   O00OJ       1     -1.05    15.999
    2012       O       1     SIL   O00OK       1    -0.525    15.999
    2013      Oh       1     SIL   O00OL       1     -0.95    15.999
    2014      Oh       1     SIL   O00OM       1     -0.95    15.999
    2015       O       1     SIL   O00ON       1    -0.525    15.999
    2016      Ob       1     SIL   O00OO       1     -1.05    15.999
    2017      Si       1     SIL   Si0CD       1       2.1    28.086
    2018      Si       1     SIL   Si0CE       1       2.1    28.086
    2019      Ob       1     SIL   O00OP       1     -1.05    15.999
    2020       O       1     SIL   O00OQ       1    -0.525    15.999
    2021      Oh       1     SIL   O00OR       1     -0.95    15.999
    2022      Oh       1     SIL   O00OS       1     -0.95    15.999
    2023       O       1     SIL   O00OT       1    -0.525    15.999
    2024      Ob       1     SIL   O00OU       1     -1.05    15.999
    2025      Si       1     SIL   Si0CG       1       2.1    28.086
    2026      Si       1     SIL   Si0CH       1       2.1    28.086
    2027      Ob       1     SIL   O00OV       1     -1.05    15.999
    2028       O       1     SIL   O00OW       1    -0.525    15.999
    2029      Oh       1     SIL   O00OX       1     -0.95    15.999
    2030      Oh       1     SIL   O00OY       1     -0.95    15.999
    2031       O       1     SIL   O00OZ       1    -0.525    15.999
    2032      Ob       1     SIL   O00Oa       1     -1.05    15.999
    2033      Si       1     SIL   Si0CJ       1       2.1    28.086
    2034      Si       1     SIL   Si0CK       1       2.1    28.086
    2035      Ob       1     SIL   O00Ob       1     -1.05    15.999
    2036       O       1     SIL   O00Oc       1    -0.525    15.999
    2037      Oh       1     SIL   O00Od       1     -0.95    15.999
    2038      Oh       1     SIL   O00Oe       1     -0.95    15.999
    2039       O       1     SIL   O00Of       1    -0.525    15.999
    2040      Ob       1     SIL   O00Og       1     -1.05    15.999
    2041      Si       1     SIL   Si0CM       1       2.1    28.086
    2042      Si       1     SIL   Si0CN       1       2.1    28.086
    2043      Ob       1     SIL   O00Oh       1     -1.05    15.999
    2044       O       1     SIL   O00Oi       1    -0.525    15.999
    2045      Oh       1     SIL   O00Oj       1     -0.95    15.999
    2046      Oh       1     SIL   O00Ok       1     -0.95    15.999
    2047       O       1     SIL   O00Ol       1    -0.525    15.999
    2048      Ob       1     SIL   O00Om       1     -1.05    15.999
    2049      Si       1     SIL   Si0CP       1       2.1    28.086
    2050      Si       1     SIL   Si0CQ       1       2.1    28.086
    2051      Ob       1     SIL   O00On       1     -1.05    15.999
    2052       O       1     SIL   O00Oo       1    -0.525    15.999
    2053      Oh       1     SIL   O00Op       1     -0.95    15.999
    2054      Oh       1     SIL   O00Oq       1     -0.95    15.999
    2055       O       1     SIL   O00Or       1    -0.525    15.999
    2056      Ob       1     SIL   O00Os       1     -1.05    15.999
    2057      Si       1     SIL   Si0CS       1       2.1    28.086
    2058      Si       1     SIL   Si0CT       1       2.1    28.086
    2059      Ob       1     SIL   O00Ot       1     -1.05    15.999
    2060       O       1     SIL   O00Ou       1    -0.525    15.999
    2061      Oh       1     SIL   O00Ov       1     -0.95    15.999
    2062      Oh       1     SIL   O00Ow       1     -0.95    15.999
    2063       O       1     SIL   O00Ox       1    -0.525    15.999
    2064      Ob       1     SIL   O00Oy       1     -1.05    15.999
    2065      Si       1     SIL   Si0CV       1       2.1    28.086
    2066      Si       1     SIL   Si0CW       1       2.1    28.086
    2067      Ob       1     SIL   O00Oz       1     -1.05    15.999
    2068       O       1     SIL   O00P0       1    -0.525    15.999
    2069      Oh       1     SIL   O00P1       1     -0.95    15.999
    2070      Oh       1     SIL   O00P2       1     -0.95    15.999
    2071       O       1     SIL   O00P3       1    -0.525    15.999
    2072      Ob       1     SIL   O00P4       1     -1.05    15.999
    2073      Si       1     SIL   Si0CY       1       2.1    28.086
    2074      Si       1     SIL   Si0CZ       1       2.1    28.086
    2075      Ob       1     SIL   O00P5       1     -1.05    15.999
    2076       O       1     SIL   O00P6       1    -0.525    15.999
    2077      Oh       1     SIL   O00P7       1     -0.95    15.999
    2078      Oh       1     SIL   O00P8       1     -0.95    15.999
    2079       O       1     SIL   O00P9       1    -0.525    15.999
    2080      Ob       1     SIL   O00PA       1     -1.05    15.999
    2081      Si       1     SIL   Si0Cb       1       2.1    28.086
    2082      Si       1     SIL   Si0Cc       1       2.1    28.086
    2083      Ob       1     SIL   O00PB       1     -1.05    15.999
    2084       O       1     SIL   O00PC       1    -0.525    15.999
    2085      Oh       1     SIL   O00PD       1     -0.95    15.999
    2086      Oh       1     SIL   O00PE       1     -0.95    15.999
    2087       O       1     SIL   O00PF       1    -0.525    15.999
    2088      Ob       1     SIL   O00PG       1     -1.05    15.999
    2089      Si       1     SIL   Si0Ce       1       2.1    28.086
    2090      Si       1     SIL   Si0Cf       1       2.1    28.086
    2091      Ob       1     SIL   O00PH       1     -1.05    15.999
    2092       O       1     SIL   O00PI       1    -0.525    15.999
    2093      Oh       1     SIL   O00PJ       1     -0.95    15.999
    2094      Oh       1     SIL   O00PK       1     -0.95    15.999
    2095       O       1     SIL   O00PL       1    -0.525    15.999
    2096      Ob       1     SIL   O00PM       1     -1.05    15.999
    2097      Si       1     SIL   Si0Ch       1       2.1    28.086
    2098      Si       1     SIL   Si0Ci       1       2.1    28.086
    2099      Ob       1     SIL   O00PN       1     -1.05    15.999
    2100       O       1     SIL   O00PO       1    -0.525    15.999
    2101      Oh       1     SIL   O00PP       1     -0.95    15.999
    2102      Oh       1     SIL   O00PQ       1     -0.95    15.999
    2103       O       1     SIL   O00PR       1    -0.525    15.999
    2104      Ob       1     SIL   O00PS       1     -1.05    15.999
    2105      Si       1     SIL   Si0Ck       1       2.1    28.086
    2106      Si       1     SIL   Si0Cl       1       2.1    28.086
    2107      Ob       1     SIL   O00PT       1     -1.05    15.999
    2108       O       1     SIL   O00PU       1    -0.525    15.999
    2109      Oh       1     SIL   O00PV       1     -0.95    15.999
    2110      Oh       1     SIL   O00PW       1     -0.95    15.999
    2111       O       1     SIL   O00PX       1    -0.525    15.999
    2112      Ob       1     SIL   O00PY       1     -1.05    15.999
    2113      Si       1     SIL   Si0Cn       1       2.1    28.086
    2114      Si       1     SIL   Si0Co       1       2.1    28.086
    2115      Ob       1     SIL   O00PZ       1     -1.05    15.999
    2116       O       1     SIL   O00Pa       1    -0.525    15.999
    2117      Oh       1     SIL   O00Pb       1     -0.95    15.999
    2118      Oh       1     SIL   O00Pc       1     -0.95    15.999
    2119       O       1     SIL   O00Pd       1    -0.525    15.999
    2120      Ob       1     SIL   O00Pe       1     -1.05    15.999
    2121      Si       1     SIL   Si0Cq       1       2.1    28.086
    2122      Si       1     SIL   Si0Cr       1       2.1    28.086
    2123      Ob       1     SIL   O00Pf       1     -1.05    15.999
    2124       O       1     SIL   O00Pg       1    -0.525    15.999
    2125      Oh       1     SIL   O00Ph       1     -0.95    15.999
    2126      Oh       1     SIL   O00Pi       1     -0.95    15.999
    2127       O       1     SIL   O00Pj       1    -0.525    15.999
    2128      Ob       1     SIL   O00Pk       1     -1.05    15.999
    2129      Si       1     SIL   Si0Ct       1       2.1    28.086
    2130      Si       1     SIL   Si0Cu       1       2.1    28.086
    2131      Ob       1     SIL   O00Pl       1     -1.05    15.999
    2132       O       1     SIL   O00Pm       1    -0.525    15.999
    2133      Oh       1     SIL   O00Pn       1     -0.95    15.999
    2134      Oh       1     SIL   O00Po       1     -0.95    15.999
    2135       O       1     SIL   O00Pp       1    -0.525    15.999
    2136      Ob       1     SIL   O00Pq       1     -1.05    15.999
    2137      Si       1     SIL   Si0Cw       1       2.1    28.086
    2138      Si       1     SIL   Si0Cx       1       2.1    28.086
    2139      Ob       1     SIL   O00Pr       1     -1.05    15.999
    2140       O       1     SIL   O00Ps       1    -0.525    15.999
    2141      Oh       1     SIL   O00Pt       1     -0.95    15.999
    2142      Oh       1     SIL   O00Pu       1     -0.95    15.999
    2143       O       1     SIL   O00Pv       1    -0.525    15.999
    2144      Ob       1     SIL   O00Pw       1     -1.05    15.999
    2145      Si       1     SIL   Si0Cz       1       2.1    28.086
    2146      Si       1     SIL   Si0D0       1       2.1    28.086
    2147      Ob       1     SIL   O00Px       1     -1.05    15.999
    2148       O       1     SIL   O00Py       1    -0.525    15.999
    2149      Oh       1     SIL   O00Pz       1     -0.95    15.999
    2150      Oh       1     SIL   O00Q0       1     -0.95    15.999
    2151       O       1     SIL   O00Q1       1    -0.525    15.999
    2152      Ob       1     SIL   O00Q2       1     -1.05    15.999
    2153      Si       1     SIL   Si0D2       1       2.1    28.086
    2154      Si       1     SIL   Si0D3       1       2.1    28.086
    2155      Ob       1     SIL   O00Q3       1     -1.05    15.999
    2156       O       1     SIL   O00Q4       1    -0.525    15.999
    2157      Oh       1     SIL   O00Q5       1     -0.95    15.999
    2158      Oh       1     SIL   O00Q6       1     -0.95    15.999
    2159       O       1     SIL   O00Q7       1    -0.525    15.999
    2160      Ob       1     SIL   O00Q8       1     -1.05    15.999
    2161      Si       1     SIL   Si0D5       1       2.1    28.086
    2162      Si       1     SIL   Si0D6       1       2.1    28.086
    2163      Ob       1     SIL   O00Q9       1     -1.05    15.999
    2164       O       1     SIL   O00QA       1    -0.525    15.999
    2165      Oh       1     SIL   O00QB       1     -0.95    15.999
    2166      Oh       1     SIL   O00QC       1     -0.95    15.999
    2167       O       1     SIL   O00QD       1    -0.525    15.999
    2168      Ob       1     SIL   O00QE       1     -1.05    15.999
    2169      Si       1     SIL   Si0D8       1       2.1    28.086
    2170      Si       1     SIL   Si0D9       1       2.1    28.086
    2171      Ob       1     SIL   O00QF       1     -1.05    15.999
    2172       O       1     SIL   O00QG       1    -0.525    15.999
    2173      Oh       1     SIL   O00QH       1     -0.95    15.999
    2174      Oh       1     SIL   O00QI       1     -0.95    15.999
    2175       O       1     SIL   O00QJ       1    -0.525    15.999
    2176      Ob       1     SIL   O00QK       1     -1.05    15.999
    2177      Si       1     SIL   Si0DB       1       2.1    28.086
    2178      Si       1     SIL   Si0DC       1       2.1    28.086
    2179      Ob       1     SIL   O00QL       1     -1.05    15.999
    2180       O       1     SIL   O00QM       1    -0.525    15.999
    2181      Oh       1     SIL   O00QN       1     -0.95    15.999
    2182      Oh       1     SIL   O00QO       1     -0.95    15.999
    2183       O       1     SIL   O00QP       1    -0.525    15.999
    2184      Ob       1     SIL   O00QQ       1     -1.05    15.999
    2185      Si       1     SIL   Si0DE       1       2.1    28.086
    2186      Si       1     SIL   Si0DF       1       2.1    28.086
    2187      Ob       1     SIL   O00QR       1     -1.05    15.999
    2188       O       1     SIL   O00QS       1    -0.525    15.999
    2189      Oh       1     SIL   O00QT       1     -0.95    15.999
    2190      Oh       1     SIL   O00QU       1     -0.95    15.999
    2191       O       1     SIL   O00QV       1    -0.525    15.999
    2192      Ob       1     SIL   O00QW       1     -1.05    15.999
    2193      Si       1     SIL   Si0DH       1       2.1    28.086
    2194      Si       1     SIL   Si0DI       1       2.1    28.086
    2195      Ob       1     SIL   O00QX       1     -1.05    15.999
    2196       O       1     SIL   O00QY       1    -0.525    15.999
    2197      Oh       1     SIL   O00QZ       1     -0.95    15.999
    2198      Oh       1     SIL   O00Qa       1     -0.95    15.999
    2199       O       1     SIL   O00Qb       1    -0.525    15.999
    2200      Ob       1     SIL   O00Qc       1     -1.05    15.999
    2201      Si       1     SIL   Si0DK       1       2.1    28.086
    2202      Si       1     SIL   Si0DL       1       2.1    28.086
    2203      Ob       1     SIL   O00Qd       1     -1.05    15.999
    2204       O       1     SIL   O00Qe       1    -0.525    15.999
    2205      Oh       1     SIL   O00Qf       1     -0.95    15.999
    2206      Oh       1     SIL   O00Qg       1     -0.95    15.999
    2207       O       1     SIL   O00Qh       1    -0.525    15.999
    2208      Ob       1     SIL   O00Qi       1     -1.05    15.999
    2209      Si       1     SIL   Si0DN       1       2.1    28.086
    2210      Si       1     SIL   Si0DO       1       2.1    28.086
    2211      Ob       1     SIL   O00Qj       1     -1.05    15.999
    2212       O       1     SIL   O00Qk       1    -0.525    15.999
    2213      Oh       1     SIL   O00Ql       1     -0.95    15.999
    2214      Oh       1     SIL   O00Qm       1     -0.95    15.999
    2215       O       1     SIL   O00Qn       1    -0.525    15.999
    2216      Ob       1     SIL   O00Qo       1     -1.05    15.999
    2217      Si       1     SIL   Si0DQ       1       2.1    28.086
    2218      Si       1     SIL   Si0DR       1       2.1    28.086
    2219      Ob       1     SIL   O00Qp       1     -1.05    15.999
    2220       O       1     SIL   O00Qq       1    -0.525    15.999
    2221      Oh       1     SIL   O00Qr       1     -0.95    15.999
    2222      Oh       1     SIL   O00Qs       1     -0.95    15.999
    2223       O       1     SIL   O00Qt       1    -0.525    15.999
    2224      Ob       1     SIL   O00Qu       1     -1.05    15.999
    2225      Si       1     SIL   Si0DT       1       2.1    28.086
    2226      Si       1     SIL   Si0DU       1       2.1    28.086
    2227      Ob       1     SIL   O00Qv       1     -1.05    15.999
    2228       O       1     SIL   O00Qw       1    -0.525    15.999
    2229      Oh       1     SIL   O00Qx       1     -0.95    15.999
    2230      Oh       1     SIL   O00Qy       1     -0.95    15.999
    2231       O       1     SIL   O00Qz       1    -0.525    15.999
    2232      Ob       1     SIL   O00R0       1     -1.05    15.999
    2233      Si       1     SIL   Si0DW       1       2.1    28.086
    2234      Si       1     SIL   Si0DX       1       2.1    28.086
    2235      Ob       1     SIL   O00R1       1     -1.05    15.999
    2236       O       1     SIL   O00R2       1    -0.525    15.999
    2237      Oh       1     SIL   O00R3       1     -0.95    15.999
    2238      Oh       1     SIL   O00R4       1     -0.95    15.999
    2239       O       1     SIL   O00R5       1    -0.525    15.999
    2240      Ob       1     SIL   O00R6       1     -1.05    15.999
    2241      Si       1     SIL   Si0DZ       1       2.1    28.086
    2242      Si       1     SIL   Si0Da       1       2.1    28.086
    2243      Ob       1     SIL   O00R7       1     -1.05    15.999
    2244       O       1     SIL   O00R8       1    -0.525    15.999
    2245      Oh       1     SIL   O00R9       1     -0.95    15.999
    2246      Oh       1     SIL   O00RA       1     -0.95    15.999
    2247       O       1     SIL   O00RB       1    -0.525    15.999
    2248      Ob       1     SIL   O00RC       1     -1.05    15.999
    2249      Si       1     SIL   Si0Dc       1       2.1    28.086
    2250      Si       1     SIL   Si0Dd       1       2.1    28.086
    2251      Ob       1     SIL   O00RD       1     -1.05    15.999
    2252       O       1     SIL   O00RE       1    -0.525    15.999
    2253      Oh       1     SIL   O00RF       1     -0.95    15.999
    2254      Oh       1     SIL   O00RG       1     -0.95    15.999
    2255       O       1     SIL   O00RH       1    -0.525    15.999
    2256      Ob       1     SIL   O00RI       1     -1.05    15.999
    2257      Si       1     SIL   Si0Df       1       2.1    28.086
    2258      Si       1     SIL   Si0Dg       1       2.1    28.086
    2259      Ob       1     SIL   O00RJ       1     -1.05    15.999
    2260       O       1     SIL   O00RK       1    -0.525    15.999
    2261      Oh       1     SIL   O00RL       1     -0.95    15.999
    2262      Oh       1     SIL   O00RM       1     -0.95    15.999
    2263       O       1     SIL   O00RN       1    -0.525    15.999
    2264      Ob       1     SIL   O00RO       1     -1.05    15.999
    2265      Si       1     SIL   Si0Di       1       2.1    28.086
    2266      Si       1     SIL   Si0Dj       1       2.1    28.086
    2267      Ob       1     SIL   O00RP       1     -1.05    15.999
    2268       O       1     SIL   O00RQ       1    -0.525    15.999
    2269      Oh       1     SIL   O00RR       1     -0.95    15.999
    2270      Oh       1     SIL   O00RS       1     -0.95    15.999
    2271       O       1     SIL   O00RT       1    -0.525    15.999
    2272      Ob       1     SIL   O00RU       1     -1.05    15.999
    2273      Si       1     SIL   Si0Dl       1       2.1    28.086
    2274      Si       1     SIL   Si0Dm       1       2.1    28.086
    2275      Ob       1     SIL   O00RV       1     -1.05    15.999
    2276       O       1     SIL   O00RW       1    -0.525    15.999
    2277      Oh       1     SIL   O00RX       1     -0.95    15.999
    2278      Oh       1     SIL   O00RY       1     -0.95    15.999
    2279       O       1     SIL   O00RZ       1    -0.525    15.999
    2280      Ob       1     SIL   O00Ra       1     -1.05    15.999
    2281      Si       1     SIL   Si0Do       1       2.1    28.086
    2282      Si       1     SIL   Si0Dp       1       2.1    28.086
    2283      Ob       1     SIL   O00Rb       1     -1.05    15.999
    2284       O       1     SIL   O00Rc       1    -0.525    15.999
    2285      Oh       1     SIL   O00Rd       1     -0.95    15.999
    2286      Oh       1     SIL   O00Re       1     -0.95    15.999
    2287       O       1     SIL   O00Rf       1    -0.525    15.999
    2288      Ob       1     SIL   O00Rg       1     -1.05    15.999
    2289      Si       1     SIL   Si0Dr       1       2.1    28.086
    2290      Si       1     SIL   Si0Ds       1       2.1    28.086
    2291      Ob       1     SIL   O00Rh       1     -1.05    15.999
    2292       O       1     SIL   O00Ri       1    -0.525    15.999
    2293      Oh       1     SIL   O00Rj       1     -0.95    15.999
    2294      Oh       1     SIL   O00Rk       1     -0.95    15.999
    2295       O       1     SIL   O00Rl       1    -0.525    15.999
    2296      Ob       1     SIL   O00Rm       1     -1.05    15.999
    2297      Si       1     SIL   Si0Du       1       2.1    28.086
    2298      Si       1     SIL   Si0Dv       1       2.1    28.086
    2299      Ob       1     SIL   O00Rn       1     -1.05    15.999
    2300       O       1     SIL   O00Ro       1    -0.525    15.999
    2301      Oh       1     SIL   O00Rp       1     -0.95    15.999
    2302      Oh       1     SIL   O00Rq       1     -0.95    15.999
    2303       O       1     SIL   O00Rr       1    -0.525    15.999
    2304      Ob       1     SIL   O00Rs       1     -1.05    15.999
    2305      Si       1     SIL   Si0Dx       1       2.1    28.086
    2306      Si       1     SIL   Si0Dy       1       2.1    28.086
    2307      Ob       1     SIL   O00Rt       1     -1.05    15.999
    2308       O       1     SIL   O00Ru       1    -0.525    15.999
    2309      Oh       1     SIL   O00Rv       1     -0.95    15.999
    2310      Oh       1     SIL   O00Rw       1     -0.95    15.999
    2311       O       1     SIL   O00Rx       1    -0.525    15.999
    2312      Ob       1     SIL   O00Ry       1     -1.05    15.999
    2313      Si       1     SIL   Si0E0       1       2.1    28.086
    2314      Si       1     SIL   Si0E1       1       2.1    28.086
    2315      Ob       1     SIL   O00Rz       1     -1.05    15.999
    2316       O       1     SIL   O00S0       1    -0.525    15.999
    2317      Oh       1     SIL   O00S1       1     -0.95    15.999
    2318      Oh       1     SIL   O00S2       1     -0.95    15.999
    2319       O       1     SIL   O00S3       1    -0.525    15.999
    2320      Ob       1     SIL   O00S4       1     -1.05    15.999
    2321      Si       1     SIL   Si0E3       1       2.1    28.086
    2322      Si       1     SIL   Si0E4       1       2.1    28.086
    2323      Ob       1     SIL   O00S5       1     -1.05    15.999
    2324       O       1     SIL   O00S6       1    -0.525    15.999
    2325      Oh       1     SIL   O00S7       1     -0.95    15.999
    2326      Oh       1     SIL   O00S8       1     -0.95    15.999
    2327       O       1     SIL   O00S9       1    -0.525    15.999
    2328      Ob       1     SIL   O00SA       1     -1.05    15.999
    2329      Si       1     SIL   Si0E6       1       2.1    28.086
    2330      Si       1     SIL   Si0E7       1       2.1    28.086
    2331      Ob       1     SIL   O00SB       1     -1.05    15.999
    2332       O       1     SIL   O00SC       1    -0.525    15.999
    2333      Oh       1     SIL   O00SD       1     -0.95    15.999
    2334      Oh       1     SIL   O00SE       1     -0.95    15.999
    2335       O       1     SIL   O00SF       1    -0.525    15.999
    2336      Ob       1     SIL   O00SG       1     -1.05    15.999
    2337      Si       1     SIL   Si0E9       1       2.1    28.086
    2338      Si       1     SIL   Si0EA       1       2.1    28.086
    2339      Ob       1     SIL   O00SH       1     -1.05    15.999
    2340       O       1     SIL   O00SI       1    -0.525    15.999
    2341      Oh       1     SIL   O00SJ       1     -0.95    15.999
    2342      Oh       1     SIL   O00SK       1     -0.95    15.999
    2343       O       1     SIL   O00SL       1    -0.525    15.999
    2344      Ob       1     SIL   O00SM       1     -1.05    15.999
    2345      Si       1     SIL   Si0EC       1       2.1    28.086
    2346      Si       1     SIL   Si0ED       1       2.1    28.086
    2347      Ob       1     SIL   O00SN       1     -1.05    15.999
    2348       O       1     SIL   O00SO       1    -0.525    15.999
    2349      Oh       1     SIL   O00SP       1     -0.95    15.999
    2350      Oh       1     SIL   O00SQ       1     -0.95    15.999
    2351       O       1     SIL   O00SR       1    -0.525    15.999
    2352      Ob       1     SIL   O00SS       1     -1.05    15.999
    2353      Si       1     SIL   Si0EF       1       2.1    28.086
    2354      Si       1     SIL   Si0EG       1       2.1    28.086
    2355      Ob       1     SIL   O00ST       1     -1.05    15.999
    2356       O       1     SIL   O00SU       1    -0.525    15.999
    2357      Oh       1     SIL   O00SV       1     -0.95    15.999
    2358      Oh       1     SIL   O00SW       1     -0.95    15.999
    2359       O       1     SIL   O00SX       1    -0.525    15.999
    2360      Ob       1     SIL   O00SY       1     -1.05    15.999
    2361      Si       1     SIL   Si0EI       1       2.1    28.086
    2362      Si       1     SIL   Si0EJ       1       2.1    28.086
    2363      Ob       1     SIL   O00SZ       1     -1.05    15.999
    2364       O       1     SIL   O00Sa       1    -0.525    15.999
    2365      Oh       1     SIL   O00Sb       1     -0.95    15.999
    2366      Oh       1     SIL   O00Sc       1     -0.95    15.999
    2367       O       1     SIL   O00Sd       1    -0.525    15.999
    2368      Ob       1     SIL   O00Se       1     -1.05    15.999
    2369      Si       1     SIL   Si0EL       1       2.1    28.086
    2370      Si       1     SIL   Si0EM       1       2.1    28.086
    2371      Ob       1     SIL   O00Sf       1     -1.05    15.999
    2372       O       1     SIL   O00Sg       1    -0.525    15.999
    2373      Oh       1     SIL   O00Sh       1     -0.95    15.999
    2374      Oh       1     SIL   O00Si       1     -0.95    15.999
    2375       O       1     SIL   O00Sj       1    -0.525    15.999
    2376      Ob       1     SIL   O00Sk       1     -1.05    15.999
    2377      Si       1     SIL   Si0EO       1       2.1    28.086
    2378      Si       1     SIL   Si0EP       1       2.1    28.086
    2379      Ob       1     SIL   O00Sl       1     -1.05    15.999
    2380       O       1     SIL   O00Sm       1    -0.525    15.999
    2381      Oh       1     SIL   O00Sn       1     -0.95    15.999
    2382      Oh       1     SIL   O00So       1     -0.95    15.999
    2383       O       1     SIL   O00Sp       1    -0.525    15.999
    2384      Ob       1     SIL   O00Sq       1     -1.05    15.999
    2385      Si       1     SIL   Si0ER       1       2.1    28.086
    2386      Si       1     SIL   Si0ES       1       2.1    28.086
    2387      Ob       1     SIL   O00Sr       1     -1.05    15.999
    2388       O       1     SIL   O00Ss       1    -0.525    15.999
    2389      Oh       1     SIL   O00St       1     -0.95    15.999
    2390      Oh       1     SIL   O00Su       1     -0.95    15.999
    2391       O       1     SIL   O00Sv       1    -0.525    15.999
    2392      Ob       1     SIL   O00Sw       1     -1.05    15.999
    2393      Si       1     SIL   Si0EU       1       2.1    28.086
    2394      Si       1     SIL   Si0EV       1       2.1    28.086
    2395      Ob       1     SIL   O00Sx       1     -1.05    15.999
    2396       O       1     SIL   O00Sy       1    -0.525    15.999
    2397      Oh       1     SIL   O00Sz       1     -0.95    15.999
    2398      Oh       1     SIL   O00T0       1     -0.95    15.999
    2399       O       1     SIL   O00T1       1    -0.525    15.999
    2400      Ob       1     SIL   O00T2       1     -1.05    15.999
    2401      Si       1     SIL   Si0EX       1       2.1    28.086
    2402      Si       1     SIL   Si0EY       1       2.1    28.086
    2403      Ob       1     SIL   O00T3       1     -1.05    15.999
    2404       O       1     SIL   O00T4       1    -0.525    15.999
    2405      Oh       1     SIL   O00T5       1     -0.95    15.999
    2406      Oh       1     SIL   O00T6       1     -0.95    15.999
    2407       O       1     SIL   O00T7       1    -0.525    15.999
    2408      Ob       1     SIL   O00T8       1     -1.05    15.999
    2409      Si       1     SIL   Si0Ea       1       2.1    28.086
    2410      Si       1     SIL   Si0Eb       1       2.1    28.086
    2411      Ob       1     SIL   O00T9       1     -1.05    15.999
    2412       O       1     SIL   O00TA       1    -0.525    15.999
    2413      Oh       1     SIL   O00TB       1     -0.95    15.999
    2414      Oh       1     SIL   O00TC       1     -0.95    15.999
    2415       O       1     SIL   O00TD       1    -0.525    15.999
    2416      Ob       1     SIL   O00TE       1     -1.05    15.999
    2417      Si       1     SIL   Si0Ed       1       2.1    28.086
    2418      Si       1     SIL   Si0Ee       1       2.1    28.086
    2419      Ob       1     SIL   O00TF       1     -1.05    15.999
    2420       O       1     SIL   O00TG       1    -0.525    15.999
    2421      Oh       1     SIL   O00TH       1     -0.95    15.999
    2422      Oh       1     SIL   O00TI       1     -0.95    15.999
    2423       O       1     SIL   O00TJ       1    -0.525    15.999
    2424      Ob       1     SIL   O00TK       1     -1.05    15.999
    2425      Si       1     SIL   Si0Eg       1       2.1    28.086
    2426      Si       1     SIL   Si0Eh       1       2.1    28.086
    2427      Ob       1     SIL   O00TL       1     -1.05    15.999
    2428       O       1     SIL   O00TM       1    -0.525    15.999
    2429      Oh       1     SIL   O00TN       1     -0.95    15.999
    2430      Oh       1     SIL   O00TO       1     -0.95    15.999
    2431       O       1     SIL   O00TP       1    -0.525    15.999
    2432      Ob       1     SIL   O00TQ       1     -1.05    15.999
    2433      Si       1     SIL   Si0Ej       1       2.1    28.086
    2434      Si       1     SIL   Si0Ek       1       2.1    28.086
    2435      Ob       1     SIL   O00TR       1     -1.05    15.999
    2436       O       1     SIL   O00TS       1    -0.525    15.999
    2437      Oh       1     SIL   O00TT       1     -0.95    15.999
    2438      Oh       1     SIL   O00TU       1     -0.95    15.999
    2439       O       1     SIL   O00TV       1    -0.525    15.999
    2440      Ob       1     SIL   O00TW       1     -1.05    15.999
    2441      Si       1     SIL   Si0Em       1       2.1    28.086
    2442      Si       1     SIL   Si0En       1       2.1    28.086
    2443      Ob       1     SIL   O00TX       1     -1.05    15.999
    2444       O       1     SIL   O00TY       1    -0.525    15.999
    2445      Oh       1     SIL   O00TZ       1     -0.95    15.999
    2446      Oh       1     SIL   O00Ta       1     -0.95    15.999
    2447       O       1     SIL   O00Tb       1    -0.525    15.999
    2448      Ob       1     SIL   O00Tc       1     -1.05    15.999
    2449      Si       1     SIL   Si0Ep       1       2.1    28.086
    2450      Si       1     SIL   Si0Eq       1       2.1    28.086
    2451      Ob       1     SIL   O00Td       1     -1.05    15.999
    2452       O       1     SIL   O00Te       1    -0.525    15.999
    2453      Oh       1     SIL   O00Tf       1     -0.95    15.999
    2454      Oh       1     SIL   O00Tg       1     -0.95    15.999
    2455       O       1     SIL   O00Th       1    -0.525    15.999
    2456      Ob       1     SIL   O00Ti       1     -1.05    15.999
    2457      Si       1     SIL   Si0Es       1       2.1    28.086
    2458      Si       1     SIL   Si0Et       1       2.1    28.086
    2459      Ob       1     SIL   O00Tj       1     -1.05    15.999
    2460       O       1     SIL   O00Tk       1    -0.525    15.999
    2461      Oh       1     SIL   O00Tl       1     -0.95    15.999
    2462      Oh       1     SIL   O00Tm       1     -0.95    15.999
    2463       O       1     SIL   O00Tn       1    -0.525    15.999
    2464      Ob       1     SIL   O00To       1     -1.05    15.999
    2465      Si       1     SIL   Si0Ev       1       2.1    28.086
    2466      Si       1     SIL   Si0Ew       1       2.1    28.086
    2467      Ob       1     SIL   O00Tp       1     -1.05    15.999
    2468       O       1     SIL   O00Tq       1    -0.525    15.999
    2469      Oh       1     SIL   O00Tr       1     -0.95    15.999
    2470      Oh       1     SIL   O00Ts       1     -0.95    15.999
    2471       O       1     SIL   O00Tt       1    -0.525    15.999
    2472      Ob       1     SIL   O00Tu       1     -1.05    15.999
    2473      Si       1     SIL   Si0Ey       1       2.1    28.086
    2474      Si       1     SIL   Si0Ez       1       2.1    28.086
    2475      Ob       1     SIL   O00Tv       1     -1.05    15.999
    2476       O       1     SIL   O00Tw       1    -0.525    15.999
    2477      Oh       1     SIL   O00Tx       1     -0.95    15.999
    2478      Oh       1     SIL   O00Ty       1     -0.95    15.999
    2479       O       1     SIL   O00Tz       1    -0.525    15.999
    2480      Ob       1     SIL   O00U0       1     -1.05    15.999
    2481      Si       1     SIL   Si0F1       1       2.1    28.086
    2482      Si       1     SIL   Si0F2       1       2.1    28.086
    2483      Ob       1     SIL   O00U1       1     -1.05    15.999
    2484       O       1     SIL   O00U2       1    -0.525    15.999
    2485      Oh       1     SIL   O00U3       1     -0.95    15.999
    2486      Oh       1     SIL   O00U4       1     -0.95    15.999
    2487       O       1     SIL   O00U5       1    -0.525    15.999
    2488      Ob       1     SIL   O00U6       1     -1.05    15.999
    2489      Si       1     SIL   Si0F4       1       2.1    28.086
    2490      Si       1     SIL   Si0F5       1       2.1    28.086
    2491      Ob       1     SIL   O00U7       1     -1.05    15.999
    2492       O       1     SIL   O00U8       1    -0.525    15.999
    2493      Oh       1     SIL   O00U9       1     -0.95    15.999
    2494      Oh       1     SIL   O00UA       1     -0.95    15.999
    2495       O       1     SIL   O00UB       1    -0.525    15.999
    2496      Ob       1     SIL   O00UC       1     -1.05    15.999
    2497      Si       1     SIL   Si0F7       1       2.1    28.086
    2498      Si       1     SIL   Si0F8       1       2.1    28.086
    2499      Ob       1     SIL   O00UD       1     -1.05    15.999
    2500       O       1     SIL   O00UE       1    -0.525    15.999
    2501      Oh       1     SIL   O00UF       1     -0.95    15.999
    2502      Oh       1     SIL   O00UG       1     -0.95    15.999
    2503       O       1     SIL   O00UH       1    -0.525    15.999
    2504      Ob       1     SIL   O00UI       1     -1.05    15.999
    2505      Si       1     SIL   Si0FA       1       2.1    28.086
    2506      Si       1     SIL   Si0FB       1       2.1    28.086
    2507      Ob       1     SIL   O00UJ       1     -1.05    15.999
    2508       O       1     SIL   O00UK       1    -0.525    15.999
    2509      Oh       1     SIL   O00UL       1     -0.95    15.999
    2510      Oh       1     SIL   O00UM       1     -0.95    15.999
    2511       O       1     SIL   O00UN       1    -0.525    15.999
    2512      Ob       1     SIL   O00UO       1     -1.05    15.999
    2513      Si       1     SIL   Si0FD       1       2.1    28.086
    2514      Si       1     SIL   Si0FE       1       2.1    28.086
    2515      Ob       1     SIL   O00UP       1     -1.05    15.999
    2516       O       1     SIL   O00UQ       1    -0.525    15.999
    2517      Oh       1     SIL   O00UR       1     -0.95    15.999
    2518      Oh       1     SIL   O00US       1     -0.95    15.999
    2519       O       1     SIL   O00UT       1    -0.525    15.999
    2520      Ob       1     SIL   O00UU       1     -1.05    15.999
    2521      Si       1     SIL   Si0FG       1       2.1    28.086
    2522      Si       1     SIL   Si0FH       1       2.1    28.086
    2523      Ob       1     SIL   O00UV       1     -1.05    15.999
    2524       O       1     SIL   O00UW       1    -0.525    15.999
    2525      Oh       1     SIL   O00UX       1     -0.95    15.999
    2526      Oh       1     SIL   O00UY       1     -0.95    15.999
    2527       O       1     SIL   O00UZ       1    -0.525    15.999
    2528      Ob       1     SIL   O00Ua       1     -1.05    15.999
    2529      Si       1     SIL   Si0FJ       1       2.1    28.086
    2530      Si       1     SIL   Si0FK       1       2.1    28.086
    2531      Ob       1     SIL   O00Ub       1     -1.05    15.999
    2532       O       1     SIL   O00Uc       1    -0.525    15.999
    2533      Oh       1     SIL   O00Ud       1     -0.95    15.999
    2534      Oh       1     SIL   O00Ue       1     -0.95    15.999
    2535       O       1     SIL   O00Uf       1    -0.525    15.999
    2536      Ob       1     SIL   O00Ug       1     -1.05    15.999
    2537      Si       1     SIL   Si0FM       1       2.1    28.086
    2538      Si       1     SIL   Si0FN       1       2.1    28.086
    2539      Ob       1     SIL   O00Uh       1     -1.05    15.999
    2540       O       1     SIL   O00Ui       1    -0.525    15.999
    2541      Oh       1     SIL   O00Uj       1     -0.95    15.999
    2542      Oh       1     SIL   O00Uk       1     -0.95    15.999
    2543       O       1     SIL   O00Ul       1    -0.525    15.999
    2544      Ob       1     SIL   O00Um       1     -1.05    15.999
    2545      Si       1     SIL   Si0FP       1       2.1    28.086
    2546      Si       1     SIL   Si0FQ       1       2.1    28.086
    2547      Ob       1     SIL   O00Un       1     -1.05    15.999
    2548       O       1     SIL   O00Uo       1    -0.525    15.999
    2549      Oh       1     SIL   O00Up       1     -0.95    15.999
    2550      Oh       1     SIL   O00Uq       1     -0.95    15.999
    2551       O       1     SIL   O00Ur       1    -0.525    15.999
    2552      Ob       1     SIL   O00Us       1     -1.05    15.999
    2553      Si       1     SIL   Si0FS       1       2.1    28.086
    2554      Si       1     SIL   Si0FT       1       2.1    28.086
    2555      Ob       1     SIL   O00Ut       1     -1.05    15.999
    2556       O       1     SIL   O00Uu       1    -0.525    15.999
    2557      Oh       1     SIL   O00Uv       1     -0.95    15.999
    2558      Oh       1     SIL   O00Uw       1     -0.95    15.999
    2559       O       1     SIL   O00Ux       1    -0.525    15.999
    2560      Ob       1     SIL   O00Uy       1     -1.05    15.999
    2561      Si       1     SIL   Si0FV       1       2.1    28.086
    2562      Si       1     SIL   Si0FW       1       2.1    28.086
    2563      Ob       1     SIL   O00Uz       1     -1.05    15.999
    2564       O       1     SIL   O00V0       1    -0.525    15.999
    2565      Oh       1     SIL   O00V1       1     -0.95    15.999
    2566      Oh       1     SIL   O00V2       1     -0.95    15.999
    2567       O       1     SIL   O00V3       1    -0.525    15.999
    2568      Ob       1     SIL   O00V4       1     -1.05    15.999
    2569      Si       1     SIL   Si0FY       1       2.1    28.086
    2570      Si       1     SIL   Si0FZ       1       2.1    28.086
    2571      Ob       1     SIL   O00V5       1     -1.05    15.999
    2572       O       1     SIL   O00V6       1    -0.525    15.999
    2573      Oh       1     SIL   O00V7       1     -0.95    15.999
    2574      Oh       1     SIL   O00V8       1     -0.95    15.999
    2575       O       1     SIL   O00V9       1    -0.525    15.999
    2576      Ob       1     SIL   O00VA       1     -1.05    15.999
    2577      Si       1     SIL   Si0Fb       1       2.1    28.086
    2578      Si       1     SIL   Si0Fc       1       2.1    28.086
    2579      Ob       1     SIL   O00VB       1     -1.05    15.999
    2580       O       1     SIL   O00VC       1    -0.525    15.999
    2581      Oh       1     SIL   O00VD       1     -0.95    15.999
    2582      Oh       1     SIL   O00VE       1     -0.95    15.999
    2583       O       1     SIL   O00VF       1    -0.525    15.999
    2584      Ob       1     SIL   O00VG       1     -1.05    15.999
    2585      Si       1     SIL   Si0Fe       1       2.1    28.086
    2586      Si       1     SIL   Si0Ff       1       2.1    28.086
    2587      Ob       1     SIL   O00VH       1     -1.05    15.999
    2588       O       1     SIL   O00VI       1    -0.525    15.999
    2589      Oh       1     SIL   O00VJ       1     -0.95    15.999
    2590      Oh       1     SIL   O00VK       1     -0.95    15.999
    2591       O       1     SIL   O00VL       1    -0.525    15.999
    2592      Ob       1     SIL   O00VM       1     -1.05    15.999
    2593      Si       1     SIL   Si0Fh       1       2.1    28.086
    2594      Si       1     SIL   Si0Fi       1       2.1    28.086
    2595      Ob       1     SIL   O00VN       1     -1.05    15.999
    2596       O       1     SIL   O00VO       1    -0.525    15.999
    2597      Oh       1     SIL   O00VP       1     -0.95    15.999
    2598      Oh       1     SIL   O00VQ       1     -0.95    15.999
    2599       O       1     SIL   O00VR       1    -0.525    15.999
    2600      Ob       1     SIL   O00VS       1     -1.05    15.999
    2601      Si       1     SIL   Si0Fk       1       2.1    28.086
    2602      Si       1     SIL   Si0Fl       1       2.1    28.086
    2603      Ob       1     SIL   O00VT       1     -1.05    15.999
    2604       O       1     SIL   O00VU       1    -0.525    15.999
    2605      Oh       1     SIL   O00VV       1     -0.95    15.999
    2606      Oh       1     SIL   O00VW       1     -0.95    15.999
    2607       O       1     SIL   O00VX       1    -0.525    15.999
    2608      Ob       1     SIL   O00VY       1     -1.05    15.999
    2609      Si       1     SIL   Si0Fn       1       2.1    28.086
    2610      Si       1     SIL   Si0Fo       1       2.1    28.086
    2611      Ob       1     SIL   O00VZ       1     -1.05    15.999
    2612       O       1     SIL   O00Va       1    -0.525    15.999
    2613      Oh       1     SIL   O00Vb       1     -0.95    15.999
    2614      Oh       1     SIL   O00Vc       1     -0.95    15.999
    2615       O       1     SIL   O00Vd       1    -0.525    15.999
    2616      Ob       1     SIL   O00Ve       1     -1.05    15.999
    2617      Si       1     SIL   Si0Fq       1       2.1    28.086
    2618      Si       1     SIL   Si0Fr       1       2.1    28.086
    2619      Ob       1     SIL   O00Vf       1     -1.05    15.999
    2620       O       1     SIL   O00Vg       1    -0.525    15.999
    2621      Oh       1     SIL   O00Vh       1     -0.95    15.999
    2622      Oh       1     SIL   O00Vi       1     -0.95    15.999
    2623       O       1     SIL   O00Vj       1    -0.525    15.999
    2624      Ob       1     SIL   O00Vk       1     -1.05    15.999
    2625      Si       1     SIL   Si0Ft       1       2.1    28.086
    2626      Si       1     SIL   Si0Fu       1       2.1    28.086
    2627      Ob       1     SIL   O00Vl       1     -1.05    15.999
    2628       O       1     SIL   O00Vm       1    -0.525    15.999
    2629      Oh       1     SIL   O00Vn       1     -0.95    15.999
    2630      Oh       1     SIL   O00Vo       1     -0.95    15.999
    2631       O       1     SIL   O00Vp       1    -0.525    15.999
    2632      Ob       1     SIL   O00Vq       1     -1.05    15.999
    2633      Si       1     SIL   Si0Fw       1       2.1    28.086
    2634      Si       1     SIL   Si0Fx       1       2.1    28.086
    2635      Ob       1     SIL   O00Vr       1     -1.05    15.999
    2636       O       1     SIL   O00Vs       1    -0.525    15.999
    2637      Oh       1     SIL   O00Vt       1     -0.95    15.999
    2638      Oh       1     SIL   O00Vu       1     -0.95    15.999
    2639       O       1     SIL   O00Vv       1    -0.525    15.999
    2640      Ob       1     SIL   O00Vw       1     -1.05    15.999
    2641      Si       1     SIL   Si0Fz       1       2.1    28.086
    2642      Si       1     SIL   Si0G0       1       2.1    28.086
    2643      Ob       1     SIL   O00Vx       1     -1.05    15.999
    2644       O       1     SIL   O00Vy       1    -0.525    15.999
    2645      Oh       1     SIL   O00Vz       1     -0.95    15.999
    2646      Oh       1     SIL   O00W0       1     -0.95    15.999
    2647       O       1     SIL   O00W1       1    -0.525    15.999
    2648      Ob       1     SIL   O00W2       1     -1.05    15.999
    2649      Si       1     SIL   Si0G2       1       2.1    28.086
    2650      Si       1     SIL   Si0G3       1       2.1    28.086
    2651      Ob       1     SIL   O00W3       1     -1.05    15.999
    2652       O       1     SIL   O00W4       1    -0.525    15.999
    2653      Oh       1     SIL   O00W5       1     -0.95    15.999
    2654      Oh       1     SIL   O00W6       1     -0.95    15.999
    2655       O       1     SIL   O00W7       1    -0.525    15.999
    2656      Ob       1     SIL   O00W8       1     -1.05    15.999
    2657      Si       1     SIL   Si0G5       1       2.1    28.086
    2658      Si       1     SIL   Si0G6       1       2.1    28.086
    2659      Ob       1     SIL   O00W9       1     -1.05    15.999
    2660       O       1     SIL   O00WA       1    -0.525    15.999
    2661      Oh       1     SIL   O00WB       1     -0.95    15.999
    2662      Oh       1     SIL   O00WC       1     -0.95    15.999
    2663       O       1     SIL   O00WD       1    -0.525    15.999
    2664      Ob       1     SIL   O00WE       1     -1.05    15.999
    2665      Si       1     SIL   Si0G8       1       2.1    28.086
    2666      Si       1     SIL   Si0G9       1       2.1    28.086
    2667      Ob       1     SIL   O00WF       1     -1.05    15.999
    2668       O       1     SIL   O00WG       1    -0.525    15.999
    2669      Oh       1     SIL   O00WH       1     -0.95    15.999
    2670      Oh       1     SIL   O00WI       1     -0.95    15.999
    2671       O       1     SIL   O00WJ       1    -0.525    15.999
    2672      Ob       1     SIL   O00WK       1     -1.05    15.999
    2673      Si       1     SIL   Si0GB       1       2.1    28.086
    2674      Si       1     SIL   Si0GC       1       2.1    28.086
    2675      Ob       1     SIL   O00WL       1     -1.05    15.999
    2676       O       1     SIL   O00WM       1    -0.525    15.999
    2677      Oh       1     SIL   O00WN       1     -0.95    15.999
    2678      Oh       1     SIL   O00WO       1     -0.95    15.999
    2679       O       1     SIL   O00WP       1    -0.525    15.999
    2680      Ob       1     SIL   O00WQ       1     -1.05    15.999
    2681      Si       1     SIL   Si0GE       1       2.1    28.086
    2682      Si       1     SIL   Si0GF       1       2.1    28.086
    2683      Ob       1     SIL   O00WR       1     -1.05    15.999
    2684       O       1     SIL   O00WS       1    -0.525    15.999
    2685      Oh       1     SIL   O00WT       1     -0.95    15.999
    2686      Oh       1     SIL   O00WU       1     -0.95    15.999
    2687       O       1     SIL   O00WV       1    -0.525    15.999
    2688      Ob       1     SIL   O00WW       1     -1.05    15.999
    2689      Si       1     SIL   Si0GH       1       2.1    28.086
    2690      Si       1     SIL   Si0GI       1       2.1    28.086
    2691      Ob       1     SIL   O00WX       1     -1.05    15.999
    2692       O       1     SIL   O00WY       1    -0.525    15.999
    2693      Oh       1     SIL   O00WZ       1     -0.95    15.999
    2694      Oh       1     SIL   O00Wa       1     -0.95    15.999
    2695       O       1     SIL   O00Wb       1    -0.525    15.999
    2696      Ob       1     SIL   O00Wc       1     -1.05    15.999
    2697      Si       1     SIL   Si0GK       1       2.1    28.086
    2698      Si       1     SIL   Si0GL       1       2.1    28.086
    2699      Ob       1     SIL   O00Wd       1     -1.05    15.999
    2700       O       1     SIL   O00We       1    -0.525    15.999
    2701      Oh       1     SIL   O00Wf       1     -0.95    15.999
    2702      Oh       1     SIL   O00Wg       1     -0.95    15.999
    2703       O       1     SIL   O00Wh       1    -0.525    15.999
    2704      Ob       1     SIL   O00Wi       1     -1.05    15.999
    2705      Si       1     SIL   Si0GN       1       2.1    28.086
    2706      Si       1     SIL   Si0GO       1       2.1    28.086
    2707      Ob       1     SIL   O00Wj       1     -1.05    15.999
    2708       O       1     SIL   O00Wk       1    -0.525    15.999
    2709      Oh       1     SIL   O00Wl       1     -0.95    15.999
    2710      Oh       1     SIL   O00Wm       1     -0.95    15.999
    2711       O       1     SIL   O00Wn       1    -0.525    15.999
    2712      Ob       1     SIL   O00Wo       1     -1.05    15.999
    2713      Si       1     SIL   Si0GQ       1       2.1    28.086
    2714      Si       1     SIL   Si0GR       1       2.1    28.086
    2715      Ob       1     SIL   O00Wp       1     -1.05    15.999
    2716       O       1     SIL   O00Wq       1    -0.525    15.999
    2717      Oh       1     SIL   O00Wr       1     -0.95    15.999
    2718      Oh       1     SIL   O00Ws       1     -0.95    15.999
    2719       O       1     SIL   O00Wt       1    -0.525    15.999
    2720      Ob       1     SIL   O00Wu       1     -1.05    15.999
    2721      Si       1     SIL   Si0GT       1       2.1    28.086
    2722      Si       1     SIL   Si0GU       1       2.1    28.086
    2723      Ob       1     SIL   O00Wv       1     -1.05    15.999
    2724       O       1     SIL   O00Ww       1    -0.525    15.999
    2725      Oh       1     SIL   O00Wx       1     -0.95    15.999
    2726      Oh       1     SIL   O00Wy       1     -0.95    15.999
    2727       O       1     SIL   O00Wz       1    -0.525    15.999
    2728      Ob       1     SIL   O00X0       1     -1.05    15.999
    2729      Si       1     SIL   Si0GW       1       2.1    28.086
    2730      Si       1     SIL   Si0GX       1       2.1    28.086
    2731      Ob       1     SIL   O00X1       1     -1.05    15.999
    2732       O       1     SIL   O00X2       1    -0.525    15.999
    2733      Oh       1     SIL   O00X3       1     -0.95    15.999
    2734      Oh       1     SIL   O00X4       1     -0.95    15.999
    2735       O       1     SIL   O00X5       1    -0.525    15.999
    2736      Ob       1     SIL   O00X6       1     -1.05    15.999
    2737      Si       1     SIL   Si0GZ       1       2.1    28.086
    2738      Si       1     SIL   Si0Ga       1       2.1    28.086
    2739      Ob       1     SIL   O00X7       1     -1.05    15.999
    2740       O       1     SIL   O00X8       1    -0.525    15.999
    2741      Oh       1     SIL   O00X9       1     -0.95    15.999
    2742      Oh       1     SIL   O00XA       1     -0.95    15.999
    2743       O       1     SIL   O00XB       1    -0.525    15.999
    2744      Ob       1     SIL   O00XC       1     -1.05    15.999
    2745      Si       1     SIL   Si0Gc       1       2.1    28.086
    2746      Si       1     SIL   Si0Gd       1       2.1    28.086
    2747      Ob       1     SIL   O00XD       1     -1.05    15.999
    2748       O       1     SIL   O00XE       1    -0.525    15.999
    2749      Oh       1     SIL   O00XF       1     -0.95    15.999
    2750      Oh       1     SIL   O00XG       1     -0.95    15.999
    2751       O       1     SIL   O00XH       1    -0.525    15.999
    2752      Ob       1     SIL   O00XI       1     -1.05    15.999
    2753      Si       1     SIL   Si0Gf       1       2.1    28.086
    2754      Si       1     SIL   Si0Gg       1       2.1    28.086
    2755      Ob       1     SIL   O00XJ       1     -1.05    15.999
    2756       O       1     SIL   O00XK       1    -0.525    15.999
    2757      Oh       1     SIL   O00XL       1     -0.95    15.999
    2758      Oh       1     SIL   O00XM       1     -0.95    15.999
    2759       O       1     SIL   O00XN       1    -0.525    15.999
    2760      Ob       1     SIL   O00XO       1     -1.05    15.999
    2761      Si       1     SIL   Si0Gi       1       2.1    28.086
    2762      Si       1     SIL   Si0Gj       1       2.1    28.086
    2763      Ob       1     SIL   O00XP       1     -1.05    15.999
    2764       O       1     SIL   O00XQ       1    -0.525    15.999
    2765      Oh       1     SIL   O00XR       1     -0.95    15.999
    2766      Oh       1     SIL   O00XS       1     -0.95    15.999
    2767       O       1     SIL   O00XT       1    -0.525    15.999
    2768      Ob       1     SIL   O00XU       1     -1.05    15.999
    2769      Si       1     SIL   Si0Gl       1       2.1    28.086
    2770      Si       1     SIL   Si0Gm       1       2.1    28.086
    2771      Ob       1     SIL   O00XV       1     -1.05    15.999
    2772       O       1     SIL   O00XW       1    -0.525    15.999
    2773      Oh       1     SIL   O00XX       1     -0.95    15.999
    2774      Oh       1     SIL   O00XY       1     -0.95    15.999
    2775       O       1     SIL   O00XZ       1    -0.525    15.999
    2776      Ob       1     SIL   O00Xa       1     -1.05    15.999
    2777      Si       1     SIL   Si0Go       1       2.1    28.086
    2778      Si       1     SIL   Si0Gp       1       2.1    28.086
    2779      Ob       1     SIL   O00Xb       1     -1.05    15.999
    2780       O       1     SIL   O00Xc       1    -0.525    15.999
    2781      Oh       1     SIL   O00Xd       1     -0.95    15.999
    2782      Oh       1     SIL   O00Xe       1     -0.95    15.999
    2783       O       1     SIL   O00Xf       1    -0.525    15.999
    2784      Ob       1     SIL   O00Xg       1     -1.05    15.999
    2785      Si       1     SIL   Si0Gr       1       2.1    28.086
    2786      Si       1     SIL   Si0Gs       1       2.1    28.086
    2787      Ob       1     SIL   O00Xh       1     -1.05    15.999
    2788       O       1     SIL   O00Xi       1    -0.525    15.999
    2789      Oh       1     SIL   O00Xj       1     -0.95    15.999
    2790      Oh       1     SIL   O00Xk       1     -0.95    15.999
    2791       O       1     SIL   O00Xl       1    -0.525    15.999
    2792      Ob       1     SIL   O00Xm       1     -1.05    15.999
    2793      Si       1     SIL   Si0Gu       1       2.1    28.086
    2794      Si       1     SIL   Si0Gv       1       2.1    28.086
    2795      Ob       1     SIL   O00Xn       1     -1.05    15.999
    2796       O       1     SIL   O00Xo       1    -0.525    15.999
    2797      Oh       1     SIL   O00Xp       1     -0.95    15.999
    2798      Oh       1     SIL   O00Xq       1     -0.95    15.999
    2799       O       1     SIL   O00Xr       1    -0.525    15.999
    2800      Ob       1     SIL   O00Xs       1     -1.05    15.999
    2801      Si       1     SIL   Si0Gx       1       2.1    28.086
    2802      Si       1     SIL   Si0Gy       1       2.1    28.086
    2803      Ob       1     SIL   O00Xt       1     -1.05    15.999
    2804       O       1     SIL   O00Xu       1    -0.525    15.999
    2805      Oh       1     SIL   O00Xv       1     -0.95    15.999
    2806      Oh       1     SIL   O00Xw       1     -0.95    15.999
    2807       O       1     SIL   O00Xx       1    -0.525    15.999
    2808      Ob       1     SIL   O00Xy       1     -1.05    15.999
    2809      Si       1     SIL   Si0H0       1       2.1    28.086
    2810      Si       1     SIL   Si0H1       1       2.1    28.086
    2811      Ob       1     SIL   O00Xz       1     -1.05    15.999
    2812       O       1     SIL   O00Y0       1    -0.525    15.999
    2813      Oh       1     SIL   O00Y1       1     -0.95    15.999
    2814      Oh       1     SIL   O00Y2       1     -0.95    15.999
    2815       O       1     SIL   O00Y3       1    -0.525    15.999
    2816      Ob       1     SIL   O00Y4       1     -1.05    15.999
    2817      Si       1     SIL   Si0H3       1       2.1    28.086
    2818      Si       1     SIL   Si0H4       1       2.1    28.086
    2819      Ob       1     SIL   O00Y5       1     -1.05    15.999
    2820       O       1     SIL   O00Y6       1    -0.525    15.999
    2821      Oh       1     SIL   O00Y7       1     -0.95    15.999
    2822      Oh       1     SIL   O00Y8       1     -0.95    15.999
    2823       O       1     SIL   O00Y9       1    -0.525    15.999
    2824      Ob       1     SIL   O00YA       1     -1.05    15.999
    2825      Si       1     SIL   Si0H6       1       2.1    28.086
    2826      Si       1     SIL   Si0H7       1       2.1    28.086
    2827      Ob       1     SIL   O00YB       1     -1.05    15.999
    2828       O       1     SIL   O00YC       1    -0.525    15.999
    2829      Oh       1     SIL   O00YD       1     -0.95    15.999
    2830      Oh       1     SIL   O00YE       1     -0.95    15.999
    2831       O       1     SIL   O00YF       1    -0.525    15.999
    2832      Ob       1     SIL   O00YG       1     -1.05    15.999
    2833      Si       1     SIL   Si0H9       1       2.1    28.086
    2834      Si       1     SIL   Si0HA       1       2.1    28.086
    2835      Ob       1     SIL   O00YH       1     -1.05    15.999
    2836       O       1     SIL   O00YI       1    -0.525    15.999
    2837      Oh       1     SIL   O00YJ       1     -0.95    15.999
    2838      Oh       1     SIL   O00YK       1     -0.95    15.999
    2839       O       1     SIL   O00YL       1    -0.525    15.999
    2840      Ob       1     SIL   O00YM       1     -1.05    15.999
    2841      Si       1     SIL   Si0HC       1       2.1    28.086
    2842      Si       1     SIL   Si0HD       1       2.1    28.086
    2843      Ob       1     SIL   O00YN       1     -1.05    15.999
    2844       O       1     SIL   O00YO       1    -0.525    15.999
    2845      Oh       1     SIL   O00YP       1     -0.95    15.999
    2846      Oh       1     SIL   O00YQ       1     -0.95    15.999
    2847       O       1     SIL   O00YR       1    -0.525    15.999
    2848      Ob       1     SIL   O00YS       1     -1.05    15.999
    2849      Si       1     SIL   Si0HF       1       2.1    28.086
    2850      Si       1     SIL   Si0HG       1       2.1    28.086
    2851      Ob       1     SIL   O00YT       1     -1.05    15.999
    2852       O       1     SIL   O00YU       1    -0.525    15.999
    2853      Oh       1     SIL   O00YV       1     -0.95    15.999
    2854      Oh       1     SIL   O00YW       1     -0.95    15.999
    2855       O       1     SIL   O00YX       1    -0.525    15.999
    2856      Ob       1     SIL   O00YY       1     -1.05    15.999
    2857      Si       1     SIL   Si0HI       1       2.1    28.086
    2858      Si       1     SIL   Si0HJ       1       2.1    28.086
    2859      Ob       1     SIL   O00YZ       1     -1.05    15.999
    2860       O       1     SIL   O00Ya       1    -0.525    15.999
    2861      Oh       1     SIL   O00Yb       1     -0.95    15.999
    2862      Oh       1     SIL   O00Yc       1     -0.95    15.999
    2863       O       1     SIL   O00Yd       1    -0.525    15.999
    2864      Ob       1     SIL   O00Ye       1     -1.05    15.999
    2865      Si       1     SIL   Si0HL       1       2.1    28.086
    2866      Si       1     SIL   Si0HM       1       2.1    28.086
    2867      Ob       1     SIL   O00Yf       1     -1.05    15.999
    2868       O       1     SIL   O00Yg       1    -0.525    15.999
    2869      Oh       1     SIL   O00Yh       1     -0.95    15.999
    2870      Oh       1     SIL   O00Yi       1     -0.95    15.999
    2871       O       1     SIL   O00Yj       1    -0.525    15.999
    2872      Ob       1     SIL   O00Yk       1     -1.05    15.999
    2873      Si       1     SIL   Si0HO       1       2.1    28.086
    2874      Si       1     SIL   Si0HP       1       2.1    28.086
    2875      Ob       1     SIL   O00Yl       1     -1.05    15.999
    2876       O       1     SIL   O00Ym       1    -0.525    15.999
    2877      Oh       1     SIL   O00Yn       1     -0.95    15.999
    2878      Oh       1     SIL   O00Yo       1     -0.95    15.999
    2879       O       1     SIL   O00Yp       1    -0.525    15.999
    2880      Ob       1     SIL   O00Yq       1     -1.05    15.999
    2881      Si       1     SIL   Si0HR       1       2.1    28.086
    2882      Si       1     SIL   Si0HS       1       2.1    28.086
    2883      Ob       1     SIL   O00Yr       1     -1.05    15.999
    2884       O       1     SIL   O00Ys       1    -0.525    15.999
    2885      Oh       1     SIL   O00Yt       1     -0.95    15.999
    2886      Oh       1     SIL   O00Yu       1     -0.95    15.999
    2887       O       1     SIL   O00Yv       1    -0.525    15.999
    2888      Ob       1     SIL   O00Yw       1     -1.05    15.999
    2889      Si       1     SIL   Si0HU       1       2.1    28.086
    2890      Si       1     SIL   Si0HV       1       2.1    28.086
    2891      Ob       1     SIL   O00Yx       1     -1.05    15.999
    2892       O       1     SIL   O00Yy       1    -0.525    15.999
    2893      Oh       1     SIL   O00Yz       1     -0.95    15.999
    2894      Oh       1     SIL   O00Z0       1     -0.95    15.999
    2895       O       1     SIL   O00Z1       1    -0.525    15.999
    2896      Ob       1     SIL   O00Z2       1     -1.05    15.999
    2897      Si       1     SIL   Si0HX       1       2.1    28.086
    2898      Si       1     SIL   Si0HY       1       2.1    28.086
    2899      Ob       1     SIL   O00Z3       1     -1.05    15.999
    2900       O       1     SIL   O00Z4       1    -0.525    15.999
    2901      Oh       1     SIL   O00Z5       1     -0.95    15.999
    2902      Oh       1     SIL   O00Z6       1     -0.95    15.999
    2903       O       1     SIL   O00Z7       1    -0.525    15.999
    2904      Ob       1     SIL   O00Z8       1     -1.05    15.999
    2905      Si       1     SIL   Si0Ha       1       2.1    28.086
    2906      Si       1     SIL   Si0Hb       1       2.1    28.086
    2907      Ob       1     SIL   O00Z9       1     -1.05    15.999
    2908       O       1     SIL   O00ZA       1    -0.525    15.999
    2909      Oh       1     SIL   O00ZB       1     -0.95    15.999
    2910      Oh       1     SIL   O00ZC       1     -0.95    15.999
    2911       O       1     SIL   O00ZD       1    -0.525    15.999
    2912      Ob       1     SIL   O00ZE       1     -1.05    15.999
    2913      Si       1     SIL   Si0Hd       1       2.1    28.086
    2914      Si       1     SIL   Si0He       1       2.1    28.086
    2915      Ob       1     SIL   O00ZF       1     -1.05    15.999
    2916       O       1     SIL   O00ZG       1    -0.525    15.999
    2917      Oh       1     SIL   O00ZH       1     -0.95    15.999
    2918      Oh       1     SIL   O00ZI       1     -0.95    15.999
    2919       O       1     SIL   O00ZJ       1    -0.525    15.999
    2920      Ob       1     SIL   O00ZK       1     -1.05    15.999
    2921      Si       1     SIL   Si0Hg       1       2.1    28.086
    2922      Si       1     SIL   Si0Hh       1       2.1    28.086
    2923      Ob       1     SIL   O00ZL       1     -1.05    15.999
    2924       O       1     SIL   O00ZM       1    -0.525    15.999
    2925      Oh       1     SIL   O00ZN       1     -0.95    15.999
    2926      Oh       1     SIL   O00ZO       1     -0.95    15.999
    2927       O       1     SIL   O00ZP       1    -0.525    15.999
    2928      Ob       1     SIL   O00ZQ       1     -1.05    15.999
    2929      Si       1     SIL   Si0Hj       1       2.1    28.086
    2930      Si       1     SIL   Si0Hk       1       2.1    28.086
    2931      Ob       1     SIL   O00ZR       1     -1.05    15.999
    2932       O       1     SIL   O00ZS       1    -0.525    15.999
    2933      Oh       1     SIL   O00ZT       1     -0.95    15.999
    2934      Oh       1     SIL   O00ZU       1     -0.95    15.999
    2935       O       1     SIL   O00ZV       1    -0.525    15.999
    2936      Ob       1     SIL   O00ZW       1     -1.05    15.999
    2937      Si       1     SIL   Si0Hm       1       2.1    28.086
    2938      Si       1     SIL   Si0Hn       1       2.1    28.086
    2939      Ob       1     SIL   O00ZX       1     -1.05    15.999
    2940       O       1     SIL   O00ZY       1    -0.525    15.999
    2941      Oh       1     SIL   O00ZZ       1     -0.95    15.999
    2942      Oh       1     SIL   O00Za       1     -0.95    15.999
    2943       O       1     SIL   O00Zb       1    -0.525    15.999
    2944      Ob       1     SIL   O00Zc       1     -1.05    15.999
    2945      Si       1     SIL   Si0Hp       1       2.1    28.086
    2946      Si       1     SIL   Si0Hq       1       2.1    28.086
    2947      Ob       1     SIL   O00Zd       1     -1.05    15.999
    2948       O       1     SIL   O00Ze       1    -0.525    15.999
    2949      Oh       1     SIL   O00Zf       1     -0.95    15.999
    2950      Oh       1     SIL   O00Zg       1     -0.95    15.999
    2951       O       1     SIL   O00Zh       1    -0.525    15.999
    2952      Ob       1     SIL   O00Zi       1     -1.05    15.999
    2953      Si       1     SIL   Si0Hs       1       2.1    28.086
    2954      Si       1     SIL   Si0Ht       1       2.1    28.086
    2955      Ob       1     SIL   O00Zj       1     -1.05    15.999
    2956       O       1     SIL   O00Zk       1    -0.525    15.999
    2957      Oh       1     SIL   O00Zl       1     -0.95    15.999
    2958      Oh       1     SIL   O00Zm       1     -0.95    15.999
    2959       O       1     SIL   O00Zn       1    -0.525    15.999
    2960      Ob       1     SIL   O00Zo       1     -1.05    15.999
    2961      Si       1     SIL   Si0Hv       1       2.1    28.086
    2962      Si       1     SIL   Si0Hw       1       2.1    28.086
    2963      Ob       1     SIL   O00Zp       1     -1.05    15.999
    2964       O       1     SIL   O00Zq       1    -0.525    15.999
    2965      Oh       1     SIL   O00Zr       1     -0.95    15.999
    2966      Oh       1     SIL   O00Zs       1     -0.95    15.999
    2967       O       1     SIL   O00Zt       1    -0.525    15.999
    2968      Ob       1     SIL   O00Zu       1     -1.05    15.999
    2969      Si       1     SIL   Si0Hy       1       2.1    28.086
    2970      Si       1     SIL   Si0Hz       1       2.1    28.086
    2971      Ob       1     SIL   O00Zv       1     -1.05    15.999
    2972       O       1     SIL   O00Zw       1    -0.525    15.999
    2973      Oh       1     SIL   O00Zx       1     -0.95    15.999
    2974      Oh       1     SIL   O00Zy       1     -0.95    15.999
    2975       O       1     SIL   O00Zz       1    -0.525    15.999
    2976      Ob       1     SIL   O00a0       1     -1.05    15.999
    2977      Si       1     SIL   Si0I1       1       2.1    28.086
    2978      Si       1     SIL   Si0I2       1       2.1    28.086
    2979      Ob       1     SIL   O00a1       1     -1.05    15.999
    2980       O       1     SIL   O00a2       1    -0.525    15.999
    2981      Oh       1     SIL   O00a3       1     -0.95    15.999
    2982      Oh       1     SIL   O00a4       1     -0.95    15.999
    2983       O       1     SIL   O00a5       1    -0.525    15.999
    2984      Ob       1     SIL   O00a6       1     -1.05    15.999
    2985      Si       1     SIL   Si0I4       1       2.1    28.086
    2986      Si       1     SIL   Si0I5       1       2.1    28.086
    2987      Ob       1     SIL   O00a7       1     -1.05    15.999
    2988       O       1     SIL   O00a8       1    -0.525    15.999
    2989      Oh       1     SIL   O00a9       1     -0.95    15.999
    2990      Oh       1     SIL   O00aA       1     -0.95    15.999
    2991       O       1     SIL   O00aB       1    -0.525    15.999
    2992      Ob       1     SIL   O00aC       1     -1.05    15.999
    2993      Si       1     SIL   Si0I7       1       2.1    28.086
    2994      Si       1     SIL   Si0I8       1       2.1    28.086
    2995      Ob       1     SIL   O00aD       1     -1.05    15.999
    2996       O       1     SIL   O00aE       1    -0.525    15.999
    2997      Oh       1     SIL   O00aF       1     -0.95    15.999
    2998      Oh       1     SIL   O00aG       1     -0.95    15.999
    2999       O       1     SIL   O00aH       1    -0.525    15.999
    3000      Ob       1     SIL   O00aI       1     -1.05    15.999
    3001      Si       1     SIL   Si0IA       1       2.1    28.086
    3002      Si       1     SIL   Si0IB       1       2.1    28.086
    3003      Ob       1     SIL   O00aJ       1     -1.05    15.999
    3004       O       1     SIL   O00aK       1    -0.525    15.999
    3005      Oh       1     SIL   O00aL       1     -0.95    15.999
    3006      Oh       1     SIL   O00aM       1     -0.95    15.999
    3007       O       1     SIL   O00aN       1    -0.525    15.999
    3008      Ob       1     SIL   O00aO       1     -1.05    15.999
    3009      Si       1     SIL   Si0ID       1       2.1    28.086
    3010      Si       1     SIL   Si0IE       1       2.1    28.086
    3011      Ob       1     SIL   O00aP       1     -1.05    15.999
    3012       O       1     SIL   O00aQ       1    -0.525    15.999
    3013      Oh       1     SIL   O00aR       1     -0.95    15.999
    3014      Oh       1     SIL   O00aS       1     -0.95    15.999
    3015       O       1     SIL   O00aT       1    -0.525    15.999
    3016      Ob       1     SIL   O00aU       1     -1.05    15.999
    3017      Si       1     SIL   Si0IG       1       2.1    28.086
    3018      Si       1     SIL   Si0IH       1       2.1    28.086
    3019      Ob       1     SIL   O00aV       1     -1.05    15.999
    3020       O       1     SIL   O00aW       1    -0.525    15.999
    3021      Oh       1     SIL   O00aX       1     -0.95    15.999
    3022      Oh       1     SIL   O00aY       1     -0.95    15.999
    3023       O       1     SIL   O00aZ       1    -0.525    15.999
    3024      Ob       1     SIL   O00aa       1     -1.05    15.999
    3025      Si       1     SIL   Si0IJ       1       2.1    28.086
    3026      Si       1     SIL   Si0IK       1       2.1    28.086
    3027      Ob       1     SIL   O00ab       1     -1.05    15.999
    3028       O       1     SIL   O00ac       1    -0.525    15.999
    3029      Oh       1     SIL   O00ad       1     -0.95    15.999
    3030      Oh       1     SIL   O00ae       1     -0.95    15.999
    3031       O       1     SIL   O00af       1    -0.525    15.999
    3032      Ob       1     SIL   O00ag       1     -1.05    15.999
    3033      Si       1     SIL   Si0IM       1       2.1    28.086
    3034      Si       1     SIL   Si0IN       1       2.1    28.086
    3035      Ob       1     SIL   O00ah       1     -1.05    15.999
    3036       O       1     SIL   O00ai       1    -0.525    15.999
    3037      Oh       1     SIL   O00aj       1     -0.95    15.999
    3038      Oh       1     SIL   O00ak       1     -0.95    15.999
    3039       O       1     SIL   O00al       1    -0.525    15.999
    3040      Ob       1     SIL   O00am       1     -1.05    15.999
    3041      Si       1     SIL   Si0IP       1       2.1    28.086
    3042      Si       1     SIL   Si0IQ       1       2.1    28.086
    3043      Ob       1     SIL   O00an       1     -1.05    15.999
    3044       O       1     SIL   O00ao       1    -0.525    15.999
    3045      Oh       1     SIL   O00ap       1     -0.95    15.999
    3046      Oh       1     SIL   O00aq       1     -0.95    15.999
    3047       O       1     SIL   O00ar       1    -0.525    15.999
    3048      Ob       1     SIL   O00as       1     -1.05    15.999
    3049      Si       1     SIL   Si0IS       1       2.1    28.086
    3050      Si       1     SIL   Si0IT       1       2.1    28.086
    3051      Ob       1     SIL   O00at       1     -1.05    15.999
    3052       O       1     SIL   O00au       1    -0.525    15.999
    3053      Oh       1     SIL   O00av       1     -0.95    15.999
    3054      Oh       1     SIL   O00aw       1     -0.95    15.999
    3055       O       1     SIL   O00ax       1    -0.525    15.999
    3056      Ob       1     SIL   O00ay       1     -1.05    15.999
    3057      Si       1     SIL   Si0IV       1       2.1    28.086
    3058      Si       1     SIL   Si0IW       1       2.1    28.086
    3059      Ob       1     SIL   O00az       1     -1.05    15.999
    3060       O       1     SIL   O00b0       1    -0.525    15.999
    3061      Oh       1     SIL   O00b1       1     -0.95    15.999
    3062      Oh       1     SIL   O00b2       1     -0.95    15.999
    3063       O       1     SIL   O00b3       1    -0.525    15.999
    3064      Ob       1     SIL   O00b4       1     -1.05    15.999
    3065      Si       1     SIL   Si0IY       1       2.1    28.086
    3066      Si       1     SIL   Si0IZ       1       2.1    28.086
    3067      Ob       1     SIL   O00b5       1     -1.05    15.999
    3068       O       1     SIL   O00b6       1    -0.525    15.999
    3069      Oh       1     SIL   O00b7       1     -0.95    15.999
    3070      Oh       1     SIL   O00b8       1     -0.95    15.999
    3071       O       1     SIL   O00b9       1    -0.525    15.999
    3072      Ob       1     SIL   O00bA       1     -1.05    15.999
    3073      Si       1     SIL   Si0Ib       1       2.1    28.086
    3074      Si       1     SIL   Si0Ic       1       2.1    28.086
    3075      Ob       1     SIL   O00bB       1     -1.05    15.999
    3076       O       1     SIL   O00bC       1    -0.525    15.999
    3077      Oh       1     SIL   O00bD       1     -0.95    15.999
    3078      Oh       1     SIL   O00bE       1     -0.95    15.999
    3079       O       1     SIL   O00bF       1    -0.525    15.999
    3080      Ob       1     SIL   O00bG       1     -1.05    15.999
    3081      Si       1     SIL   Si0Ie       1       2.1    28.086
    3082      Si       1     SIL   Si0If       1       2.1    28.086
    3083      Ob       1     SIL   O00bH       1     -1.05    15.999
    3084       O       1     SIL   O00bI       1    -0.525    15.999
    3085      Oh       1     SIL   O00bJ       1     -0.95    15.999
    3086      Oh       1     SIL   O00bK       1     -0.95    15.999
    3087       O       1     SIL   O00bL       1    -0.525    15.999
    3088      Ob       1     SIL   O00bM       1     -1.05    15.999
    3089      Si       1     SIL   Si0Ih       1       2.1    28.086
    3090      Si       1     SIL   Si0Ii       1       2.1    28.086
    3091      Ob       1     SIL   O00bN       1     -1.05    15.999
    3092       O       1     SIL   O00bO       1    -0.525    15.999
    3093      Oh       1     SIL   O00bP       1     -0.95    15.999
    3094      Oh       1     SIL   O00bQ       1     -0.95    15.999
    3095       O       1     SIL   O00bR       1    -0.525    15.999
    3096      Ob       1     SIL   O00bS       1     -1.05    15.999
    3097      Si       1     SIL   Si0Ik       1       2.1    28.086
    3098      Si       1     SIL   Si0Il       1       2.1    28.086
    3099      Ob       1     SIL   O00bT       1     -1.05    15.999
    3100       O       1     SIL   O00bU       1    -0.525    15.999
    3101      Oh       1     SIL   O00bV       1     -0.95    15.999
    3102      Oh       1     SIL   O00bW       1     -0.95    15.999
    3103       O       1     SIL   O00bX       1    -0.525    15.999
    3104      Ob       1     SIL   O00bY       1     -1.05    15.999
    3105      Si       1     SIL   Si0In       1       2.1    28.086
    3106      Si       1     SIL   Si0Io       1       2.1    28.086
    3107      Ob       1     SIL   O00bZ       1     -1.05    15.999
    3108       O       1     SIL   O00ba       1    -0.525    15.999
    3109      Oh       1     SIL   O00bb       1     -0.95    15.999
    3110      Oh       1     SIL   O00bc       1     -0.95    15.999
    3111       O       1     SIL   O00bd       1    -0.525    15.999
    3112      Ob       1     SIL   O00be       1     -1.05    15.999
    3113      Si       1     SIL   Si0Iq       1       2.1    28.086
    3114      Si       1     SIL   Si0Ir       1       2.1    28.086
    3115      Ob       1     SIL   O00bf       1     -1.05    15.999
    3116       O       1     SIL   O00bg       1    -0.525    15.999
    3117      Oh       1     SIL   O00bh       1     -0.95    15.999
    3118      Oh       1     SIL   O00bi       1     -0.95    15.999
    3119       O       1     SIL   O00bj       1    -0.525    15.999
    3120      Ob       1     SIL   O00bk       1     -1.05    15.999
    3121      Si       1     SIL   Si0It       1       2.1    28.086
    3122      Si       1     SIL   Si0Iu       1       2.1    28.086
    3123      Ob       1     SIL   O00bl       1     -1.05    15.999
    3124       O       1     SIL   O00bm       1    -0.525    15.999
    3125      Oh       1     SIL   O00bn       1     -0.95    15.999
    3126      Oh       1     SIL   O00bo       1     -0.95    15.999
    3127       O       1     SIL   O00bp       1    -0.525    15.999
    3128      Ob       1     SIL   O00bq       1     -1.05    15.999
    3129      Si       1     SIL   Si0Iw       1       2.1    28.086
    3130      Si       1     SIL   Si0Ix       1       2.1    28.086
    3131      Ob       1     SIL   O00br       1     -1.05    15.999
    3132       O       1     SIL   O00bs       1    -0.525    15.999
    3133      Oh       1     SIL   O00bt       1     -0.95    15.999
    3134      Oh       1     SIL   O00bu       1     -0.95    15.999
    3135       O       1     SIL   O00bv       1    -0.525    15.999
    3136      Ob       1     SIL   O00bw       1     -1.05    15.999
    3137      Si       1     SIL   Si0Iz       1       2.1    28.086
    3138      Si       1     SIL   Si0J0       1       2.1    28.086
    3139      Ob       1     SIL   O00bx       1     -1.05    15.999
    3140       O       1     SIL   O00by       1    -0.525    15.999
    3141      Oh       1     SIL   O00bz       1     -0.95    15.999
    3142      Oh       1     SIL   O00c0       1     -0.95    15.999
    3143       O       1     SIL   O00c1       1    -0.525    15.999
    3144      Ob       1     SIL   O00c2       1     -1.05    15.999
    3145      Si       1     SIL   Si0J2       1       2.1    28.086
    3146      Si       1     SIL   Si0J3       1       2.1    28.086
    3147      Ob       1     SIL   O00c3       1     -1.05    15.999
    3148       O       1     SIL   O00c4       1    -0.525    15.999
    3149      Oh       1     SIL   O00c5       1     -0.95    15.999
    3150      Oh       1     SIL   O00c6       1     -0.95    15.999
    3151       O       1     SIL   O00c7       1    -0.525    15.999
    3152      Ob       1     SIL   O00c8       1     -1.05    15.999
    3153      Si       1     SIL   Si0J5       1       2.1    28.086
    3154      Si       1     SIL   Si0J6       1       2.1    28.086
    3155      Ob       1     SIL   O00c9       1     -1.05    15.999
    3156       O       1     SIL   O00cA       1    -0.525    15.999
    3157      Oh       1     SIL   O00cB       1     -0.95    15.999
    3158      Oh       1     SIL   O00cC       1     -0.95    15.999
    3159       O       1     SIL   O00cD       1    -0.525    15.999
    3160      Ob       1     SIL   O00cE       1     -1.05    15.999
    3161      Si       1     SIL   Si0J8       1       2.1    28.086
    3162      Si       1     SIL   Si0J9       1       2.1    28.086
    3163      Ob       1     SIL   O00cF       1     -1.05    15.999
    3164       O       1     SIL   O00cG       1    -0.525    15.999
    3165      Oh       1     SIL   O00cH       1     -0.95    15.999
    3166      Oh       1     SIL   O00cI       1     -0.95    15.999
    3167       O       1     SIL   O00cJ       1    -0.525    15.999
    3168      Ob       1     SIL   O00cK       1     -1.05    15.999
    3169      Si       1     SIL   Si0JB       1       2.1    28.086
    3170      Si       1     SIL   Si0JC       1       2.1    28.086
    3171      Ob       1     SIL   O00cL       1     -1.05    15.999
    3172       O       1     SIL   O00cM       1    -0.525    15.999
    3173      Oh       1     SIL   O00cN       1     -0.95    15.999
    3174      Oh       1     SIL   O00cO       1     -0.95    15.999
    3175       O       1     SIL   O00cP       1    -0.525    15.999
    3176      Ob       1     SIL   O00cQ       1     -1.05    15.999
    3177      Si       1     SIL   Si0JE       1       2.1    28.086
    3178      Si       1     SIL   Si0JF       1       2.1    28.086
    3179      Ob       1     SIL   O00cR       1     -1.05    15.999
    3180       O       1     SIL   O00cS       1    -0.525    15.999
    3181      Oh       1     SIL   O00cT       1     -0.95    15.999
    3182      Oh       1     SIL   O00cU       1     -0.95    15.999
    3183       O       1     SIL   O00cV       1    -0.525    15.999
    3184      Ob       1     SIL   O00cW       1     -1.05    15.999
    3185      Si       1     SIL   Si0JH       1       2.1    28.086
    3186      Si       1     SIL   Si0JI       1       2.1    28.086
    3187      Ob       1     SIL   O00cX       1     -1.05    15.999
    3188       O       1     SIL   O00cY       1    -0.525    15.999
    3189      Oh       1     SIL   O00cZ       1     -0.95    15.999
    3190      Oh       1     SIL   O00ca       1     -0.95    15.999
    3191       O       1     SIL   O00cb       1    -0.525    15.999
    3192      Ob       1     SIL   O00cc       1     -1.05    15.999
    3193      Si       1     SIL   Si0JK       1       2.1    28.086
    3194      Si       1     SIL   Si0JL       1       2.1    28.086
    3195      Ob       1     SIL   O00cd       1     -1.05    15.999
    3196       O       1     SIL   O00ce       1    -0.525    15.999
    3197      Oh       1     SIL   O00cf       1     -0.95    15.999
    3198      Oh       1     SIL   O00cg       1     -0.95    15.999
    3199       O       1     SIL   O00ch       1    -0.525    15.999
    3200      Ob       1     SIL   O00ci       1     -1.05    15.999
    3201      Si       1     SIL   Si0JN       1       2.1    28.086
    3202      Si       1     SIL   Si0JO       1       2.1    28.086
    3203      Ob       1     SIL   O00cj       1     -1.05    15.999
    3204       O       1     SIL   O00ck       1    -0.525    15.999
    3205      Oh       1     SIL   O00cl       1     -0.95    15.999
    3206      Oh       1     SIL   O00cm       1     -0.95    15.999
    3207       O       1     SIL   O00cn       1    -0.525    15.999
    3208      Ob       1     SIL   O00co       1     -1.05    15.999
    3209      Si       1     SIL   Si0JQ       1       2.1    28.086
    3210      Si       1     SIL   Si0JR       1       2.1    28.086
    3211      Ob       1     SIL   O00cp       1     -1.05    15.999
    3212       O       1     SIL   O00cq       1    -0.525    15.999
    3213      Oh       1     SIL   O00cr       1     -0.95    15.999
    3214      Oh       1     SIL   O00cs       1     -0.95    15.999
    3215       O       1     SIL   O00ct       1    -0.525    15.999
    3216      Ob       1     SIL   O00cu       1     -1.05    15.999
    3217      Si       1     SIL   Si0JT       1       2.1    28.086
    3218      Si       1     SIL   Si0JU       1       2.1    28.086
    3219      Ob       1     SIL   O00cv       1     -1.05    15.999
    3220       O       1     SIL   O00cw       1    -0.525    15.999
    3221      Oh       1     SIL   O00cx       1     -0.95    15.999
    3222      Oh       1     SIL   O00cy       1     -0.95    15.999
    3223       O       1     SIL   O00cz       1    -0.525    15.999
    3224      Ob       1     SIL   O00d0       1     -1.05    15.999
    3225      Si       1     SIL   Si0JW       1       2.1    28.086
    3226      Si       1     SIL   Si0JX       1       2.1    28.086
    3227      Ob       1     SIL   O00d1       1     -1.05    15.999
    3228       O       1     SIL   O00d2       1    -0.525    15.999
    3229      Oh       1     SIL   O00d3       1     -0.95    15.999
    3230      Oh       1     SIL   O00d4       1     -0.95    15.999
    3231       O       1     SIL   O00d5       1    -0.525    15.999
    3232      Ob       1     SIL   O00d6       1     -1.05    15.999
    3233      Si       1     SIL   Si0JZ       1       2.1    28.086
    3234      Si       1     SIL   Si0Ja       1       2.1    28.086
    3235      Ob       1     SIL   O00d7       1     -1.05    15.999
    3236       O       1     SIL   O00d8       1    -0.525    15.999
    3237      Oh       1     SIL   O00d9       1     -0.95    15.999
    3238      Oh       1     SIL   O00dA       1     -0.95    15.999
    3239       O       1     SIL   O00dB       1    -0.525    15.999
    3240      Ob       1     SIL   O00dC       1     -1.05    15.999
    3241      Si       1     SIL   Si0Jc       1       2.1    28.086
    3242      Si       1     SIL   Si0Jd       1       2.1    28.086
    3243      Ob       1     SIL   O00dD       1     -1.05    15.999
    3244       O       1     SIL   O00dE       1    -0.525    15.999
    3245      Oh       1     SIL   O00dF       1     -0.95    15.999
    3246      Oh       1     SIL   O00dG       1     -0.95    15.999
    3247       O       1     SIL   O00dH       1    -0.525    15.999
    3248      Ob       1     SIL   O00dI       1     -1.05    15.999
    3249      Si       1     SIL   Si0Jf       1       2.1    28.086
    3250      Si       1     SIL   Si0Jg       1       2.1    28.086
    3251      Ob       1     SIL   O00dJ       1     -1.05    15.999
    3252       O       1     SIL   O00dK       1    -0.525    15.999
    3253      Oh       1     SIL   O00dL       1     -0.95    15.999
    3254      Oh       1     SIL   O00dM       1     -0.95    15.999
    3255       O       1     SIL   O00dN       1    -0.525    15.999
    3256      Ob       1     SIL   O00dO       1     -1.05    15.999
    3257      Si       1     SIL   Si0Ji       1       2.1    28.086
    3258      Si       1     SIL   Si0Jj       1       2.1    28.086
    3259      Ob       1     SIL   O00dP       1     -1.05    15.999
    3260       O       1     SIL   O00dQ       1    -0.525    15.999
    3261      Oh       1     SIL   O00dR       1     -0.95    15.999
    3262      Oh       1     SIL   O00dS       1     -0.95    15.999
    3263       O       1     SIL   O00dT       1    -0.525    15.999
    3264      Ob       1     SIL   O00dU       1     -1.05    15.999
    3265      Si       1     SIL   Si0Jl       1       2.1    28.086
    3266      Si       1     SIL   Si0Jm       1       2.1    28.086
    3267      Ob       1     SIL   O00dV       1     -1.05    15.999
    3268       O       1     SIL   O00dW       1    -0.525    15.999
    3269      Oh       1     SIL   O00dX       1     -0.95    15.999
    3270      Oh       1     SIL   O00dY       1     -0.95    15.999
    3271       O       1     SIL   O00dZ       1    -0.525    15.999
    3272      Ob       1     SIL   O00da       1     -1.05    15.999
    3273      Si       1     SIL   Si0Jo       1       2.1    28.086
    3274      Si       1     SIL   Si0Jp       1       2.1    28.086
    3275      Ob       1     SIL   O00db       1     -1.05    15.999
    3276       O       1     SIL   O00dc       1    -0.525    15.999
    3277      Oh       1     SIL   O00dd       1     -0.95    15.999
    3278      Oh       1     SIL   O00de       1     -0.95    15.999
    3279       O       1     SIL   O00df       1    -0.525    15.999
    3280      Ob       1     SIL   O00dg       1     -1.05    15.999
    3281      Si       1     SIL   Si0Jr       1       2.1    28.086
    3282      Si       1     SIL   Si0Js       1       2.1    28.086
    3283      Ob       1     SIL   O00dh       1     -1.05    15.999
    3284       O       1     SIL   O00di       1    -0.525    15.999
    3285      Oh       1     SIL   O00dj       1     -0.95    15.999
    3286      Oh       1     SIL   O00dk       1     -0.95    15.999
    3287       O       1     SIL   O00dl       1    -0.525    15.999
    3288      Ob       1     SIL   O00dm       1     -1.05    15.999
    3289      Si       1     SIL   Si0Ju       1       2.1    28.086
    3290      Si       1     SIL   Si0Jv       1       2.1    28.086
    3291      Ob       1     SIL   O00dn       1     -1.05    15.999
    3292       O       1     SIL   O00do       1    -0.525    15.999
    3293      Oh       1     SIL   O00dp       1     -0.95    15.999
    3294      Oh       1     SIL   O00dq       1     -0.95    15.999
    3295       O       1     SIL   O00dr       1    -0.525    15.999
    3296      Ob       1     SIL   O00ds       1     -1.05    15.999
    3297      Si       1     SIL   Si0Jx       1       2.1    28.086
    3298      Si       1     SIL   Si0Jy       1       2.1    28.086
    3299      Ob       1     SIL   O00dt       1     -1.05    15.999
    3300       O       1     SIL   O00du       1    -0.525    15.999
    3301      Oh       1     SIL   O00dv       1     -0.95    15.999
    3302      Oh       1     SIL   O00dw       1     -0.95    15.999
    3303       O       1     SIL   O00dx       1    -0.525    15.999
    3304      Ob       1     SIL   O00dy       1     -1.05    15.999
    3305      Si       1     SIL   Si0K0       1       2.1    28.086
    3306      Si       1     SIL   Si0K1       1       2.1    28.086
    3307      Ob       1     SIL   O00dz       1     -1.05    15.999
    3308       O       1     SIL   O00e0       1    -0.525    15.999
    3309      Oh       1     SIL   O00e1       1     -0.95    15.999
    3310      Oh       1     SIL   O00e2       1     -0.95    15.999
    3311       O       1     SIL   O00e3       1    -0.525    15.999
    3312      Ob       1     SIL   O00e4       1     -1.05    15.999
    3313      Si       1     SIL   Si0K3       1       2.1    28.086
    3314      Si       1     SIL   Si0K4       1       2.1    28.086
    3315      Ob       1     SIL   O00e5       1     -1.05    15.999
    3316       O       1     SIL   O00e6       1    -0.525    15.999
    3317      Oh       1     SIL   O00e7       1     -0.95    15.999
    3318      Oh       1     SIL   O00e8       1     -0.95    15.999
    3319       O       1     SIL   O00e9       1    -0.525    15.999
    3320      Ob       1     SIL   O00eA       1     -1.05    15.999
    3321      Si       1     SIL   Si0K6       1       2.1    28.086
    3322      Si       1     SIL   Si0K7       1       2.1    28.086
    3323      Ob       1     SIL   O00eB       1     -1.05    15.999
    3324       O       1     SIL   O00eC       1    -0.525    15.999
    3325      Oh       1     SIL   O00eD       1     -0.95    15.999
    3326      Oh       1     SIL   O00eE       1     -0.95    15.999
    3327       O       1     SIL   O00eF       1    -0.525    15.999
    3328      Ob       1     SIL   O00eG       1     -1.05    15.999
    3329      Si       1     SIL   Si0K9       1       2.1    28.086
    3330      Si       1     SIL   Si0KA       1       2.1    28.086
    3331      Ob       1     SIL   O00eH       1     -1.05    15.999
    3332       O       1     SIL   O00eI       1    -0.525    15.999
    3333      Oh       1     SIL   O00eJ       1     -0.95    15.999
    3334      Oh       1     SIL   O00eK       1     -0.95    15.999
    3335       O       1     SIL   O00eL       1    -0.525    15.999
    3336      Ob       1     SIL   O00eM       1     -1.05    15.999
    3337      Si       1     SIL   Si0KC       1       2.1    28.086
    3338      Si       1     SIL   Si0KD       1       2.1    28.086
    3339      Ob       1     SIL   O00eN       1     -1.05    15.999
    3340       O       1     SIL   O00eO       1    -0.525    15.999
    3341      Oh       1     SIL   O00eP       1     -0.95    15.999
    3342      Oh       1     SIL   O00eQ       1     -0.95    15.999
    3343       O       1     SIL   O00eR       1    -0.525    15.999
    3344      Ob       1     SIL   O00eS       1     -1.05    15.999
    3345      Si       1     SIL   Si0KF       1       2.1    28.086
    3346      Si       1     SIL   Si0KG       1       2.1    28.086
    3347      Ob       1     SIL   O00eT       1     -1.05    15.999
    3348       O       1     SIL   O00eU       1    -0.525    15.999
    3349      Oh       1     SIL   O00eV       1     -0.95    15.999
    3350      Oh       1     SIL   O00eW       1     -0.95    15.999
    3351       O       1     SIL   O00eX       1    -0.525    15.999
    3352      Ob       1     SIL   O00eY       1     -1.05    15.999
    3353      Si       1     SIL   Si0KI       1       2.1    28.086
    3354      Si       1     SIL   Si0KJ       1       2.1    28.086
    3355      Ob       1     SIL   O00eZ       1     -1.05    15.999
    3356       O       1     SIL   O00ea       1    -0.525    15.999
    3357      Oh       1     SIL   O00eb       1     -0.95    15.999
    3358      Oh       1     SIL   O00ec       1     -0.95    15.999
    3359       O       1     SIL   O00ed       1    -0.525    15.999
    3360      Ob       1     SIL   O00ee       1     -1.05    15.999
    3361      Si       1     SIL   Si0KL       1       2.1    28.086
    3362      Si       1     SIL   Si0KM       1       2.1    28.086
    3363      Ob       1     SIL   O00ef       1     -1.05    15.999
    3364       O       1     SIL   O00eg       1    -0.525    15.999
    3365      Oh       1     SIL   O00eh       1     -0.95    15.999
    3366      Oh       1     SIL   O00ei       1     -0.95    15.999
    3367       O       1     SIL   O00ej       1    -0.525    15.999
    3368      Ob       1     SIL   O00ek       1     -1.05    15.999
    3369      Si       1     SIL   Si0KO       1       2.1    28.086
    3370      Si       1     SIL   Si0KP       1       2.1    28.086
    3371      Ob       1     SIL   O00el       1     -1.05    15.999
    3372       O       1     SIL   O00em       1    -0.525    15.999
    3373      Oh       1     SIL   O00en       1     -0.95    15.999
    3374      Oh       1     SIL   O00eo       1     -0.95    15.999
    3375       O       1     SIL   O00ep       1    -0.525    15.999
    3376      Ob       1     SIL   O00eq       1     -1.05    15.999
    3377      Si       1     SIL   Si0KR       1       2.1    28.086
    3378      Si       1     SIL   Si0KS       1       2.1    28.086
    3379      Ob       1     SIL   O00er       1     -1.05    15.999
    3380       O       1     SIL   O00es       1    -0.525    15.999
    3381      Oh       1     SIL   O00et       1     -0.95    15.999
    3382      Oh       1     SIL   O00eu       1     -0.95    15.999
    3383       O       1     SIL   O00ev       1    -0.525    15.999
    3384      Ob       1     SIL   O00ew       1     -1.05    15.999
    3385      Si       1     SIL   Si0KU       1       2.1    28.086
    3386      Si       1     SIL   Si0KV       1       2.1    28.086
    3387      Ob       1     SIL   O00ex       1     -1.05    15.999
    3388       O       1     SIL   O00ey       1    -0.525    15.999
    3389      Oh       1     SIL   O00ez       1     -0.95    15.999
    3390      Oh       1     SIL   O00f0       1     -0.95    15.999
    3391       O       1     SIL   O00f1       1    -0.525    15.999
    3392      Ob       1     SIL   O00f2       1     -1.05    15.999
    3393      Si       1     SIL   Si0KX       1       2.1    28.086
    3394      Si       1     SIL   Si0KY       1       2.1    28.086
    3395      Ob       1     SIL   O00f3       1     -1.05    15.999
    3396       O       1     SIL   O00f4       1    -0.525    15.999
    3397      Oh       1     SIL   O00f5       1     -0.95    15.999
    3398      Oh       1     SIL   O00f6       1     -0.95    15.999
    3399       O       1     SIL   O00f7       1    -0.525    15.999
    3400      Ob       1     SIL   O00f8       1     -1.05    15.999
    3401      Si       1     SIL   Si0Ka       1       2.1    28.086
    3402      Si       1     SIL   Si0Kb       1       2.1    28.086
    3403      Ob       1     SIL   O00f9       1     -1.05    15.999
    3404       O       1     SIL   O00fA       1    -0.525    15.999
    3405      Oh       1     SIL   O00fB       1     -0.95    15.999
    3406      Oh       1     SIL   O00fC       1     -0.95    15.999
    3407       O       1     SIL   O00fD       1    -0.525    15.999
    3408      Ob       1     SIL   O00fE       1     -1.05    15.999
    3409      Si       1     SIL   Si0Kd       1       2.1    28.086
    3410      Si       1     SIL   Si0Ke       1       2.1    28.086
    3411      Ob       1     SIL   O00fF       1     -1.05    15.999
    3412       O       1     SIL   O00fG       1    -0.525    15.999
    3413      Oh       1     SIL   O00fH       1     -0.95    15.999
    3414      Oh       1     SIL   O00fI       1     -0.95    15.999
    3415       O       1     SIL   O00fJ       1    -0.525    15.999
    3416      Ob       1     SIL   O00fK       1     -1.05    15.999
    3417      Si       1     SIL   Si0Kg       1       2.1    28.086
    3418      Si       1     SIL   Si0Kh       1       2.1    28.086
    3419      Ob       1     SIL   O00fL       1     -1.05    15.999
    3420       O       1     SIL   O00fM       1    -0.525    15.999
    3421      Oh       1     SIL   O00fN       1     -0.95    15.999
    3422      Oh       1     SIL   O00fO       1     -0.95    15.999
    3423       O       1     SIL   O00fP       1    -0.525    15.999
    3424      Ob       1     SIL   O00fQ       1     -1.05    15.999
    3425      Si       1     SIL   Si0Kj       1       2.1    28.086
    3426      Si       1     SIL   Si0Kk       1       2.1    28.086
    3427      Ob       1     SIL   O00fR       1     -1.05    15.999
    3428       O       1     SIL   O00fS       1    -0.525    15.999
    3429      Oh       1     SIL   O00fT       1     -0.95    15.999
    3430      Oh       1     SIL   O00fU       1     -0.95    15.999
    3431       O       1     SIL   O00fV       1    -0.525    15.999
    3432      Ob       1     SIL   O00fW       1     -1.05    15.999
    3433      Si       1     SIL   Si0Km       1       2.1    28.086
    3434      Si       1     SIL   Si0Kn       1       2.1    28.086
    3435      Ob       1     SIL   O00fX       1     -1.05    15.999
    3436       O       1     SIL   O00fY       1    -0.525    15.999
    3437      Oh       1     SIL   O00fZ       1     -0.95    15.999
    3438      Oh       1     SIL   O00fa       1     -0.95    15.999
    3439       O       1     SIL   O00fb       1    -0.525    15.999
    3440      Ob       1     SIL   O00fc       1     -1.05    15.999
    3441      Si       1     SIL   Si0Kp       1       2.1    28.086
    3442      Si       1     SIL   Si0Kq       1       2.1    28.086
    3443      Ob       1     SIL   O00fd       1     -1.05    15.999
    3444       O       1     SIL   O00fe       1    -0.525    15.999
    3445      Oh       1     SIL   O00ff       1     -0.95    15.999
    3446      Oh       1     SIL   O00fg       1     -0.95    15.999
    3447       O       1     SIL   O00fh       1    -0.525    15.999
    3448      Ob       1     SIL   O00fi       1     -1.05    15.999
    3449      Si       1     SIL   Si0Ks       1       2.1    28.086
    3450      Si       1     SIL   Si0Kt       1       2.1    28.086
    3451      Ob       1     SIL   O00fj       1     -1.05    15.999
    3452       O       1     SIL   O00fk       1    -0.525    15.999
    3453      Oh       1     SIL   O00fl       1     -0.95    15.999
    3454      Oh       1     SIL   O00fm       1     -0.95    15.999
    3455       O       1     SIL   O00fn       1    -0.525    15.999
    3456      Ob       1     SIL   O00fo       1     -1.05    15.999
    3457      Si       1     SIL   Si0Kv       1       2.1    28.086
    3458      Si       1     SIL   Si0Kw       1       2.1    28.086
    3459      Ob       1     SIL   O00fp       1     -1.05    15.999
    3460       O       1     SIL   O00fq       1    -0.525    15.999
    3461      Oh       1     SIL   O00fr       1     -0.95    15.999
    3462      Oh       1     SIL   O00fs       1     -0.95    15.999
    3463       O       1     SIL   O00ft       1    -0.525    15.999
    3464      Ob       1     SIL   O00fu       1     -1.05    15.999
    3465      Si       1     SIL   Si0Ky       1       2.1    28.086
    3466      Si       1     SIL   Si0Kz       1       2.1    28.086
    3467      Ob       1     SIL   O00fv       1     -1.05    15.999
    3468       O       1     SIL   O00fw       1    -0.525    15.999
    3469      Oh       1     SIL   O00fx       1     -0.95    15.999
    3470      Oh       1     SIL   O00fy       1     -0.95    15.999
    3471       O       1     SIL   O00fz       1    -0.525    15.999
    3472      Ob       1     SIL   O00g0       1     -1.05    15.999
    3473      Si       1     SIL   Si0L1       1       2.1    28.086
    3474      Si       1     SIL   Si0L2       1       2.1    28.086
    3475      Ob       1     SIL   O00g1       1     -1.05    15.999
    3476       O       1     SIL   O00g2       1    -0.525    15.999
    3477      Oh       1     SIL   O00g3       1     -0.95    15.999
    3478      Oh       1     SIL   O00g4       1     -0.95    15.999
    3479       O       1     SIL   O00g5       1    -0.525    15.999
    3480      Ob       1     SIL   O00g6       1     -1.05    15.999
    3481      Si       1     SIL   Si0L4       1       2.1    28.086
    3482      Si       1     SIL   Si0L5       1       2.1    28.086
    3483      Ob       1     SIL   O00g7       1     -1.05    15.999
    3484       O       1     SIL   O00g8       1    -0.525    15.999
    3485      Oh       1     SIL   O00g9       1     -0.95    15.999
    3486      Oh       1     SIL   O00gA       1     -0.95    15.999
    3487       O       1     SIL   O00gB       1    -0.525    15.999
    3488      Ob       1     SIL   O00gC       1     -1.05    15.999
    3489      Si       1     SIL   Si0L7       1       2.1    28.086
    3490      Si       1     SIL   Si0L8       1       2.1    28.086
    3491      Ob       1     SIL   O00gD       1     -1.05    15.999
    3492       O       1     SIL   O00gE       1    -0.525    15.999
    3493      Oh       1     SIL   O00gF       1     -0.95    15.999
    3494      Oh       1     SIL   O00gG       1     -0.95    15.999
    3495       O       1     SIL   O00gH       1    -0.525    15.999
    3496      Ob       1     SIL   O00gI       1     -1.05    15.999
    3497      Si       1     SIL   Si0LA       1       2.1    28.086
    3498      Si       1     SIL   Si0LB       1       2.1    28.086
    3499      Ob       1     SIL   O00gJ       1     -1.05    15.999
    3500       O       1     SIL   O00gK       1    -0.525    15.999
    3501      Oh       1     SIL   O00gL       1     -0.95    15.999
    3502      Oh       1     SIL   O00gM       1     -0.95    15.999
    3503       O       1     SIL   O00gN       1    -0.525    15.999
    3504      Ob       1     SIL   O00gO       1     -1.05    15.999
    3505      Si       1     SIL   Si0LD       1       2.1    28.086
    3506      Si       1     SIL   Si0LE       1       2.1    28.086
    3507      Ob       1     SIL   O00gP       1     -1.05    15.999
    3508       O       1     SIL   O00gQ       1    -0.525    15.999
    3509      Oh       1     SIL   O00gR       1     -0.95    15.999
    3510      Oh       1     SIL   O00gS       1     -0.95    15.999
    3511       O       1     SIL   O00gT       1    -0.525    15.999
    3512      Ob       1     SIL   O00gU       1     -1.05    15.999
    3513      Si       1     SIL   Si0LG       1       2.1    28.086
    3514      Si       1     SIL   Si0LH       1       2.1    28.086
    3515      Ob       1     SIL   O00gV       1     -1.05    15.999
    3516       O       1     SIL   O00gW       1    -0.525    15.999
    3517      Oh       1     SIL   O00gX       1     -0.95    15.999
    3518      Oh       1     SIL   O00gY       1     -0.95    15.999
    3519       O       1     SIL   O00gZ       1    -0.525    15.999
    3520      Ob       1     SIL   O00ga       1     -1.05    15.999
    3521      Si       1     SIL   Si0LJ       1       2.1    28.086
    3522      Si       1     SIL   Si0LK       1       2.1    28.086
    3523      Ob       1     SIL   O00gb       1     -1.05    15.999
    3524       O       1     SIL   O00gc       1    -0.525    15.999
    3525      Oh       1     SIL   O00gd       1     -0.95    15.999
    3526      Oh       1     SIL   O00ge       1     -0.95    15.999
    3527       O       1     SIL   O00gf       1    -0.525    15.999
    3528      Ob       1     SIL   O00gg       1     -1.05    15.999
    3529      Si       1     SIL   Si0LM       1       2.1    28.086
    3530      Si       1     SIL   Si0LN       1       2.1    28.086
    3531      Ob       1     SIL   O00gh       1     -1.05    15.999
    3532       O       1     SIL   O00gi       1    -0.525    15.999
    3533      Oh       1     SIL   O00gj       1     -0.95    15.999
    3534      Oh       1     SIL   O00gk       1     -0.95    15.999
    3535       O       1     SIL   O00gl       1    -0.525    15.999
    3536      Ob       1     SIL   O00gm       1     -1.05    15.999
    3537      Si       1     SIL   Si0LP       1       2.1    28.086
    3538      Si       1     SIL   Si0LQ       1       2.1    28.086
    3539      Ob       1     SIL   O00gn       1     -1.05    15.999
    3540       O       1     SIL   O00go       1    -0.525    15.999
    3541      Oh       1     SIL   O00gp       1     -0.95    15.999
    3542      Oh       1     SIL   O00gq       1     -0.95    15.999
    3543       O       1     SIL   O00gr       1    -0.525    15.999
    3544      Ob       1     SIL   O00gs       1     -1.05    15.999
    3545      Si       1     SIL   Si0LS       1       2.1    28.086
    3546      Si       1     SIL   Si0LT       1       2.1    28.086
    3547      Ob       1     SIL   O00gt       1     -1.05    15.999
    3548       O       1     SIL   O00gu       1    -0.525    15.999
    3549      Oh       1     SIL   O00gv       1     -0.95    15.999
    3550      Oh       1     SIL   O00gw       1     -0.95    15.999
    3551       O       1     SIL   O00gx       1    -0.525    15.999
    3552      Ob       1     SIL   O00gy       1     -1.05    15.999
    3553      Si       1     SIL   Si0LV       1       2.1    28.086
    3554      Si       1     SIL   Si0LW       1       2.1    28.086
    3555      Ob       1     SIL   O00gz       1     -1.05    15.999
    3556       O       1     SIL   O00h0       1    -0.525    15.999
    3557      Oh       1     SIL   O00h1       1     -0.95    15.999
    3558      Oh       1     SIL   O00h2       1     -0.95    15.999
    3559       O       1     SIL   O00h3       1    -0.525    15.999
    3560      Ob       1     SIL   O00h4       1     -1.05    15.999
    3561      Si       1     SIL   Si0LY       1       2.1    28.086
    3562      Si       1     SIL   Si0LZ       1       2.1    28.086
    3563      Ob       1     SIL   O00h5       1     -1.05    15.999
    3564       O       1     SIL   O00h6       1    -0.525    15.999
    3565      Oh       1     SIL   O00h7       1     -0.95    15.999
    3566      Oh       1     SIL   O00h8       1     -0.95    15.999
    3567       O       1     SIL   O00h9       1    -0.525    15.999
    3568      Ob       1     SIL   O00hA       1     -1.05    15.999
    3569      Si       1     SIL   Si0Lb       1       2.1    28.086
    3570      Si       1     SIL   Si0Lc       1       2.1    28.086
    3571      Ob       1     SIL   O00hB       1     -1.05    15.999
    3572       O       1     SIL   O00hC       1    -0.525    15.999
    3573      Oh       1     SIL   O00hD       1     -0.95    15.999
    3574      Oh       1     SIL   O00hE       1     -0.95    15.999
    3575       O       1     SIL   O00hF       1    -0.525    15.999
    3576      Ob       1     SIL   O00hG       1     -1.05    15.999
    3577      Si       1     SIL   Si0Le       1       2.1    28.086
    3578      Si       1     SIL   Si0Lf       1       2.1    28.086
    3579      Ob       1     SIL   O00hH       1     -1.05    15.999
    3580       O       1     SIL   O00hI       1    -0.525    15.999
    3581      Oh       1     SIL   O00hJ       1     -0.95    15.999
    3582      Oh       1     SIL   O00hK       1     -0.95    15.999
    3583       O       1     SIL   O00hL       1    -0.525    15.999
    3584      Ob       1     SIL   O00hM       1     -1.05    15.999
    3585      Si       1     SIL   Si0Lh       1       2.1    28.086
    3586      Si       1     SIL   Si0Li       1       2.1    28.086
    3587      Ob       1     SIL   O00hN       1     -1.05    15.999
    3588       O       1     SIL   O00hO       1    -0.525    15.999
    3589      Oh       1     SIL   O00hP       1     -0.95    15.999
    3590      Oh       1     SIL   O00hQ       1     -0.95    15.999
    3591       O       1     SIL   O00hR       1    -0.525    15.999
    3592      Ob       1     SIL   O00hS       1     -1.05    15.999
    3593      Si       1     SIL   Si0Lk       1       2.1    28.086
    3594      Si       1     SIL   Si0Ll       1       2.1    28.086
    3595      Ob       1     SIL   O00hT       1     -1.05    15.999
    3596       O       1     SIL   O00hU       1    -0.525    15.999
    3597      Oh       1     SIL   O00hV       1     -0.95    15.999
    3598      Oh       1     SIL   O00hW       1     -0.95    15.999
    3599       O       1     SIL   O00hX       1    -0.525    15.999
    3600      Ob       1     SIL   O00hY       1     -1.05    15.999
    3601      Si       1     SIL   Si0Ln       1       2.1    28.086
    3602      Si       1     SIL   Si0Lo       1       2.1    28.086
    3603      Ob       1     SIL   O00hZ       1     -1.05    15.999
    3604       O       1     SIL   O00ha       1    -0.525    15.999
    3605      Oh       1     SIL   O00hb       1     -0.95    15.999
    3606      Oh       1     SIL   O00hc       1     -0.95    15.999
    3607       O       1     SIL   O00hd       1    -0.525    15.999
    3608      Ob       1     SIL   O00he       1     -1.05    15.999
    3609      Si       1     SIL   Si0Lq       1       2.1    28.086
    3610      Si       1     SIL   Si0Lr       1       2.1    28.086
    3611      Ob       1     SIL   O00hf       1     -1.05    15.999
    3612       O       1     SIL   O00hg       1    -0.525    15.999
    3613      Oh       1     SIL   O00hh       1     -0.95    15.999
    3614      Oh       1     SIL   O00hi       1     -0.95    15.999
    3615       O       1     SIL   O00hj       1    -0.525    15.999
    3616      Ob       1     SIL   O00hk       1     -1.05    15.999
    3617      Si       1     SIL   Si0Lt       1       2.1    28.086
    3618      Si       1     SIL   Si0Lu       1       2.1    28.086
    3619      Ob       1     SIL   O00hl       1     -1.05    15.999
    3620       O       1     SIL   O00hm       1    -0.525    15.999
    3621      Oh       1     SIL   O00hn       1     -0.95    15.999
    3622      Oh       1     SIL   O00ho       1     -0.95    15.999
    3623       O       1     SIL   O00hp       1    -0.525    15.999
    3624      Ob       1     SIL   O00hq       1     -1.05    15.999
    3625      Si       1     SIL   Si0Lw       1       2.1    28.086
    3626      Si       1     SIL   Si0Lx       1       2.1    28.086
    3627      Ob       1     SIL   O00hr       1     -1.05    15.999
    3628       O       1     SIL   O00hs       1    -0.525    15.999
    3629      Oh       1     SIL   O00ht       1     -0.95    15.999
    3630      Oh       1     SIL   O00hu       1     -0.95    15.999
    3631       O       1     SIL   O00hv       1    -0.525    15.999
    3632      Ob       1     SIL   O00hw       1     -1.05    15.999
    3633      Si       1     SIL   Si0Lz       1       2.1    28.086
    3634      Si       1     SIL   Si0M0       1       2.1    28.086
    3635      Ob       1     SIL   O00hx       1     -1.05    15.999
    3636       O       1     SIL   O00hy       1    -0.525    15.999
    3637      Oh       1     SIL   O00hz       1     -0.95    15.999
    3638      Oh       1     SIL   O00i0       1     -0.95    15.999
    3639       O       1     SIL   O00i1       1    -0.525    15.999
    3640      Ob       1     SIL   O00i2       1     -1.05    15.999
    3641      Si       1     SIL   Si0M2       1       2.1    28.086
    3642      Si       1     SIL   Si0M3       1       2.1    28.086
    3643      Ob       1     SIL   O00i3       1     -1.05    15.999
    3644       O       1     SIL   O00i4       1    -0.525    15.999
    3645      Oh       1     SIL   O00i5       1     -0.95    15.999
    3646      Oh       1     SIL   O00i6       1     -0.95    15.999
    3647       O       1     SIL   O00i7       1    -0.525    15.999
    3648      Ob       1     SIL   O00i8       1     -1.05    15.999
    3649      Si       1     SIL   Si0M5       1       2.1    28.086
    3650      Si       1     SIL   Si0M6       1       2.1    28.086
    3651      Ob       1     SIL   O00i9       1     -1.05    15.999
    3652       O       1     SIL   O00iA       1    -0.525    15.999
    3653      Oh       1     SIL   O00iB       1     -0.95    15.999
    3654      Oh       1     SIL   O00iC       1     -0.95    15.999
    3655       O       1     SIL   O00iD       1    -0.525    15.999
    3656      Ob       1     SIL   O00iE       1     -1.05    15.999
    3657      Si       1     SIL   Si0M8       1       2.1    28.086
    3658      Si       1     SIL   Si0M9       1       2.1    28.086
    3659      Ob       1     SIL   O00iF       1     -1.05    15.999
    3660       O       1     SIL   O00iG       1    -0.525    15.999
    3661      Oh       1     SIL   O00iH       1     -0.95    15.999
    3662      Oh       1     SIL   O00iI       1     -0.95    15.999
    3663       O       1     SIL   O00iJ       1    -0.525    15.999
    3664      Ob       1     SIL   O00iK       1     -1.05    15.999
    3665      Si       1     SIL   Si0MB       1       2.1    28.086
    3666      Si       1     SIL   Si0MC       1       2.1    28.086
    3667      Ob       1     SIL   O00iL       1     -1.05    15.999
    3668       O       1     SIL   O00iM       1    -0.525    15.999
    3669      Oh       1     SIL   O00iN       1     -0.95    15.999
    3670      Oh       1     SIL   O00iO       1     -0.95    15.999
    3671       O       1     SIL   O00iP       1    -0.525    15.999
    3672      Ob       1     SIL   O00iQ       1     -1.05    15.999
    3673      Si       1     SIL   Si0ME       1       2.1    28.086
    3674      Si       1     SIL   Si0MF       1       2.1    28.086
    3675      Ob       1     SIL   O00iR       1     -1.05    15.999
    3676       O       1     SIL   O00iS       1    -0.525    15.999
    3677      Oh       1     SIL   O00iT       1     -0.95    15.999
    3678      Oh       1     SIL   O00iU       1     -0.95    15.999
    3679       O       1     SIL   O00iV       1    -0.525    15.999
    3680      Ob       1     SIL   O00iW       1     -1.05    15.999
    3681      Si       1     SIL   Si0MH       1       2.1    28.086
    3682      Si       1     SIL   Si0MI       1       2.1    28.086
    3683      Si       1     SIL   Si0MJ       1       2.1    28.086
    3684      Ob       1     SIL   O00iX       1     -1.05    15.999
    3685      Ob       1     SIL   O00iY       1     -1.05    15.999
    3686      Ob       1     SIL   O00iZ       1     -1.05    15.999
    3687      Ob       1     SIL   O00ia       1     -1.05    15.999
    3688      Ob       1     SIL   O00ib       1     -1.05    15.999
    3689      Ob       1     SIL   O00ic       1     -1.05    15.999
    3690      Si       1     SIL   Si0MK       1       2.1    28.086
    3691      Si       1     SIL   Si0ML       1       2.1    28.086
    3692      Si       1     SIL   Si0MM       1       2.1    28.086
    3693      Ob       1     SIL   O00id       1     -1.05    15.999
    3694      Ob       1     SIL   O00ie       1     -1.05    15.999
    3695      Ob       1     SIL   O00if       1     -1.05    15.999
    3696      Ob       1     SIL   O00ig       1     -1.05    15.999
    3697      Ob       1     SIL   O00ih       1     -1.05    15.999
    3698      Ob       1     SIL   O00ii       1     -1.05    15.999
    3699      Si       1     SIL   Si0MN       1       2.1    28.086
    3700      Si       1     SIL   Si0MO       1       2.1    28.086
    3701      Si       1     SIL   Si0MP       1       2.1    28.086
    3702      Ob       1     SIL   O00ij       1     -1.05    15.999
    3703      Ob       1     SIL   O00ik       1     -1.05    15.999
    3704      Ob       1     SIL   O00il       1     -1.05    15.999
    3705      Ob       1     SIL   O00im       1     -1.05    15.999
    3706      Ob       1     SIL   O00in       1     -1.05    15.999
    3707      Ob       1     SIL   O00io       1     -1.05    15.999
    3708      Si       1     SIL   Si0MQ       1       2.1    28.086
    3709      Si       1     SIL   Si0MR       1       2.1    28.086
    3710      Si       1     SIL   Si0MS       1       2.1    28.086
    3711      Ob       1     SIL   O00ip       1     -1.05    15.999
    3712      Ob       1     SIL   O00iq       1     -1.05    15.999
    3713      Ob       1     SIL   O00ir       1     -1.05    15.999
    3714      Ob       1     SIL   O00is       1     -1.05    15.999
    3715      Ob       1     SIL   O00it       1     -1.05    15.999
    3716      Ob       1     SIL   O00iu       1     -1.05    15.999
    3717      Si       1     SIL   Si0MT       1       2.1    28.086
    3718      Si       1     SIL   Si0MU       1       2.1    28.086
    3719      Si       1     SIL   Si0MV       1       2.1    28.086
    3720      Ob       1     SIL   O00iv       1     -1.05    15.999
    3721      Ob       1     SIL   O00iw       1     -1.05    15.999
    3722      Ob       1     SIL   O00ix       1     -1.05    15.999
    3723      Ob       1     SIL   O00iy       1     -1.05    15.999
    3724      Ob       1     SIL   O00iz       1     -1.05    15.999
    3725      Ob       1     SIL   O00j0       1     -1.05    15.999
    3726      Si       1     SIL   Si0MW       1       2.1    28.086
    3727      Si       1     SIL   Si0MX       1       2.1    28.086
    3728      Si       1     SIL   Si0MY       1       2.1    28.086
    3729      Ob       1     SIL   O00j1       1     -1.05    15.999
    3730      Ob       1     SIL   O00j2       1     -1.05    15.999
    3731      Ob       1     SIL   O00j3       1     -1.05    15.999
    3732      Ob       1     SIL   O00j4       1     -1.05    15.999
    3733      Ob       1     SIL   O00j5       1     -1.05    15.999
    3734      Ob       1     SIL   O00j6       1     -1.05    15.999
    3735      Si       1     SIL   Si0MZ       1       2.1    28.086
    3736      Si       1     SIL   Si0Ma       1       2.1    28.086
    3737      Si       1     SIL   Si0Mb       1       2.1    28.086
    3738      Ob       1     SIL   O00j7       1     -1.05    15.999
    3739      Ob       1     SIL   O00j8       1     -1.05    15.999
    3740      Ob       1     SIL   O00j9       1     -1.05    15.999
    3741      Ob       1     SIL   O00jA       1     -1.05    15.999
    3742      Ob       1     SIL   O00jB       1     -1.05    15.999
    3743      Ob       1     SIL   O00jC       1     -1.05    15.999
    3744      Si       1     SIL   Si0Mc       1       2.1    28.086
    3745      Si       1     SIL   Si0Md       1       2.1    28.086
    3746      Si       1     SIL   Si0Me       1       2.1    28.086
    3747      Ob       1     SIL   O00jD       1     -1.05    15.999
    3748      Ob       1     SIL   O00jE       1     -1.05    15.999
    3749      Ob       1     SIL   O00jF       1     -1.05    15.999
    3750      Ob       1     SIL   O00jG       1     -1.05    15.999
    3751      Ob       1     SIL   O00jH       1     -1.05    15.999
    3752      Ob       1     SIL   O00jI       1     -1.05    15.999
    3753      Si       1     SIL   Si0Mf       1       2.1    28.086
    3754      Si       1     SIL   Si0Mg       1       2.1    28.086
    3755      Si       1     SIL   Si0Mh       1       2.1    28.086
    3756      Ob       1     SIL   O00jJ       1     -1.05    15.999
    3757      Ob       1     SIL   O00jK       1     -1.05    15.999
    3758      Ob       1     SIL   O00jL       1     -1.05    15.999
    3759      Ob       1     SIL   O00jM       1     -1.05    15.999
    3760      Ob       1     SIL   O00jN       1     -1.05    15.999
    3761      Ob       1     SIL   O00jO       1     -1.05    15.999
    3762      Si       1     SIL   Si0Mi       1       2.1    28.086
    3763      Si       1     SIL   Si0Mj       1       2.1    28.086
    3764      Si       1     SIL   Si0Mk       1       2.1    28.086
    3765      Ob       1     SIL   O00jP       1     -1.05    15.999
    3766      Ob       1     SIL   O00jQ       1     -1.05    15.999
    3767      Ob       1     SIL   O00jR       1     -1.05    15.999
    3768      Ob       1     SIL   O00jS       1     -1.05    15.999
    3769      Ob       1     SIL   O00jT       1     -1.05    15.999
    3770      Ob       1     SIL   O00jU       1     -1.05    15.999
    3771      Si       1     SIL   Si0Ml       1       2.1    28.086
    3772      Si       1     SIL   Si0Mm       1       2.1    28.086
    3773      Si       1     SIL   Si0Mn       1       2.1    28.086
    3774      Ob       1     SIL   O00jV       1     -1.05    15.999
    3775      Ob       1     SIL   O00jW       1     -1.05    15.999
    3776      Ob       1     SIL   O00jX       1     -1.05    15.999
    3777      Ob       1     SIL   O00jY       1     -1.05    15.999
    3778      Ob       1     SIL   O00jZ       1     -1.05    15.999
    3779      Ob       1     SIL   O00ja       1     -1.05    15.999
    3780      Si       1     SIL   Si0Mo       1       2.1    28.086
    3781      Si       1     SIL   Si0Mp       1       2.1    28.086
    3782      Si       1     SIL   Si0Mq       1       2.1    28.086
    3783      Ob       1     SIL   O00jb       1     -1.05    15.999
    3784      Ob       1     SIL   O00jc       1     -1.05    15.999
    3785      Ob       1     SIL   O00jd       1     -1.05    15.999
    3786      Ob       1     SIL   O00je       1     -1.05    15.999
    3787      Ob       1     SIL   O00jf       1     -1.05    15.999
    3788      Ob       1     SIL   O00jg       1     -1.05    15.999
    3789      Si       1     SIL   Si0Mr       1       2.1    28.086
    3790      Si       1     SIL   Si0Ms       1       2.1    28.086
    3791      Si       1     SIL   Si0Mt       1       2.1    28.086
    3792      Ob       1     SIL   O00jh       1     -1.05    15.999
    3793      Ob       1     SIL   O00ji       1     -1.05    15.999
    3794      Ob       1     SIL   O00jj       1     -1.05    15.999
    3795      Ob       1     SIL   O00jk       1     -1.05    15.999
    3796      Ob       1     SIL   O00jl       1     -1.05    15.999
    3797      Ob       1     SIL   O00jm       1     -1.05    15.999
    3798      Si       1     SIL   Si0Mu       1       2.1    28.086
    3799      Si       1     SIL   Si0Mv       1       2.1    28.086
    3800      Si       1     SIL   Si0Mw       1       2.1    28.086
    3801      Ob       1     SIL   O00jn       1     -1.05    15.999
    3802      Ob       1     SIL   O00jo       1     -1.05    15.999
    3803      Ob       1     SIL   O00jp       1     -1.05    15.999
    3804      Ob       1     SIL   O00jq       1     -1.05    15.999
    3805      Ob       1     SIL   O00jr       1     -1.05    15.999
    3806      Ob       1     SIL   O00js       1     -1.05    15.999
    3807      Si       1     SIL   Si0Mx       1       2.1    28.086
    3808      Si       1     SIL   Si0My       1       2.1    28.086
    3809      Si       1     SIL   Si0Mz       1       2.1    28.086
    3810      Ob       1     SIL   O00jt       1     -1.05    15.999
    3811      Ob       1     SIL   O00ju       1     -1.05    15.999
    3812      Ob       1     SIL   O00jv       1     -1.05    15.999
    3813      Ob       1     SIL   O00jw       1     -1.05    15.999
    3814      Ob       1     SIL   O00jx       1     -1.05    15.999
    3815      Ob       1     SIL   O00jy       1     -1.05    15.999
    3816      Si       1     SIL   Si0N0       1       2.1    28.086
    3817      Si       1     SIL   Si0N1       1       2.1    28.086
    3818      Si       1     SIL   Si0N2       1       2.1    28.086
    3819      Ob       1     SIL   O00jz       1     -1.05    15.999
    3820      Ob       1     SIL   O00k0       1     -1.05    15.999
    3821      Ob       1     SIL   O00k1       1     -1.05    15.999
    3822      Ob       1     SIL   O00k2       1     -1.05    15.999
    3823      Ob       1     SIL   O00k3       1     -1.05    15.999
    3824      Ob       1     SIL   O00k4       1     -1.05    15.999
    3825      Si       1     SIL   Si0N3       1       2.1    28.086
    3826      Si       1     SIL   Si0N4       1       2.1    28.086
    3827      Si       1     SIL   Si0N5       1       2.1    28.086
    3828      Ob       1     SIL   O00k5       1     -1.05    15.999
    3829      Ob       1     SIL   O00k6       1     -1.05    15.999
    3830      Ob       1     SIL   O00k7       1     -1.05    15.999
    3831      Ob       1     SIL   O00k8       1     -1.05    15.999
    3832      Ob       1     SIL   O00k9       1     -1.05    15.999
    3833      Ob       1     SIL   O00kA       1     -1.05    15.999
    3834      Si       1     SIL   Si0N6       1       2.1    28.086
    3835      Si       1     SIL   Si0N7       1       2.1    28.086
    3836      Si       1     SIL   Si0N8       1       2.1    28.086
    3837      Ob       1     SIL   O00kB       1     -1.05    15.999
    3838      Ob       1     SIL   O00kC       1     -1.05    15.999
    3839      Ob       1     SIL   O00kD       1     -1.05    15.999
    3840      Ob       1     SIL   O00kE       1     -1.05    15.999
    3841      Ob       1     SIL   O00kF       1     -1.05    15.999
    3842      Ob       1     SIL   O00kG       1     -1.05    15.999
    3843      Si       1     SIL   Si0N9       1       2.1    28.086
    3844      Si       1     SIL   Si0NA       1       2.1    28.086
    3845      Si       1     SIL   Si0NB       1       2.1    28.086
    3846      Ob       1     SIL   O00kH       1     -1.05    15.999
    3847      Ob       1     SIL   O00kI       1     -1.05    15.999
    3848      Ob       1     SIL   O00kJ       1     -1.05    15.999
    3849      Ob       1     SIL   O00kK       1     -1.05    15.999
    3850      Ob       1     SIL   O00kL       1     -1.05    15.999
    3851      Ob       1     SIL   O00kM       1     -1.05    15.999
    3852      Si       1     SIL   Si0NC       1       2.1    28.086
    3853      Si       1     SIL   Si0ND       1       2.1    28.086
    3854      Si       1     SIL   Si0NE       1       2.1    28.086
    3855      Ob       1     SIL   O00kN       1     -1.05    15.999
    3856      Ob       1     SIL   O00kO       1     -1.05    15.999
    3857      Ob       1     SIL   O00kP       1     -1.05    15.999
    3858      Ob       1     SIL   O00kQ       1     -1.05    15.999
    3859      Ob       1     SIL   O00kR       1     -1.05    15.999
    3860      Ob       1     SIL   O00kS       1     -1.05    15.999
    3861      Si       1     SIL   Si0NF       1       2.1    28.086
    3862      Si       1     SIL   Si0NG       1       2.1    28.086
    3863      Si       1     SIL   Si0NH       1       2.1    28.086
    3864      Ob       1     SIL   O00kT       1     -1.05    15.999
    3865      Ob       1     SIL   O00kU       1     -1.05    15.999
    3866      Ob       1     SIL   O00kV       1     -1.05    15.999
    3867      Ob       1     SIL   O00kW       1     -1.05    15.999
    3868      Ob       1     SIL   O00kX       1     -1.05    15.999
    3869      Ob       1     SIL   O00kY       1     -1.05    15.999
    3870      Si       1     SIL   Si0NI       1       2.1    28.086
    3871      Si       1     SIL   Si0NJ       1       2.1    28.086
    3872      Si       1     SIL   Si0NK       1       2.1    28.086
    3873      Ob       1     SIL   O00kZ       1     -1.05    15.999
    3874      Ob       1     SIL   O00ka       1     -1.05    15.999
    3875      Ob       1     SIL   O00kb       1     -1.05    15.999
    3876      Ob       1     SIL   O00kc       1     -1.05    15.999
    3877      Ob       1     SIL   O00kd       1     -1.05    15.999
    3878      Ob       1     SIL   O00ke       1     -1.05    15.999
    3879      Si       1     SIL   Si0NL       1       2.1    28.086
    3880      Si       1     SIL   Si0NM       1       2.1    28.086
    3881      Si       1     SIL   Si0NN       1       2.1    28.086
    3882      Ob       1     SIL   O00kf       1     -1.05    15.999
    3883       O       1     SIL   O00kg       1    -0.525    15.999
    3884       O       1     SIL   O00kh       1    -0.525    15.999
    3885      Ob       1     SIL   O00ki       1     -1.05    15.999
    3886      Ob       1     SIL   O00kj       1     -1.05    15.999
    3887      Ob       1     SIL   O00kk       1     -1.05    15.999
    3888      Si       1     SIL   Si0NO       1       2.1    28.086
    3889      Si       1     SIL   Si0NP       1       2.1    28.086
    3890      Si       1     SIL   Si0NQ       1       2.1    28.086
    3891      Ob       1     SIL   O00kl       1     -1.05    15.999
    3892      Ob       1     SIL   O00km       1     -1.05    15.999
    3893      Ob       1     SIL   O00kn       1     -1.05    15.999
    3894      Ob       1     SIL   O00ko       1     -1.05    15.999
    3895      Ob       1     SIL   O00kp       1     -1.05    15.999
    3896      Ob       1     SIL   O00kq       1     -1.05    15.999
    3897      Si       1     SIL   Si0NR       1       2.1    28.086
    3898      Si       1     SIL   Si0NS       1       2.1    28.086
    3899      Si       1     SIL   Si0NT       1       2.1    28.086
    3900      Ob       1     SIL   O00kr       1     -1.05    15.999
    3901      Ob       1     SIL   O00ks       1     -1.05    15.999
    3902      Ob       1     SIL   O00kt       1     -1.05    15.999
    3903      Ob       1     SIL   O00ku       1     -1.05    15.999
    3904      Ob       1     SIL   O00kv       1     -1.05    15.999
    3905      Ob       1     SIL   O00kw       1     -1.05    15.999
    3906      Si       1     SIL   Si0NU       1       2.1    28.086
    3907      Si       1     SIL   Si0NV       1       2.1    28.086
    3908      Si       1     SIL   Si0NW       1       2.1    28.086
    3909      Ob       1     SIL   O00kx       1     -1.05    15.999
    3910      Ob       1     SIL   O00ky       1     -1.05    15.999
    3911      Ob       1     SIL   O00kz       1     -1.05    15.999
    3912      Ob       1     SIL   O00l0       1     -1.05    15.999
    3913      Ob       1     SIL   O00l1       1     -1.05    15.999
    3914      Ob       1     SIL   O00l2       1     -1.05    15.999
    3915      Si       1     SIL   Si0NX       1       2.1    28.086
    3916      Si       1     SIL   Si0NY       1       2.1    28.086
    3917      Si       1     SIL   Si0NZ       1       2.1    28.086
    3918      Ob       1     SIL   O00l3       1     -1.05    15.999
    3919      Ob       1     SIL   O00l4       1     -1.05    15.999
    3920      Ob       1     SIL   O00l5       1     -1.05    15.999
    3921      Ob       1     SIL   O00l6       1     -1.05    15.999
    3922      Ob       1     SIL   O00l7       1     -1.05    15.999
    3923      Ob       1     SIL   O00l8       1     -1.05    15.999
    3924      Si       1     SIL   Si0Na       1       2.1    28.086
    3925      Si       1     SIL   Si0Nb       1       2.1    28.086
    3926      Si       1     SIL   Si0Nc       1       2.1    28.086
    3927      Ob       1     SIL   O00l9       1     -1.05    15.999
    3928      Ob       1     SIL   O00lA       1     -1.05    15.999
    3929      Ob       1     SIL   O00lB       1     -1.05    15.999
    3930      Ob       1     SIL   O00lC       1     -1.05    15.999
    3931      Ob       1     SIL   O00lD       1     -1.05    15.999
    3932      Ob       1     SIL   O00lE       1     -1.05    15.999
    3933      Si       1     SIL   Si0Nd       1       2.1    28.086
    3934      Si       1     SIL   Si0Ne       1       2.1    28.086
    3935      Si       1     SIL   Si0Nf       1       2.1    28.086
    3936      Ob       1     SIL   O00lF       1     -1.05    15.999
    3937      Ob       1     SIL   O00lG       1     -1.05    15.999
    3938      Ob       1     SIL   O00lH       1     -1.05    15.999
    3939      Ob       1     SIL   O00lI       1     -1.05    15.999
    3940      Ob       1     SIL   O00lJ       1     -1.05    15.999
    3941      Ob       1     SIL   O00lK       1     -1.05    15.999
    3942      Si       1     SIL   Si0Ng       1       2.1    28.086
    3943      Si       1     SIL   Si0Nh       1       2.1    28.086
    3944      Si       1     SIL   Si0Ni       1       2.1    28.086
    3945      Ob       1     SIL   O00lL       1     -1.05    15.999
    3946      Ob       1     SIL   O00lM       1     -1.05    15.999
    3947      Ob       1     SIL   O00lN       1     -1.05    15.999
    3948      Ob       1     SIL   O00lO       1     -1.05    15.999
    3949      Ob       1     SIL   O00lP       1     -1.05    15.999
    3950      Ob       1     SIL   O00lQ       1     -1.05    15.999
    3951      Si       1     SIL   Si0Nj       1       2.1    28.086
    3952      Si       1     SIL   Si0Nk       1       2.1    28.086
    3953      Si       1     SIL   Si0Nl       1       2.1    28.086
    3954      Ob       1     SIL   O00lR       1     -1.05    15.999
    3955      Ob       1     SIL   O00lS       1     -1.05    15.999
    3956      Ob       1     SIL   O00lT       1     -1.05    15.999
    3957      Ob       1     SIL   O00lU       1     -1.05    15.999
    3958      Ob       1     SIL   O00lV       1     -1.05    15.999
    3959      Ob       1     SIL   O00lW       1     -1.05    15.999
    3960      Si       1     SIL   Si0Nm       1       2.1    28.086
    3961      Si       1     SIL   Si0Nn       1       2.1    28.086
    3962      Si       1     SIL   Si0No       1       2.1    28.086
    3963      Ob       1     SIL   O00lX       1     -1.05    15.999
    3964      Ob       1     SIL   O00lY       1     -1.05    15.999
    3965      Ob       1     SIL   O00lZ       1     -1.05    15.999
    3966      Ob       1     SIL   O00la       1     -1.05    15.999
    3967      Ob       1     SIL   O00lb       1     -1.05    15.999
    3968      Ob       1     SIL   O00lc       1     -1.05    15.999
    3969      Si       1     SIL   Si0Np       1       2.1    28.086
    3970      Si       1     SIL   Si0Nq       1       2.1    28.086
    3971      Si       1     SIL   Si0Nr       1       2.1    28.086
    3972      Ob       1     SIL   O00ld       1     -1.05    15.999
    3973      Ob       1     SIL   O00le       1     -1.05    15.999
    3974      Ob       1     SIL   O00lf       1     -1.05    15.999
    3975      Ob       1     SIL   O00lg       1     -1.05    15.999
    3976      Ob       1     SIL   O00lh       1     -1.05    15.999
    3977      Ob       1     SIL   O00li       1     -1.05    15.999
    3978      Si       1     SIL   Si0Ns       1       2.1    28.086
    3979      Si       1     SIL   Si0Nt       1       2.1    28.086
    3980      Si       1     SIL   Si0Nu       1       2.1    28.086
    3981      Ob       1     SIL   O00lj       1     -1.05    15.999
    3982      Ob       1     SIL   O00lk       1     -1.05    15.999
    3983      Ob       1     SIL   O00ll       1     -1.05    15.999
    3984      Ob       1     SIL   O00lm       1     -1.05    15.999
    3985      Ob       1     SIL   O00ln       1     -1.05    15.999
    3986      Ob       1     SIL   O00lo       1     -1.05    15.999
    3987      Si       1     SIL   Si0Nv       1       2.1    28.086
    3988      Si       1     SIL   Si0Nw       1       2.1    28.086
    3989      Si       1     SIL   Si0Nx       1       2.1    28.086
    3990      Ob       1     SIL   O00lp       1     -1.05    15.999
    3991      Ob       1     SIL   O00lq       1     -1.05    15.999
    3992      Ob       1     SIL   O00lr       1     -1.05    15.999
    3993      Ob       1     SIL   O00ls       1     -1.05    15.999
    3994      Ob       1     SIL   O00lt       1     -1.05    15.999
    3995      Ob       1     SIL   O00lu       1     -1.05    15.999
    3996      Si       1     SIL   Si0Ny       1       2.1    28.086
    3997      Si       1     SIL   Si0Nz       1       2.1    28.086
    3998      Si       1     SIL   Si0O0       1       2.1    28.086
    3999      Ob       1     SIL   O00lv       1     -1.05    15.999
    4000      Ob       1     SIL   O00lw       1     -1.05    15.999
    4001      Ob       1     SIL   O00lx       1     -1.05    15.999
    4002      Ob       1     SIL   O00ly       1     -1.05    15.999
    4003      Ob       1     SIL   O00lz       1     -1.05    15.999
    4004      Ob       1     SIL   O00m0       1     -1.05    15.999
    4005      Si       1     SIL   Si0O1       1       2.1    28.086
    4006      Si       1     SIL   Si0O2       1       2.1    28.086
    4007      Si       1     SIL   Si0O3       1       2.1    28.086
    4008      Ob       1     SIL   O00m1       1     -1.05    15.999
    4009      Ob       1     SIL   O00m2       1     -1.05    15.999
    4010      Ob       1     SIL   O00m3       1     -1.05    15.999
    4011      Ob       1     SIL   O00m4       1     -1.05    15.999
    4012      Ob       1     SIL   O00m5       1     -1.05    15.999
    4013      Ob       1     SIL   O00m6       1     -1.05    15.999
    4014      Si       1     SIL   Si0O4       1       2.1    28.086
    4015      Si       1     SIL   Si0O5       1       2.1    28.086
    4016      Si       1     SIL   Si0O6       1       2.1    28.086
    4017      Ob       1     SIL   O00m7       1     -1.05    15.999
    4018      Ob       1     SIL   O00m8       1     -1.05    15.999
    4019      Ob       1     SIL   O00m9       1     -1.05    15.999
    4020      Ob       1     SIL   O00mA       1     -1.05    15.999
    4021      Ob       1     SIL   O00mB       1     -1.05    15.999
    4022      Ob       1     SIL   O00mC       1     -1.05    15.999
    4023      Si       1     SIL   Si0O7       1       2.1    28.086
    4024      Si       1     SIL   Si0O8       1       2.1    28.086
    4025      Si       1     SIL   Si0O9       1       2.1    28.086
    4026      Ob       1     SIL   O00mD       1     -1.05    15.999
    4027      Ob       1     SIL   O00mE       1     -1.05    15.999
    4028      Ob       1     SIL   O00mF       1     -1.05    15.999
    4029      Ob       1     SIL   O00mG       1     -1.05    15.999
    4030      Ob       1     SIL   O00mH       1     -1.05    15.999
    4031      Ob       1     SIL   O00mI       1     -1.05    15.999
    4032      Si       1     SIL   Si0OA       1       2.1    28.086
    4033      Si       1     SIL   Si0OB       1       2.1    28.086
    4034      Si       1     SIL   Si0OC       1       2.1    28.086
    4035      Ob       1     SIL   O00mJ       1     -1.05    15.999
    4036      Ob       1     SIL   O00mK       1     -1.05    15.999
    4037      Ob       1     SIL   O00mL       1     -1.05    15.999
    4038      Ob       1     SIL   O00mM       1     -1.05    15.999
    4039      Ob       1     SIL   O00mN       1     -1.05    15.999
    4040      Ob       1     SIL   O00mO       1     -1.05    15.999
    4041      Si       1     SIL   Si0OD       1       2.1    28.086
    4042      Si       1     SIL   Si0OE       1       2.1    28.086
    4043      Si       1     SIL   Si0OF       1       2.1    28.086
    4044      Ob       1     SIL   O00mP       1     -1.05    15.999
    4045      Ob       1     SIL   O00mQ       1     -1.05    15.999
    4046      Ob       1     SIL   O00mR       1     -1.05    15.999
    4047      Ob       1     SIL   O00mS       1     -1.05    15.999
    4048      Ob       1     SIL   O00mT       1     -1.05    15.999
    4049      Ob       1     SIL   O00mU       1     -1.05    15.999
    4050      Si       1     SIL   Si0OG       1       2.1    28.086
    4051      Si       1     SIL   Si0OH       1       2.1    28.086
    4052      Si       1     SIL   Si0OI       1       2.1    28.086
    4053      Ob       1     SIL   O00mV       1     -1.05    15.999
    4054      Ob       1     SIL   O00mW       1     -1.05    15.999
    4055      Ob       1     SIL   O00mX       1     -1.05    15.999
    4056      Ob       1     SIL   O00mY       1     -1.05    15.999
    4057      Ob       1     SIL   O00mZ       1     -1.05    15.999
    4058      Ob       1     SIL   O00ma       1     -1.05    15.999
    4059      Si       1     SIL   Si0OJ       1       2.1    28.086
    4060      Si       1     SIL   Si0OK       1       2.1    28.086
    4061      Si       1     SIL   Si0OL       1       2.1    28.086
    4062      Ob       1     SIL   O00mb       1     -1.05    15.999
    4063      Ob       1     SIL   O00mc       1     -1.05    15.999
    4064      Ob       1     SIL   O00md       1     -1.05    15.999
    4065      Ob       1     SIL   O00me       1     -1.05    15.999
    4066      Ob       1     SIL   O00mf       1     -1.05    15.999
    4067      Ob       1     SIL   O00mg       1     -1.05    15.999
    4068      Si       1     SIL   Si0OM       1       2.1    28.086
    4069      Si       1     SIL   Si0ON       1       2.1    28.086
    4070      Si       1     SIL   Si0OO       1       2.1    28.086
    4071      Ob       1     SIL   O00mh       1     -1.05    15.999
    4072      Ob       1     SIL   O00mi       1     -1.05    15.999
    4073      Ob       1     SIL   O00mj       1     -1.05    15.999
    4074      Ob       1     SIL   O00mk       1     -1.05    15.999
    4075      Ob       1     SIL   O00ml       1     -1.05    15.999
    4076      Ob       1     SIL   O00mm       1     -1.05    15.999
    4077      Si       1     SIL   Si0OP       1       2.1    28.086
    4078      Si       1     SIL   Si0OQ       1       2.1    28.086
    4079      Si       1     SIL   Si0OR       1       2.1    28.086
    4080      Ob       1     SIL   O00mn       1     -1.05    15.999
    4081      Ob       1     SIL   O00mo       1     -1.05    15.999
    4082      Ob       1     SIL   O00mp       1     -1.05    15.999
    4083      Ob       1     SIL   O00mq       1     -1.05    15.999
    4084      Ob       1     SIL   O00mr       1     -1.05    15.999
    4085      Ob       1     SIL   O00ms       1     -1.05    15.999
    4086      Si       1     SIL   Si0OS       1       2.1    28.086
    4087      Si       1     SIL   Si0OT       1       2.1    28.086
    4088      Si       1     SIL   Si0OU       1       2.1    28.086
    4089      Ob       1     SIL   O00mt       1     -1.05    15.999
    4090       O       1     SIL   O00mu       1    -0.525    15.999
    4091       O       1     SIL   O00mv       1    -0.525    15.999
    4092      Ob       1     SIL   O00mw       1     -1.05    15.999
    4093      Ob       1     SIL   O00mx       1     -1.05    15.999
    4094      Ob       1     SIL   O00my       1     -1.05    15.999
    4095      Si       1     SIL   Si0OV       1       2.1    28.086
    4096      Si       1     SIL   Si0OW       1       2.1    28.086
    4097      Si       1     SIL   Si0OX       1       2.1    28.086
    4098      Ob       1     SIL   O00mz       1     -1.05    15.999
    4099      Ob       1     SIL   O00n0       1     -1.05    15.999
    4100      Ob       1     SIL   O00n1       1     -1.05    15.999
    4101      Ob       1     SIL   O00n2       1     -1.05    15.999
    4102      Ob       1     SIL   O00n3       1     -1.05    15.999
    4103      Ob       1     SIL   O00n4       1     -1.05    15.999
    4104      Si       1     SIL   Si0OY       1       2.1    28.086
    4105      Si       1     SIL   Si0OZ       1       2.1    28.086
    4106      Si       1     SIL   Si0Oa       1       2.1    28.086
    4107      Ob       1     SIL   O00n5       1     -1.05    15.999
    4108      Ob       1     SIL   O00n6       1     -1.05    15.999
    4109      Ob       1     SIL   O00n7       1     -1.05    15.999
    4110      Ob       1     SIL   O00n8       1     -1.05    15.999
    4111      Ob       1     SIL   O00n9       1     -1.05    15.999
    4112      Ob       1     SIL   O00nA       1     -1.05    15.999
    4113      Si       1     SIL   Si0Ob       1       2.1    28.086
    4114      Si       1     SIL   Si0Oc       1       2.1    28.086
    4115      Si       1     SIL   Si0Od       1       2.1    28.086
    4116      Ob       1     SIL   O00nB       1     -1.05    15.999
    4117      Ob       1     SIL   O00nC       1     -1.05    15.999
    4118      Ob       1     SIL   O00nD       1     -1.05    15.999
    4119      Ob       1     SIL   O00nE       1     -1.05    15.999
    4120      Ob       1     SIL   O00nF       1     -1.05    15.999
    4121      Ob       1     SIL   O00nG       1     -1.05    15.999
    4122      Si       1     SIL   Si0Oe       1       2.1    28.086
    4123      Si       1     SIL   Si0Of       1       2.1    28.086
    4124      Si       1     SIL   Si0Og       1       2.1    28.086
    4125      Ob       1     SIL   O00nH       1     -1.05    15.999
    4126      Ob       1     SIL   O00nI       1     -1.05    15.999
    4127      Ob       1     SIL   O00nJ       1     -1.05    15.999
    4128      Ob       1     SIL   O00nK       1     -1.05    15.999
    4129      Ob       1     SIL   O00nL       1     -1.05    15.999
    4130      Ob       1     SIL   O00nM       1     -1.05    15.999
    4131      Si       1     SIL   Si0Oh       1       2.1    28.086
    4132      Si       1     SIL   Si0Oi       1       2.1    28.086
    4133      Si       1     SIL   Si0Oj       1       2.1    28.086
    4134      Ob       1     SIL   O00nN       1     -1.05    15.999
    4135      Ob       1     SIL   O00nO       1     -1.05    15.999
    4136      Ob       1     SIL   O00nP       1     -1.05    15.999
    4137      Ob       1     SIL   O00nQ       1     -1.05    15.999
    4138      Ob       1     SIL   O00nR       1     -1.05    15.999
    4139      Ob       1     SIL   O00nS       1     -1.05    15.999
    4140      Si       1     SIL   Si0Ok       1       2.1    28.086
    4141      Si       1     SIL   Si0Ol       1       2.1    28.086
    4142      Si       1     SIL   Si0Om       1       2.1    28.086
    4143      Ob       1     SIL   O00nT       1     -1.05    15.999
    4144      Ob       1     SIL   O00nU       1     -1.05    15.999
    4145      Ob       1     SIL   O00nV       1     -1.05    15.999
    4146      Ob       1     SIL   O00nW       1     -1.05    15.999
    4147      Ob       1     SIL   O00nX       1     -1.05    15.999
    4148      Ob       1     SIL   O00nY       1     -1.05    15.999
    4149      Si       1     SIL   Si0On       1       2.1    28.086
    4150      Si       1     SIL   Si0Oo       1       2.1    28.086
    4151      Si       1     SIL   Si0Op       1       2.1    28.086
    4152      Ob       1     SIL   O00nZ       1     -1.05    15.999
    4153      Ob       1     SIL   O00na       1     -1.05    15.999
    4154      Ob       1     SIL   O00nb       1     -1.05    15.999
    4155      Ob       1     SIL   O00nc       1     -1.05    15.999
    4156      Ob       1     SIL   O00nd       1     -1.05    15.999
    4157      Ob       1     SIL   O00ne       1     -1.05    15.999
    4158      Si       1     SIL   Si0Oq       1       2.1    28.086
    4159      Si       1     SIL   Si0Or       1       2.1    28.086
    4160      Si       1     SIL   Si0Os       1       2.1    28.086
    4161      Ob       1     SIL   O00nf       1     -1.05    15.999
    4162      Ob       1     SIL   O00ng       1     -1.05    15.999
    4163      Ob       1     SIL   O00nh       1     -1.05    15.999
    4164      Ob       1     SIL   O00ni       1     -1.05    15.999
    4165      Ob       1     SIL   O00nj       1     -1.05    15.999
    4166      Ob       1     SIL   O00nk       1     -1.05    15.999
    4167      Si       1     SIL   Si0Ot       1       2.1    28.086
    4168      Si       1     SIL   Si0Ou       1       2.1    28.086
    4169      Si       1     SIL   Si0Ov       1       2.1    28.086
    4170      Ob       1     SIL   O00nl       1     -1.05    15.999
    4171      Ob       1     SIL   O00nm       1     -1.05    15.999
    4172      Ob       1     SIL   O00nn       1     -1.05    15.999
    4173      Ob       1     SIL   O00no       1     -1.05    15.999
    4174      Ob       1     SIL   O00np       1     -1.05    15.999
    4175      Ob       1     SIL   O00nq       1     -1.05    15.999
    4176      Si       1     SIL   Si0Ow       1       2.1    28.086
    4177      Si       1     SIL   Si0Ox       1       2.1    28.086
    4178      Si       1     SIL   Si0Oy       1       2.1    28.086
    4179      Ob       1     SIL   O00nr       1     -1.05    15.999
    4180      Ob       1     SIL   O00ns       1     -1.05    15.999
    4181      Ob       1     SIL   O00nt       1     -1.05    15.999
    4182      Ob       1     SIL   O00nu       1     -1.05    15.999
    4183      Ob       1     SIL   O00nv       1     -1.05    15.999
    4184      Ob       1     SIL   O00nw       1     -1.05    15.999
    4185      Si       1     SIL   Si0Oz       1       2.1    28.086
    4186      Si       1     SIL   Si0P0       1       2.1    28.086
    4187      Si       1     SIL   Si0P1       1       2.1    28.086
    4188      Ob       1     SIL   O00nx       1     -1.05    15.999
    4189      Ob       1     SIL   O00ny       1     -1.05    15.999
    4190      Ob       1     SIL   O00nz       1     -1.05    15.999
    4191      Ob       1     SIL   O00o0       1     -1.05    15.999
    4192      Ob       1     SIL   O00o1       1     -1.05    15.999
    4193      Ob       1     SIL   O00o2       1     -1.05    15.999
    4194      Si       1     SIL   Si0P2       1       2.1    28.086
    4195      Si       1     SIL   Si0P3       1       2.1    28.086
    4196      Si       1     SIL   Si0P4       1       2.1    28.086
    4197      Ob       1     SIL   O00o3       1     -1.05    15.999
    4198      Ob       1     SIL   O00o4       1     -1.05    15.999
    4199      Ob       1     SIL   O00o5       1     -1.05    15.999
    4200      Ob       1     SIL   O00o6       1     -1.05    15.999
    4201      Ob       1     SIL   O00o7       1     -1.05    15.999
    4202      Ob       1     SIL   O00o8       1     -1.05    15.999
    4203      Si       1     SIL   Si0P5       1       2.1    28.086
    4204      Si       1     SIL   Si0P6       1       2.1    28.086
    4205      Si       1     SIL   Si0P7       1       2.1    28.086
    4206      Ob       1     SIL   O00o9       1     -1.05    15.999
    4207      Ob       1     SIL   O00oA       1     -1.05    15.999
    4208      Ob       1     SIL   O00oB       1     -1.05    15.999
    4209      Ob       1     SIL   O00oC       1     -1.05    15.999
    4210      Ob       1     SIL   O00oD       1     -1.05    15.999
    4211      Ob       1     SIL   O00oE       1     -1.05    15.999
    4212      Si       1     SIL   Si0P8       1       2.1    28.086
    4213      Si       1     SIL   Si0P9       1       2.1    28.086
    4214      Si       1     SIL   Si0PA       1       2.1    28.086
    4215      Ob       1     SIL   O00oF       1     -1.05    15.999
    4216      Ob       1     SIL   O00oG       1     -1.05    15.999
    4217      Ob       1     SIL   O00oH       1     -1.05    15.999
    4218      Ob       1     SIL   O00oI       1     -1.05    15.999
    4219      Ob       1     SIL   O00oJ       1     -1.05    15.999
    4220      Ob       1     SIL   O00oK       1     -1.05    15.999
    4221      Si       1     SIL   Si0PB       1       2.1    28.086
    4222      Si       1     SIL   Si0PC       1       2.1    28.086
    4223      Si       1     SIL   Si0PD       1       2.1    28.086
    4224      Ob       1     SIL   O00oL       1     -1.05    15.999
    4225      Ob       1     SIL   O00oM       1     -1.05    15.999
    4226      Ob       1     SIL   O00oN       1     -1.05    15.999
    4227      Ob       1     SIL   O00oO       1     -1.05    15.999
    4228      Ob       1     SIL   O00oP       1     -1.05    15.999
    4229      Ob       1     SIL   O00oQ       1     -1.05    15.999
    4230      Si       1     SIL   Si0PE       1       2.1    28.086
    4231      Si       1     SIL   Si0PF       1       2.1    28.086
    4232      Si       1     SIL   Si0PG       1       2.1    28.086
    4233      Ob       1     SIL   O00oR       1     -1.05    15.999
    4234      Ob       1     SIL   O00oS       1     -1.05    15.999
    4235      Ob       1     SIL   O00oT       1     -1.05    15.999
    4236      Ob       1     SIL   O00oU       1     -1.05    15.999
    4237      Ob       1     SIL   O00oV       1     -1.05    15.999
    4238      Ob       1     SIL   O00oW       1     -1.05    15.999
    4239      Si       1     SIL   Si0PH       1       2.1    28.086
    4240      Si       1     SIL   Si0PI       1       2.1    28.086
    4241      Si       1     SIL   Si0PJ       1       2.1    28.086
    4242      Ob       1     SIL   O00oX       1     -1.05    15.999
    4243      Ob       1     SIL   O00oY       1     -1.05    15.999
    4244      Ob       1     SIL   O00oZ       1     -1.05    15.999
    4245      Ob       1     SIL   O00oa       1     -1.05    15.999
    4246      Ob       1     SIL   O00ob       1     -1.05    15.999
    4247      Ob       1     SIL   O00oc       1     -1.05    15.999
    4248      Si       1     SIL   Si0PK       1       2.1    28.086
    4249      Si       1     SIL   Si0PL       1       2.1    28.086
    4250      Si       1     SIL   Si0PM       1       2.1    28.086
    4251      Ob       1     SIL   O00od       1     -1.05    15.999
    4252      Ob       1     SIL   O00oe       1     -1.05    15.999
    4253      Ob       1     SIL   O00of       1     -1.05    15.999
    4254      Ob       1     SIL   O00og       1     -1.05    15.999
    4255      Ob       1     SIL   O00oh       1     -1.05    15.999
    4256      Ob       1     SIL   O00oi       1     -1.05    15.999
    4257      Si       1     SIL   Si0PN       1       2.1    28.086
    4258      Si       1     SIL   Si0PO       1       2.1    28.086
    4259      Si       1     SIL   Si0PP       1       2.1    28.086
    4260      Ob       1     SIL   O00oj       1     -1.05    15.999
    4261      Ob       1     SIL   O00ok       1     -1.05    15.999
    4262      Ob       1     SIL   O00ol       1     -1.05    15.999
    4263      Ob       1     SIL   O00om       1     -1.05    15.999
    4264      Ob       1     SIL   O00on       1     -1.05    15.999
    4265      Ob       1     SIL   O00oo       1     -1.05    15.999
    4266      Si       1     SIL   Si0PQ       1       2.1    28.086
    4267      Si       1     SIL   Si0PR       1       2.1    28.086
    4268      Si       1     SIL   Si0PS       1       2.1    28.086
    4269      Ob       1     SIL   O00op       1     -1.05    15.999
    4270      Ob       1     SIL   O00oq       1     -1.05    15.999
    4271      Ob       1     SIL   O00or       1     -1.05    15.999
    4272      Ob       1     SIL   O00os       1     -1.05    15.999
    4273      Ob       1     SIL   O00ot       1     -1.05    15.999
    4274      Ob       1     SIL   O00ou       1     -1.05    15.999
    4275      Si       1     SIL   Si0PT       1       2.1    28.086
    4276      Si       1     SIL   Si0PU       1       2.1    28.086
    4277      Si       1     SIL   Si0PV       1       2.1    28.086
    4278      Ob       1     SIL   O00ov       1     -1.05    15.999
    4279      Ob       1     SIL   O00ow       1     -1.05    15.999
    4280      Ob       1     SIL   O00ox       1     -1.05    15.999
    4281      Ob       1     SIL   O00oy       1     -1.05    15.999
    4282      Ob       1     SIL   O00oz       1     -1.05    15.999
    4283      Ob       1     SIL   O00p0       1     -1.05    15.999
    4284      Si       1     SIL   Si0PW       1       2.1    28.086
    4285      Si       1     SIL   Si0PX       1       2.1    28.086
    4286      Si       1     SIL   Si0PY       1       2.1    28.086
    4287      Ob       1     SIL   O00p1       1     -1.05    15.999
    4288      Ob       1     SIL   O00p2       1     -1.05    15.999
    4289      Ob       1     SIL   O00p3       1     -1.05    15.999
    4290      Ob       1     SIL   O00p4       1     -1.05    15.999
    4291      Ob       1     SIL   O00p5       1     -1.05    15.999
    4292      Ob       1     SIL   O00p6       1     -1.05    15.999
    4293      Si       1     SIL   Si0PZ       1       2.1    28.086
    4294      Si       1     SIL   Si0Pa       1       2.1    28.086
    4295      Si       1     SIL   Si0Pb       1       2.1    28.086
    4296      Ob       1     SIL   O00p7       1     -1.05    15.999
    4297       O       1     SIL   O00p8       1    -0.525    15.999
    4298       O       1     SIL   O00p9       1    -0.525    15.999
    4299      Ob       1     SIL   O00pA       1     -1.05    15.999
    4300      Ob       1     SIL   O00pB       1     -1.05    15.999
    4301      Ob       1     SIL   O00pC       1     -1.05    15.999
    4302      Si       1     SIL   Si0Pc       1       2.1    28.086
    4303      Si       1     SIL   Si0Pd       1       2.1    28.086
    4304      Si       1     SIL   Si0Pe       1       2.1    28.086
    4305      Ob       1     SIL   O00pD       1     -1.05    15.999
    4306      Ob       1     SIL   O00pE       1     -1.05    15.999
    4307      Ob       1     SIL   O00pF       1     -1.05    15.999
    4308      Ob       1     SIL   O00pG       1     -1.05    15.999
    4309      Ob       1     SIL   O00pH       1     -1.05    15.999
    4310      Ob       1     SIL   O00pI       1     -1.05    15.999
    4311      Si       1     SIL   Si0Pf       1       2.1    28.086
    4312      Si       1     SIL   Si0Pg       1       2.1    28.086
    4313      Si       1     SIL   Si0Ph       1       2.1    28.086
    4314      Ob       1     SIL   O00pJ       1     -1.05    15.999
    4315      Ob       1     SIL   O00pK       1     -1.05    15.999
    4316      Ob       1     SIL   O00pL       1     -1.05    15.999
    4317      Ob       1     SIL   O00pM       1     -1.05    15.999
    4318      Ob       1     SIL   O00pN       1     -1.05    15.999
    4319      Ob       1     SIL   O00pO       1     -1.05    15.999
    4320      Si       1     SIL   Si0Pi       1       2.1    28.086
    4321      Si       1     SIL   Si0Pj       1       2.1    28.086
    4322      Si       1     SIL   Si0Pk       1       2.1    28.086
    4323      Ob       1     SIL   O00pP       1     -1.05    15.999
    4324      Ob       1     SIL   O00pQ       1     -1.05    15.999
    4325      Ob       1     SIL   O00pR       1     -1.05    15.999
    4326      Ob       1     SIL   O00pS       1     -1.05    15.999
    4327      Ob       1     SIL   O00pT       1     -1.05    15.999
    4328      Ob       1     SIL   O00pU       1     -1.05    15.999
    4329      Si       1     SIL   Si0Pl       1       2.1    28.086
    4330      Si       1     SIL   Si0Pm       1       2.1    28.086
    4331      Si       1     SIL   Si0Pn       1       2.1    28.086
    4332      Ob       1     SIL   O00pV       1     -1.05    15.999
    4333      Ob       1     SIL   O00pW       1     -1.05    15.999
    4334      Ob       1     SIL   O00pX       1     -1.05    15.999
    4335      Ob       1     SIL   O00pY       1     -1.05    15.999
    4336      Ob       1     SIL   O00pZ       1     -1.05    15.999
    4337      Ob       1     SIL   O00pa       1     -1.05    15.999
    4338      Si       1     SIL   Si0Po       1       2.1    28.086
    4339      Si       1     SIL   Si0Pp       1       2.1    28.086
    4340      Si       1     SIL   Si0Pq       1       2.1    28.086
    4341      Ob       1     SIL   O00pb       1     -1.05    15.999
    4342      Ob       1     SIL   O00pc       1     -1.05    15.999
    4343      Ob       1     SIL   O00pd       1     -1.05    15.999
    4344      Ob       1     SIL   O00pe       1     -1.05    15.999
    4345      Ob       1     SIL   O00pf       1     -1.05    15.999
    4346      Ob       1     SIL   O00pg       1     -1.05    15.999
    4347      Si       1     SIL   Si0Pr       1       2.1    28.086
    4348      Si       1     SIL   Si0Ps       1       2.1    28.086
    4349      Si       1     SIL   Si0Pt       1       2.1    28.086
    4350      Ob       1     SIL   O00ph       1     -1.05    15.999
    4351      Ob       1     SIL   O00pi       1     -1.05    15.999
    4352      Ob       1     SIL   O00pj       1     -1.05    15.999
    4353      Ob       1     SIL   O00pk       1     -1.05    15.999
    4354      Ob       1     SIL   O00pl       1     -1.05    15.999
    4355      Ob       1     SIL   O00pm       1     -1.05    15.999
    4356      Si       1     SIL   Si0Pu       1       2.1    28.086
    4357      Si       1     SIL   Si0Pv       1       2.1    28.086
    4358      Si       1     SIL   Si0Pw       1       2.1    28.086
    4359      Ob       1     SIL   O00pn       1     -1.05    15.999
    4360      Ob       1     SIL   O00po       1     -1.05    15.999
    4361      Ob       1     SIL   O00pp       1     -1.05    15.999
    4362      Ob       1     SIL   O00pq       1     -1.05    15.999
    4363      Ob       1     SIL   O00pr       1     -1.05    15.999
    4364      Ob       1     SIL   O00ps       1     -1.05    15.999
    4365      Si       1     SIL   Si0Px       1       2.1    28.086
    4366      Si       1     SIL   Si0Py       1       2.1    28.086
    4367      Si       1     SIL   Si0Pz       1       2.1    28.086
    4368      Ob       1     SIL   O00pt       1     -1.05    15.999
    4369      Ob       1     SIL   O00pu       1     -1.05    15.999
    4370      Ob       1     SIL   O00pv       1     -1.05    15.999
    4371      Ob       1     SIL   O00pw       1     -1.05    15.999
    4372      Ob       1     SIL   O00px       1     -1.05    15.999
    4373      Ob       1     SIL   O00py       1     -1.05    15.999
    4374      Si       1     SIL   Si0Q0       1       2.1    28.086
    4375      Si       1     SIL   Si0Q1       1       2.1    28.086
    4376      Si       1     SIL   Si0Q2       1       2.1    28.086
    4377      Ob       1     SIL   O00pz       1     -1.05    15.999
    4378      Ob       1     SIL   O00q0       1     -1.05    15.999
    4379      Ob       1     SIL   O00q1       1     -1.05    15.999
    4380      Ob       1     SIL   O00q2       1     -1.05    15.999
    4381      Ob       1     SIL   O00q3       1     -1.05    15.999
    4382      Ob       1     SIL   O00q4       1     -1.05    15.999
    4383      Si       1     SIL   Si0Q3       1       2.1    28.086
    4384      Si       1     SIL   Si0Q4       1       2.1    28.086
    4385      Si       1     SIL   Si0Q5       1       2.1    28.086
    4386      Ob       1     SIL   O00q5       1     -1.05    15.999
    4387      Ob       1     SIL   O00q6       1     -1.05    15.999
    4388      Ob       1     SIL   O00q7       1     -1.05    15.999
    4389      Ob       1     SIL   O00q8       1     -1.05    15.999
    4390      Ob       1     SIL   O00q9       1     -1.05    15.999
    4391      Ob       1     SIL   O00qA       1     -1.05    15.999
    4392      Si       1     SIL   Si0Q6       1       2.1    28.086
    4393      Si       1     SIL   Si0Q7       1       2.1    28.086
    4394      Si       1     SIL   Si0Q8       1       2.1    28.086
    4395      Ob       1     SIL   O00qB       1     -1.05    15.999
    4396      Ob       1     SIL   O00qC       1     -1.05    15.999
    4397      Ob       1     SIL   O00qD       1     -1.05    15.999
    4398      Ob       1     SIL   O00qE       1     -1.05    15.999
    4399      Ob       1     SIL   O00qF       1     -1.05    15.999
    4400      Ob       1     SIL   O00qG       1     -1.05    15.999
    4401      Si       1     SIL   Si0Q9       1       2.1    28.086
    4402      Si       1     SIL   Si0QA       1       2.1    28.086
    4403      Si       1     SIL   Si0QB       1       2.1    28.086
    4404      Ob       1     SIL   O00qH       1     -1.05    15.999
    4405      Ob       1     SIL   O00qI       1     -1.05    15.999
    4406      Ob       1     SIL   O00qJ       1     -1.05    15.999
    4407      Ob       1     SIL   O00qK       1     -1.05    15.999
    4408      Ob       1     SIL   O00qL       1     -1.05    15.999
    4409      Ob       1     SIL   O00qM       1     -1.05    15.999
    4410      Si       1     SIL   Si0QC       1       2.1    28.086
    4411      Si       1     SIL   Si0QD       1       2.1    28.086
    4412      Si       1     SIL   Si0QE       1       2.1    28.086
    4413      Ob       1     SIL   O00qN       1     -1.05    15.999
    4414      Ob       1     SIL   O00qO       1     -1.05    15.999
    4415      Ob       1     SIL   O00qP       1     -1.05    15.999
    4416      Ob       1     SIL   O00qQ       1     -1.05    15.999
    4417      Ob       1     SIL   O00qR       1     -1.05    15.999
    4418      Ob       1     SIL   O00qS       1     -1.05    15.999
    4419      Si       1     SIL   Si0QF       1       2.1    28.086
    4420      Si       1     SIL   Si0QG       1       2.1    28.086
    4421      Si       1     SIL   Si0QH       1       2.1    28.086
    4422      Ob       1     SIL   O00qT       1     -1.05    15.999
    4423      Ob       1     SIL   O00qU       1     -1.05    15.999
    4424      Ob       1     SIL   O00qV       1     -1.05    15.999
    4425      Ob       1     SIL   O00qW       1     -1.05    15.999
    4426      Ob       1     SIL   O00qX       1     -1.05    15.999
    4427      Ob       1     SIL   O00qY       1     -1.05    15.999
    4428      Si       1     SIL   Si0QI       1       2.1    28.086
    4429      Si       1     SIL   Si0QJ       1       2.1    28.086
    4430      Si       1     SIL   Si0QK       1       2.1    28.086
    4431      Ob       1     SIL   O00qZ       1     -1.05    15.999
    4432      Ob       1     SIL   O00qa       1     -1.05    15.999
    4433      Ob       1     SIL   O00qb       1     -1.05    15.999
    4434      Ob       1     SIL   O00qc       1     -1.05    15.999
    4435      Ob       1     SIL   O00qd       1     -1.05    15.999
    4436      Ob       1     SIL   O00qe       1     -1.05    15.999
    4437      Si       1     SIL   Si0QL       1       2.1    28.086
    4438      Si       1     SIL   Si0QM       1       2.1    28.086
    4439      Si       1     SIL   Si0QN       1       2.1    28.086
    4440      Ob       1     SIL   O00qf       1     -1.05    15.999
    4441      Ob       1     SIL   O00qg       1     -1.05    15.999
    4442      Ob       1     SIL   O00qh       1     -1.05    15.999
    4443      Ob       1     SIL   O00qi       1     -1.05    15.999
    4444      Ob       1     SIL   O00qj       1     -1.05    15.999
    4445      Ob       1     SIL   O00qk       1     -1.05    15.999
    4446      Si       1     SIL   Si0QO       1       2.1    28.086
    4447      Si       1     SIL   Si0QP       1       2.1    28.086
    4448      Si       1     SIL   Si0QQ       1       2.1    28.086
    4449      Ob       1     SIL   O00ql       1     -1.05    15.999
    4450      Ob       1     SIL   O00qm       1     -1.05    15.999
    4451      Ob       1     SIL   O00qn       1     -1.05    15.999
    4452      Ob       1     SIL   O00qo       1     -1.05    15.999
    4453      Ob       1     SIL   O00qp       1     -1.05    15.999
    4454      Ob       1     SIL   O00qq       1     -1.05    15.999
    4455      Si       1     SIL   Si0QR       1       2.1    28.086
    4456      Si       1     SIL   Si0QS       1       2.1    28.086
    4457      Si       1     SIL   Si0QT       1       2.1    28.086
    4458      Ob       1     SIL   O00qr       1     -1.05    15.999
    4459      Ob       1     SIL   O00qs       1     -1.05    15.999
    4460      Ob       1     SIL   O00qt       1     -1.05    15.999
    4461      Ob       1     SIL   O00qu       1     -1.05    15.999
    4462      Ob       1     SIL   O00qv       1     -1.05    15.999
    4463      Ob       1     SIL   O00qw       1     -1.05    15.999
    4464      Si       1     SIL   Si0QU       1       2.1    28.086
    4465      Si       1     SIL   Si0QV       1       2.1    28.086
    4466      Si       1     SIL   Si0QW       1       2.1    28.086
    4467      Ob       1     SIL   O00qx       1     -1.05    15.999
    4468      Ob       1     SIL   O00qy       1     -1.05    15.999
    4469      Ob       1     SIL   O00qz       1     -1.05    15.999
    4470      Ob       1     SIL   O00r0       1     -1.05    15.999
    4471      Ob       1     SIL   O00r1       1     -1.05    15.999
    4472      Ob       1     SIL   O00r2       1     -1.05    15.999
    4473      Si       1     SIL   Si0QX       1       2.1    28.086
    4474      Si       1     SIL   Si0QY       1       2.1    28.086
    4475      Si       1     SIL   Si0QZ       1       2.1    28.086
    4476      Ob       1     SIL   O00r3       1     -1.05    15.999
    4477      Ob       1     SIL   O00r4       1     -1.05    15.999
    4478      Ob       1     SIL   O00r5       1     -1.05    15.999
    4479      Ob       1     SIL   O00r6       1     -1.05    15.999
    4480      Ob       1     SIL   O00r7       1     -1.05    15.999
    4481      Ob       1     SIL   O00r8       1     -1.05    15.999
    4482      Si       1     SIL   Si0Qa       1       2.1    28.086
    4483      Si       1     SIL   Si0Qb       1       2.1    28.086
    4484      Si       1     SIL   Si0Qc       1       2.1    28.086
    4485      Ob       1     SIL   O00r9       1     -1.05    15.999
    4486      Ob       1     SIL   O00rA       1     -1.05    15.999
    4487      Ob       1     SIL   O00rB       1     -1.05    15.999
    4488      Ob       1     SIL   O00rC       1     -1.05    15.999
    4489      Ob       1     SIL   O00rD       1     -1.05    15.999
    4490      Ob       1     SIL   O00rE       1     -1.05    15.999
    4491      Si       1     SIL   Si0Qd       1       2.1    28.086
    4492      Si       1     SIL   Si0Qe       1       2.1    28.086
    4493      Si       1     SIL   Si0Qf       1       2.1    28.086
    4494      Ob       1     SIL   O00rF       1     -1.05    15.999
    4495      Ob       1     SIL   O00rG       1     -1.05    15.999
    4496      Ob       1     SIL   O00rH       1     -1.05    15.999
    4497      Ob       1     SIL   O00rI       1     -1.05    15.999
    4498      Ob       1     SIL   O00rJ       1     -1.05    15.999
    4499      Ob       1     SIL   O00rK       1     -1.05    15.999
    4500      Si       1     SIL   Si0Qg       1       2.1    28.086
    4501      Si       1     SIL   Si0Qh       1       2.1    28.086
    4502      Si       1     SIL   Si0Qi       1       2.1    28.086
    4503      Ob       1     SIL   O00rL       1     -1.05    15.999
    4504       O       1     SIL   O00rM       1    -0.525    15.999
    4505       O       1     SIL   O00rN       1    -0.525    15.999
    4506      Ob       1     SIL   O00rO       1     -1.05    15.999
    4507      Ob       1     SIL   O00rP       1     -1.05    15.999
    4508      Ob       1     SIL   O00rQ       1     -1.05    15.999
    4509      Si       1     SIL   Si0Qj       1       2.1    28.086
    4510      Si       1     SIL   Si0Qk       1       2.1    28.086
    4511      Si       1     SIL   Si0Ql       1       2.1    28.086
    4512      Ob       1     SIL   O00rR       1     -1.05    15.999
    4513      Ob       1     SIL   O00rS       1     -1.05    15.999
    4514      Ob       1     SIL   O00rT       1     -1.05    15.999
    4515      Ob       1     SIL   O00rU       1     -1.05    15.999
    4516      Ob       1     SIL   O00rV       1     -1.05    15.999
    4517      Ob       1     SIL   O00rW       1     -1.05    15.999
    4518      Si       1     SIL   Si0Qm       1       2.1    28.086
    4519      Si       1     SIL   Si0Qn       1       2.1    28.086
    4520      Si       1     SIL   Si0Qo       1       2.1    28.086
    4521      Ob       1     SIL   O00rX       1     -1.05    15.999
    4522      Ob       1     SIL   O00rY       1     -1.05    15.999
    4523      Ob       1     SIL   O00rZ       1     -1.05    15.999
    4524      Ob       1     SIL   O00ra       1     -1.05    15.999
    4525      Ob       1     SIL   O00rb       1     -1.05    15.999
    4526      Ob       1     SIL   O00rc       1     -1.05    15.999
    4527      Si       1     SIL   Si0Qp       1       2.1    28.086
    4528      Si       1     SIL   Si0Qq       1       2.1    28.086
    4529      Si       1     SIL   Si0Qr       1       2.1    28.086
    4530      Ob       1     SIL   O00rd       1     -1.05    15.999
    4531      Ob       1     SIL   O00re       1     -1.05    15.999
    4532      Ob       1     SIL   O00rf       1     -1.05    15.999
    4533      Ob       1     SIL   O00rg       1     -1.05    15.999
    4534      Ob       1     SIL   O00rh       1     -1.05    15.999
    4535      Ob       1     SIL   O00ri       1     -1.05    15.999
    4536      Si       1     SIL   Si0Qs       1       2.1    28.086
    4537      Si       1     SIL   Si0Qt       1       2.1    28.086
    4538      Si       1     SIL   Si0Qu       1       2.1    28.086
    4539      Ob       1     SIL   O00rj       1     -1.05    15.999
    4540      Ob       1     SIL   O00rk       1     -1.05    15.999
    4541      Ob       1     SIL   O00rl       1     -1.05    15.999
    4542      Ob       1     SIL   O00rm       1     -1.05    15.999
    4543      Ob       1     SIL   O00rn       1     -1.05    15.999
    4544      Ob       1     SIL   O00ro       1     -1.05    15.999
    4545      Si       1     SIL   Si0Qv       1       2.1    28.086
    4546      Si       1     SIL   Si0Qw       1       2.1    28.086
    4547      Si       1     SIL   Si0Qx       1       2.1    28.086
    4548      Ob       1     SIL   O00rp       1     -1.05    15.999
    4549      Ob       1     SIL   O00rq       1     -1.05    15.999
    4550      Ob       1     SIL   O00rr       1     -1.05    15.999
    4551      Ob       1     SIL   O00rs       1     -1.05    15.999
    4552      Ob       1     SIL   O00rt       1     -1.05    15.999
    4553      Ob       1     SIL   O00ru       1     -1.05    15.999
    4554      Si       1     SIL   Si0Qy       1       2.1    28.086
    4555      Si       1     SIL   Si0Qz       1       2.1    28.086
    4556      Si       1     SIL   Si0R0       1       2.1    28.086
    4557      Ob       1     SIL   O00rv       1     -1.05    15.999
    4558      Ob       1     SIL   O00rw       1     -1.05    15.999
    4559      Ob       1     SIL   O00rx       1     -1.05    15.999
    4560      Ob       1     SIL   O00ry       1     -1.05    15.999
    4561      Ob       1     SIL   O00rz       1     -1.05    15.999
    4562      Ob       1     SIL   O00s0       1     -1.05    15.999
    4563      Si       1     SIL   Si0R1       1       2.1    28.086
    4564      Si       1     SIL   Si0R2       1       2.1    28.086
    4565      Si       1     SIL   Si0R3       1       2.1    28.086
    4566      Ob       1     SIL   O00s1       1     -1.05    15.999
    4567      Ob       1     SIL   O00s2       1     -1.05    15.999
    4568      Ob       1     SIL   O00s3       1     -1.05    15.999
    4569      Ob       1     SIL   O00s4       1     -1.05    15.999
    4570      Ob       1     SIL   O00s5       1     -1.05    15.999
    4571      Ob       1     SIL   O00s6       1     -1.05    15.999
    4572      Si       1     SIL   Si0R4       1       2.1    28.086
    4573      Si       1     SIL   Si0R5       1       2.1    28.086
    4574      Si       1     SIL   Si0R6       1       2.1    28.086
    4575      Ob       1     SIL   O00s7       1     -1.05    15.999
    4576      Ob       1     SIL   O00s8       1     -1.05    15.999
    4577      Ob       1     SIL   O00s9       1     -1.05    15.999
    4578      Ob       1     SIL   O00sA       1     -1.05    15.999
    4579      Ob       1     SIL   O00sB       1     -1.05    15.999
    4580      Ob       1     SIL   O00sC       1     -1.05    15.999
    4581      Si       1     SIL   Si0R7       1       2.1    28.086
    4582      Si       1     SIL   Si0R8       1       2.1    28.086
    4583      Si       1     SIL   Si0R9       1       2.1    28.086
    4584      Ob       1     SIL   O00sD       1     -1.05    15.999
    4585      Ob       1     SIL   O00sE       1     -1.05    15.999
    4586      Ob       1     SIL   O00sF       1     -1.05    15.999
    4587      Ob       1     SIL   O00sG       1     -1.05    15.999
    4588      Ob       1     SIL   O00sH       1     -1.05    15.999
    4589      Ob       1     SIL   O00sI       1     -1.05    15.999
    4590      Si       1     SIL   Si0RA       1       2.1    28.086
    4591      Si       1     SIL   Si0RB       1       2.1    28.086
    4592      Si       1     SIL   Si0RC       1       2.1    28.086
    4593      Ob       1     SIL   O00sJ       1     -1.05    15.999
    4594      Ob       1     SIL   O00sK       1     -1.05    15.999
    4595      Ob       1     SIL   O00sL       1     -1.05    15.999
    4596      Ob       1     SIL   O00sM       1     -1.05    15.999
    4597      Ob       1     SIL   O00sN       1     -1.05    15.999
    4598      Ob       1     SIL   O00sO       1     -1.05    15.999
    4599      Si       1     SIL   Si0RD       1       2.1    28.086
    4600      Si       1     SIL   Si0RE       1       2.1    28.086
    4601      Si       1     SIL   Si0RF       1       2.1    28.086
    4602      Ob       1     SIL   O00sP       1     -1.05    15.999
    4603      Ob       1     SIL   O00sQ       1     -1.05    15.999
    4604      Ob       1     SIL   O00sR       1     -1.05    15.999
    4605      Ob       1     SIL   O00sS       1     -1.05    15.999
    4606      Ob       1     SIL   O00sT       1     -1.05    15.999
    4607      Ob       1     SIL   O00sU       1     -1.05    15.999
    4608      Si       1     SIL   Si0RG       1       2.1    28.086
    4609      Si       1     SIL   Si0RH       1       2.1    28.086
    4610      Si       1     SIL   Si0RI       1       2.1    28.086
    4611      Ob       1     SIL   O00sV       1     -1.05    15.999
    4612      Ob       1     SIL   O00sW       1     -1.05    15.999
    4613      Ob       1     SIL   O00sX       1     -1.05    15.999
    4614      Ob       1     SIL   O00sY       1     -1.05    15.999
    4615      Ob       1     SIL   O00sZ       1     -1.05    15.999
    4616      Ob       1     SIL   O00sa       1     -1.05    15.999
    4617      Si       1     SIL   Si0RJ       1       2.1    28.086
    4618      Si       1     SIL   Si0RK       1       2.1    28.086
    4619      Si       1     SIL   Si0RL       1       2.1    28.086
    4620      Ob       1     SIL   O00sb       1     -1.05    15.999
    4621      Ob       1     SIL   O00sc       1     -1.05    15.999
    4622      Ob       1     SIL   O00sd       1     -1.05    15.999
    4623      Ob       1     SIL   O00se       1     -1.05    15.999
    4624      Ob       1     SIL   O00sf       1     -1.05    15.999
    4625      Ob       1     SIL   O00sg       1     -1.05    15.999
    4626      Si       1     SIL   Si0RM       1       2.1    28.086
    4627      Si       1     SIL   Si0RN       1       2.1    28.086
    4628      Si       1     SIL   Si0RO       1       2.1    28.086
    4629      Ob       1     SIL   O00sh       1     -1.05    15.999
    4630      Ob       1     SIL   O00si       1     -1.05    15.999
    4631      Ob       1     SIL   O00sj       1     -1.05    15.999
    4632      Ob       1     SIL   O00sk       1     -1.05    15.999
    4633      Ob       1     SIL   O00sl       1     -1.05    15.999
    4634      Ob       1     SIL   O00sm       1     -1.05    15.999
    4635      Si       1     SIL   Si0RP       1       2.1    28.086
    4636      Si       1     SIL   Si0RQ       1       2.1    28.086
    4637      Si       1     SIL   Si0RR       1       2.1    28.086
    4638      Ob       1     SIL   O00sn       1     -1.05    15.999
    4639      Ob       1     SIL   O00so       1     -1.05    15.999
    4640      Ob       1     SIL   O00sp       1     -1.05    15.999
    4641      Ob       1     SIL   O00sq       1     -1.05    15.999
    4642      Ob       1     SIL   O00sr       1     -1.05    15.999
    4643      Ob       1     SIL   O00ss       1     -1.05    15.999
    4644      Si       1     SIL   Si0RS       1       2.1    28.086
    4645      Si       1     SIL   Si0RT       1       2.1    28.086
    4646      Si       1     SIL   Si0RU       1       2.1    28.086
    4647      Ob       1     SIL   O00st       1     -1.05    15.999
    4648      Ob       1     SIL   O00su       1     -1.05    15.999
    4649      Ob       1     SIL   O00sv       1     -1.05    15.999
    4650      Ob       1     SIL   O00sw       1     -1.05    15.999
    4651      Ob       1     SIL   O00sx       1     -1.05    15.999
    4652      Ob       1     SIL   O00sy       1     -1.05    15.999
    4653      Si       1     SIL   Si0RV       1       2.1    28.086
    4654      Si       1     SIL   Si0RW       1       2.1    28.086
    4655      Si       1     SIL   Si0RX       1       2.1    28.086
    4656      Ob       1     SIL   O00sz       1     -1.05    15.999
    4657      Ob       1     SIL   O00t0       1     -1.05    15.999
    4658      Ob       1     SIL   O00t1       1     -1.05    15.999
    4659      Ob       1     SIL   O00t2       1     -1.05    15.999
    4660      Ob       1     SIL   O00t3       1     -1.05    15.999
    4661      Ob       1     SIL   O00t4       1     -1.05    15.999
    4662      Si       1     SIL   Si0RY       1       2.1    28.086
    4663      Si       1     SIL   Si0RZ       1       2.1    28.086
    4664      Si       1     SIL   Si0Ra       1       2.1    28.086
    4665      Ob       1     SIL   O00t5       1     -1.05    15.999
    4666      Ob       1     SIL   O00t6       1     -1.05    15.999
    4667      Ob       1     SIL   O00t7       1     -1.05    15.999
    4668      Ob       1     SIL   O00t8       1     -1.05    15.999
    4669      Ob       1     SIL   O00t9       1     -1.05    15.999
    4670      Ob       1     SIL   O00tA       1     -1.05    15.999
    4671      Si       1     SIL   Si0Rb       1       2.1    28.086
    4672      Si       1     SIL   Si0Rc       1       2.1    28.086
    4673      Si       1     SIL   Si0Rd       1       2.1    28.086
    4674      Ob       1     SIL   O00tB       1     -1.05    15.999
    4675      Ob       1     SIL   O00tC       1     -1.05    15.999
    4676      Ob       1     SIL   O00tD       1     -1.05    15.999
    4677      Ob       1     SIL   O00tE       1     -1.05    15.999
    4678      Ob       1     SIL   O00tF       1     -1.05    15.999
    4679      Ob       1     SIL   O00tG       1     -1.05    15.999
    4680      Si       1     SIL   Si0Re       1       2.1    28.086
    4681      Si       1     SIL   Si0Rf       1       2.1    28.086
    4682      Si       1     SIL   Si0Rg       1       2.1    28.086
    4683      Ob       1     SIL   O00tH       1     -1.05    15.999
    4684      Ob       1     SIL   O00tI       1     -1.05    15.999
    4685      Ob       1     SIL   O00tJ       1     -1.05    15.999
    4686      Ob       1     SIL   O00tK       1     -1.05    15.999
    4687      Ob       1     SIL   O00tL       1     -1.05    15.999
    4688      Ob       1     SIL   O00tM       1     -1.05    15.999
    4689      Si       1     SIL   Si0Rh       1       2.1    28.086
    4690      Si       1     SIL   Si0Ri       1       2.1    28.086
    4691      Si       1     SIL   Si0Rj       1       2.1    28.086
    4692      Ob       1     SIL   O00tN       1     -1.05    15.999
    4693      Ob       1     SIL   O00tO       1     -1.05    15.999
    4694      Ob       1     SIL   O00tP       1     -1.05    15.999
    4695      Ob       1     SIL   O00tQ       1     -1.05    15.999
    4696      Ob       1     SIL   O00tR       1     -1.05    15.999
    4697      Ob       1     SIL   O00tS       1     -1.05    15.999
    4698      Si       1     SIL   Si0Rk       1       2.1    28.086
    4699      Si       1     SIL   Si0Rl       1       2.1    28.086
    4700      Si       1     SIL   Si0Rm       1       2.1    28.086
    4701      Ob       1     SIL   O00tT       1     -1.05    15.999
    4702      Ob       1     SIL   O00tU       1     -1.05    15.999
    4703      Ob       1     SIL   O00tV       1     -1.05    15.999
    4704      Ob       1     SIL   O00tW       1     -1.05    15.999
    4705      Ob       1     SIL   O00tX       1     -1.05    15.999
    4706      Ob       1     SIL   O00tY       1     -1.05    15.999
    4707      Si       1     SIL   Si0Rn       1       2.1    28.086
    4708      Si       1     SIL   Si0Ro       1       2.1    28.086
    4709      Si       1     SIL   Si0Rp       1       2.1    28.086
    4710      Ob       1     SIL   O00tZ       1     -1.05    15.999
    4711       O       1     SIL   O00ta       1    -0.525    15.999
    4712       O       1     SIL   O00tb       1    -0.525    15.999
    4713      Ob       1     SIL   O00tc       1     -1.05    15.999
    4714      Ob       1     SIL   O00td       1     -1.05    15.999
    4715      Ob       1     SIL   O00te       1     -1.05    15.999
    4716      Si       1     SIL   Si0Rq       1       2.1    28.086
    4717      Si       1     SIL   Si0Rr       1       2.1    28.086
    4718      Si       1     SIL   Si0Rs       1       2.1    28.086
    4719      Ob       1     SIL   O00tf       1     -1.05    15.999
    4720      Ob       1     SIL   O00tg       1     -1.05    15.999
    4721      Ob       1     SIL   O00th       1     -1.05    15.999
    4722      Ob       1     SIL   O00ti       1     -1.05    15.999
    4723      Ob       1     SIL   O00tj       1     -1.05    15.999
    4724      Ob       1     SIL   O00tk       1     -1.05    15.999
    4725      Si       1     SIL   Si0Rt       1       2.1    28.086
    4726      Si       1     SIL   Si0Ru       1       2.1    28.086
    4727      Si       1     SIL   Si0Rv       1       2.1    28.086
    4728      Ob       1     SIL   O00tl       1     -1.05    15.999
    4729      Ob       1     SIL   O00tm       1     -1.05    15.999
    4730      Ob       1     SIL   O00tn       1     -1.05    15.999
    4731      Ob       1     SIL   O00to       1     -1.05    15.999
    4732      Ob       1     SIL   O00tp       1     -1.05    15.999
    4733      Ob       1     SIL   O00tq       1     -1.05    15.999
    4734      Si       1     SIL   Si0Rw       1       2.1    28.086
    4735      Si       1     SIL   Si0Rx       1       2.1    28.086
    4736      Si       1     SIL   Si0Ry       1       2.1    28.086
    4737      Ob       1     SIL   O00tr       1     -1.05    15.999
    4738      Ob       1     SIL   O00ts       1     -1.05    15.999
    4739      Ob       1     SIL   O00tt       1     -1.05    15.999
    4740      Ob       1     SIL   O00tu       1     -1.05    15.999
    4741      Ob       1     SIL   O00tv       1     -1.05    15.999
    4742      Ob       1     SIL   O00tw       1     -1.05    15.999
    4743      Si       1     SIL   Si0Rz       1       2.1    28.086
    4744      Si       1     SIL   Si0S0       1       2.1    28.086
    4745      Si       1     SIL   Si0S1       1       2.1    28.086
    4746      Ob       1     SIL   O00tx       1     -1.05    15.999
    4747      Ob       1     SIL   O00ty       1     -1.05    15.999
    4748      Ob       1     SIL   O00tz       1     -1.05    15.999
    4749      Ob       1     SIL   O00u0       1     -1.05    15.999
    4750      Ob       1     SIL   O00u1       1     -1.05    15.999
    4751      Ob       1     SIL   O00u2       1     -1.05    15.999
    4752      Si       1     SIL   Si0S2       1       2.1    28.086
    4753      Si       1     SIL   Si0S3       1       2.1    28.086
    4754      Si       1     SIL   Si0S4       1       2.1    28.086
    4755      Ob       1     SIL   O00u3       1     -1.05    15.999
    4756      Ob       1     SIL   O00u4       1     -1.05    15.999
    4757      Ob       1     SIL   O00u5       1     -1.05    15.999
    4758      Ob       1     SIL   O00u6       1     -1.05    15.999
    4759      Ob       1     SIL   O00u7       1     -1.05    15.999
    4760      Ob       1     SIL   O00u8       1     -1.05    15.999
    4761      Si       1     SIL   Si0S5       1       2.1    28.086
    4762      Si       1     SIL   Si0S6       1       2.1    28.086
    4763      Si       1     SIL   Si0S7       1       2.1    28.086
    4764      Ob       1     SIL   O00u9       1     -1.05    15.999
    4765      Ob       1     SIL   O00uA       1     -1.05    15.999
    4766      Ob       1     SIL   O00uB       1     -1.05    15.999
    4767      Ob       1     SIL   O00uC       1     -1.05    15.999
    4768      Ob       1     SIL   O00uD       1     -1.05    15.999
    4769      Ob       1     SIL   O00uE       1     -1.05    15.999
    4770      Si       1     SIL   Si0S8       1       2.1    28.086
    4771      Si       1     SIL   Si0S9       1       2.1    28.086
    4772      Si       1     SIL   Si0SA       1       2.1    28.086
    4773      Ob       1     SIL   O00uF       1     -1.05    15.999
    4774      Ob       1     SIL   O00uG       1     -1.05    15.999
    4775      Ob       1     SIL   O00uH       1     -1.05    15.999
    4776      Ob       1     SIL   O00uI       1     -1.05    15.999
    4777      Ob       1     SIL   O00uJ       1     -1.05    15.999
    4778      Ob       1     SIL   O00uK       1     -1.05    15.999
    4779      Si       1     SIL   Si0SB       1       2.1    28.086
    4780      Si       1     SIL   Si0SC       1       2.1    28.086
    4781      Si       1     SIL   Si0SD       1       2.1    28.086
    4782      Ob       1     SIL   O00uL       1     -1.05    15.999
    4783      Ob       1     SIL   O00uM       1     -1.05    15.999
    4784      Ob       1     SIL   O00uN       1     -1.05    15.999
    4785      Ob       1     SIL   O00uO       1     -1.05    15.999
    4786      Ob       1     SIL   O00uP       1     -1.05    15.999
    4787      Ob       1     SIL   O00uQ       1     -1.05    15.999
    4788      Si       1     SIL   Si0SE       1       2.1    28.086
    4789      Si       1     SIL   Si0SF       1       2.1    28.086
    4790      Si       1     SIL   Si0SG       1       2.1    28.086
    4791      Ob       1     SIL   O00uR       1     -1.05    15.999
    4792      Ob       1     SIL   O00uS       1     -1.05    15.999
    4793      Ob       1     SIL   O00uT       1     -1.05    15.999
    4794      Ob       1     SIL   O00uU       1     -1.05    15.999
    4795      Ob       1     SIL   O00uV       1     -1.05    15.999
    4796      Ob       1     SIL   O00uW       1     -1.05    15.999
    4797      Si       1     SIL   Si0SH       1       2.1    28.086
    4798      Si       1     SIL   Si0SI       1       2.1    28.086
    4799      Si       1     SIL   Si0SJ       1       2.1    28.086
    4800      Ob       1     SIL   O00uX       1     -1.05    15.999
    4801      Ob       1     SIL   O00uY       1     -1.05    15.999
    4802      Ob       1     SIL   O00uZ       1     -1.05    15.999
    4803      Ob       1     SIL   O00ua       1     -1.05    15.999
    4804      Ob       1     SIL   O00ub       1     -1.05    15.999
    4805      Ob       1     SIL   O00uc       1     -1.05    15.999
    4806      Si       1     SIL   Si0SK       1       2.1    28.086
    4807      Si       1     SIL   Si0SL       1       2.1    28.086
    4808      Si       1     SIL   Si0SM       1       2.1    28.086
    4809      Ob       1     SIL   O00ud       1     -1.05    15.999
    4810      Ob       1     SIL   O00ue       1     -1.05    15.999
    4811      Ob       1     SIL   O00uf       1     -1.05    15.999
    4812      Ob       1     SIL   O00ug       1     -1.05    15.999
    4813      Ob       1     SIL   O00uh       1     -1.05    15.999
    4814      Ob       1     SIL   O00ui       1     -1.05    15.999
    4815      Si       1     SIL   Si0SN       1       2.1    28.086
    4816      Si       1     SIL   Si0SO       1       2.1    28.086
    4817      Si       1     SIL   Si0SP       1       2.1    28.086
    4818      Ob       1     SIL   O00uj       1     -1.05    15.999
    4819      Ob       1     SIL   O00uk       1     -1.05    15.999
    4820      Ob       1     SIL   O00ul       1     -1.05    15.999
    4821      Ob       1     SIL   O00um       1     -1.05    15.999
    4822      Ob       1     SIL   O00un       1     -1.05    15.999
    4823      Ob       1     SIL   O00uo       1     -1.05    15.999
    4824      Si       1     SIL   Si0SQ       1       2.1    28.086
    4825      Si       1     SIL   Si0SR       1       2.1    28.086
    4826      Si       1     SIL   Si0SS       1       2.1    28.086
    4827      Ob       1     SIL   O00up       1     -1.05    15.999
    4828      Ob       1     SIL   O00uq       1     -1.05    15.999
    4829      Ob       1     SIL   O00ur       1     -1.05    15.999
    4830      Ob       1     SIL   O00us       1     -1.05    15.999
    4831      Ob       1     SIL   O00ut       1     -1.05    15.999
    4832      Ob       1     SIL   O00uu       1     -1.05    15.999
    4833      Si       1     SIL   Si0ST       1       2.1    28.086
    4834      Si       1     SIL   Si0SU       1       2.1    28.086
    4835      Si       1     SIL   Si0SV       1       2.1    28.086
    4836      Ob       1     SIL   O00uv       1     -1.05    15.999
    4837      Ob       1     SIL   O00uw       1     -1.05    15.999
    4838      Ob       1     SIL   O00ux       1     -1.05    15.999
    4839      Ob       1     SIL   O00uy       1     -1.05    15.999
    4840      Ob       1     SIL   O00uz       1     -1.05    15.999
    4841      Ob       1     SIL   O00v0       1     -1.05    15.999
    4842      Si       1     SIL   Si0SW       1       2.1    28.086
    4843      Si       1     SIL   Si0SX       1       2.1    28.086
    4844      Si       1     SIL   Si0SY       1       2.1    28.086
    4845      Ob       1     SIL   O00v1       1     -1.05    15.999
    4846      Ob       1     SIL   O00v2       1     -1.05    15.999
    4847      Ob       1     SIL   O00v3       1     -1.05    15.999
    4848      Ob       1     SIL   O00v4       1     -1.05    15.999
    4849      Ob       1     SIL   O00v5       1     -1.05    15.999
    4850      Ob       1     SIL   O00v6       1     -1.05    15.999
    4851      Si       1     SIL   Si0SZ       1       2.1    28.086
    4852      Si       1     SIL   Si0Sa       1       2.1    28.086
    4853      Si       1     SIL   Si0Sb       1       2.1    28.086
    4854      Ob       1     SIL   O00v7       1     -1.05    15.999
    4855      Ob       1     SIL   O00v8       1     -1.05    15.999
    4856      Ob       1     SIL   O00v9       1     -1.05    15.999
    4857      Ob       1     SIL   O00vA       1     -1.05    15.999
    4858      Ob       1     SIL   O00vB       1     -1.05    15.999
    4859      Ob       1     SIL   O00vC       1     -1.05    15.999
    4860      Si       1     SIL   Si0Sc       1       2.1    28.086
    4861      Si       1     SIL   Si0Sd       1       2.1    28.086
    4862      Si       1     SIL   Si0Se       1       2.1    28.086
    4863      Ob       1     SIL   O00vD       1     -1.05    15.999
    4864      Ob       1     SIL   O00vE       1     -1.05    15.999
    4865      Ob       1     SIL   O00vF       1     -1.05    15.999
    4866      Ob       1     SIL   O00vG       1     -1.05    15.999
    4867      Ob       1     SIL   O00vH       1     -1.05    15.999
    4868      Ob       1     SIL   O00vI       1     -1.05    15.999
    4869      Si       1     SIL   Si0Sf       1       2.1    28.086
    4870      Si       1     SIL   Si0Sg       1       2.1    28.086
    4871      Si       1     SIL   Si0Sh       1       2.1    28.086
    4872      Ob       1     SIL   O00vJ       1     -1.05    15.999
    4873      Ob       1     SIL   O00vK       1     -1.05    15.999
    4874      Ob       1     SIL   O00vL       1     -1.05    15.999
    4875      Ob       1     SIL   O00vM       1     -1.05    15.999
    4876      Ob       1     SIL   O00vN       1     -1.05    15.999
    4877      Ob       1     SIL   O00vO       1     -1.05    15.999
    4878      Si       1     SIL   Si0Si       1       2.1    28.086
    4879      Si       1     SIL   Si0Sj       1       2.1    28.086
    4880      Si       1     SIL   Si0Sk       1       2.1    28.086
    4881      Ob       1     SIL   O00vP       1     -1.05    15.999
    4882      Ob       1     SIL   O00vQ       1     -1.05    15.999
    4883      Ob       1     SIL   O00vR       1     -1.05    15.999
    4884      Ob       1     SIL   O00vS       1     -1.05    15.999
    4885      Ob       1     SIL   O00vT       1     -1.05    15.999
    4886      Ob       1     SIL   O00vU       1     -1.05    15.999
    4887      Si       1     SIL   Si0Sl       1       2.1    28.086
    4888      Si       1     SIL   Si0Sm       1       2.1    28.086
    4889      Si       1     SIL   Si0Sn       1       2.1    28.086
    4890      Ob       1     SIL   O00vV       1     -1.05    15.999
    4891      Ob       1     SIL   O00vW       1     -1.05    15.999
    4892      Ob       1     SIL   O00vX       1     -1.05    15.999
    4893      Ob       1     SIL   O00vY       1     -1.05    15.999
    4894      Ob       1     SIL   O00vZ       1     -1.05    15.999
    4895      Ob       1     SIL   O00va       1     -1.05    15.999
    4896      Si       1     SIL   Si0So       1       2.1    28.086
    4897      Si       1     SIL   Si0Sp       1       2.1    28.086
    4898      Si       1     SIL   Si0Sq       1       2.1    28.086
    4899      Ob       1     SIL   O00vb       1     -1.05    15.999
    4900      Ob       1     SIL   O00vc       1     -1.05    15.999
    4901      Ob       1     SIL   O00vd       1     -1.05    15.999
    4902      Ob       1     SIL   O00ve       1     -1.05    15.999
    4903      Ob       1     SIL   O00vf       1     -1.05    15.999
    4904      Ob       1     SIL   O00vg       1     -1.05    15.999
    4905      Si       1     SIL   Si0Sr       1       2.1    28.086
    4906      Si       1     SIL   Si0Ss       1       2.1    28.086
    4907      Si       1     SIL   Si0St       1       2.1    28.086
    4908      Ob       1     SIL   O00vh       1     -1.05    15.999
    4909      Ob       1     SIL   O00vi       1     -1.05    15.999
    4910      Ob       1     SIL   O00vj       1     -1.05    15.999
    4911      Ob       1     SIL   O00vk       1     -1.05    15.999
    4912      Ob       1     SIL   O00vl       1     -1.05    15.999
    4913      Ob       1     SIL   O00vm       1     -1.05    15.999
    4914      Si       1     SIL   Si0Su       1       2.1    28.086
    4915      Si       1     SIL   Si0Sv       1       2.1    28.086
    4916      Si       1     SIL   Si0Sw       1       2.1    28.086
    4917      Ob       1     SIL   O00vn       1     -1.05    15.999
    4918       O       1     SIL   O00vo       1    -0.525    15.999
    4919       O       1     SIL   O00vp       1    -0.525    15.999
    4920      Ob       1     SIL   O00vq       1     -1.05    15.999
    4921      Ob       1     SIL   O00vr       1     -1.05    15.999
    4922      Ob       1     SIL   O00vs       1     -1.05    15.999
    4923      Si       1     SIL   Si0Sx       1       2.1    28.086
    4924      Si       1     SIL   Si0Sy       1       2.1    28.086
    4925      Si       1     SIL   Si0Sz       1       2.1    28.086
    4926      Ob       1     SIL   O00vt       1     -1.05    15.999
    4927      Ob       1     SIL   O00vu       1     -1.05    15.999
    4928      Ob       1     SIL   O00vv       1     -1.05    15.999
    4929      Ob       1     SIL   O00vw       1     -1.05    15.999
    4930      Ob       1     SIL   O00vx       1     -1.05    15.999
    4931      Ob       1     SIL   O00vy       1     -1.05    15.999
    4932      Si       1     SIL   Si0T0       1       2.1    28.086
    4933      Si       1     SIL   Si0T1       1       2.1    28.086
    4934      Si       1     SIL   Si0T2       1       2.1    28.086
    4935      Ob       1     SIL   O00vz       1     -1.05    15.999
    4936      Ob       1     SIL   O00w0       1     -1.05    15.999
    4937      Ob       1     SIL   O00w1       1     -1.05    15.999
    4938      Ob       1     SIL   O00w2       1     -1.05    15.999
    4939      Ob       1     SIL   O00w3       1     -1.05    15.999
    4940      Ob       1     SIL   O00w4       1     -1.05    15.999
    4941      Si       1     SIL   Si0T3       1       2.1    28.086
    4942      Si       1     SIL   Si0T4       1       2.1    28.086
    4943      Si       1     SIL   Si0T5       1       2.1    28.086
    4944      Ob       1     SIL   O00w5       1     -1.05    15.999
    4945      Ob       1     SIL   O00w6       1     -1.05    15.999
    4946      Ob       1     SIL   O00w7       1     -1.05    15.999
    4947      Ob       1     SIL   O00w8       1     -1.05    15.999
    4948      Ob       1     SIL   O00w9       1     -1.05    15.999
    4949      Ob       1     SIL   O00wA       1     -1.05    15.999
    4950      Si       1     SIL   Si0T6       1       2.1    28.086
    4951      Si       1     SIL   Si0T7       1       2.1    28.086
    4952      Si       1     SIL   Si0T8       1       2.1    28.086
    4953      Ob       1     SIL   O00wB       1     -1.05    15.999
    4954      Ob       1     SIL   O00wC       1     -1.05    15.999
    4955      Ob       1     SIL   O00wD       1     -1.05    15.999
    4956      Ob       1     SIL   O00wE       1     -1.05    15.999
    4957      Ob       1     SIL   O00wF       1     -1.05    15.999
    4958      Ob       1     SIL   O00wG       1     -1.05    15.999
    4959      Si       1     SIL   Si0T9       1       2.1    28.086
    4960      Si       1     SIL   Si0TA       1       2.1    28.086
    4961      Si       1     SIL   Si0TB       1       2.1    28.086
    4962      Ob       1     SIL   O00wH       1     -1.05    15.999
    4963      Ob       1     SIL   O00wI       1     -1.05    15.999
    4964      Ob       1     SIL   O00wJ       1     -1.05    15.999
    4965      Ob       1     SIL   O00wK       1     -1.05    15.999
    4966      Ob       1     SIL   O00wL       1     -1.05    15.999
    4967      Ob       1     SIL   O00wM       1     -1.05    15.999
    4968      Si       1     SIL   Si0TC       1       2.1    28.086
    4969      Si       1     SIL   Si0TD       1       2.1    28.086
    4970      Si       1     SIL   Si0TE       1       2.1    28.086
    4971      Ob       1     SIL   O00wN       1     -1.05    15.999
    4972      Ob       1     SIL   O00wO       1     -1.05    15.999
    4973      Ob       1     SIL   O00wP       1     -1.05    15.999
    4974      Ob       1     SIL   O00wQ       1     -1.05    15.999
    4975      Ob       1     SIL   O00wR       1     -1.05    15.999
    4976      Ob       1     SIL   O00wS       1     -1.05    15.999
    4977      Si       1     SIL   Si0TF       1       2.1    28.086
    4978      Si       1     SIL   Si0TG       1       2.1    28.086
    4979      Si       1     SIL   Si0TH       1       2.1    28.086
    4980      Ob       1     SIL   O00wT       1     -1.05    15.999
    4981      Ob       1     SIL   O00wU       1     -1.05    15.999
    4982      Ob       1     SIL   O00wV       1     -1.05    15.999
    4983      Ob       1     SIL   O00wW       1     -1.05    15.999
    4984      Ob       1     SIL   O00wX       1     -1.05    15.999
    4985      Ob       1     SIL   O00wY       1     -1.05    15.999
    4986      Si       1     SIL   Si0TI       1       2.1    28.086
    4987      Si       1     SIL   Si0TJ       1       2.1    28.086
    4988      Si       1     SIL   Si0TK       1       2.1    28.086
    4989      Ob       1     SIL   O00wZ       1     -1.05    15.999
    4990      Ob       1     SIL   O00wa       1     -1.05    15.999
    4991      Ob       1     SIL   O00wb       1     -1.05    15.999
    4992      Ob       1     SIL   O00wc       1     -1.05    15.999
    4993      Ob       1     SIL   O00wd       1     -1.05    15.999
    4994      Ob       1     SIL   O00we       1     -1.05    15.999
    4995      Si       1     SIL   Si0TL       1       2.1    28.086
    4996      Si       1     SIL   Si0TM       1       2.1    28.086
    4997      Si       1     SIL   Si0TN       1       2.1    28.086
    4998      Ob       1     SIL   O00wf       1     -1.05    15.999
    4999      Ob       1     SIL   O00wg       1     -1.05    15.999
    5000      Ob       1     SIL   O00wh       1     -1.05    15.999
    5001      Ob       1     SIL   O00wi       1     -1.05    15.999
    5002      Ob       1     SIL   O00wj       1     -1.05    15.999
    5003      Ob       1     SIL   O00wk       1     -1.05    15.999
    5004      Si       1     SIL   Si0TO       1       2.1    28.086
    5005      Si       1     SIL   Si0TP       1       2.1    28.086
    5006      Si       1     SIL   Si0TQ       1       2.1    28.086
    5007      Ob       1     SIL   O00wl       1     -1.05    15.999
    5008      Ob       1     SIL   O00wm       1     -1.05    15.999
    5009      Ob       1     SIL   O00wn       1     -1.05    15.999
    5010      Ob       1     SIL   O00wo       1     -1.05    15.999
    5011      Ob       1     SIL   O00wp       1     -1.05    15.999
    5012      Ob       1     SIL   O00wq       1     -1.05    15.999
    5013      Si       1     SIL   Si0TR       1       2.1    28.086
    5014      Si       1     SIL   Si0TS       1       2.1    28.086
    5015      Si       1     SIL   Si0TT       1       2.1    28.086
    5016      Ob       1     SIL   O00wr       1     -1.05    15.999
    5017      Ob       1     SIL   O00ws       1     -1.05    15.999
    5018      Ob       1     SIL   O00wt       1     -1.05    15.999
    5019      Ob       1     SIL   O00wu       1     -1.05    15.999
    5020      Ob       1     SIL   O00wv       1     -1.05    15.999
    5021      Ob       1     SIL   O00ww       1     -1.05    15.999
    5022      Si       1     SIL   Si0TU       1       2.1    28.086
    5023      Si       1     SIL   Si0TV       1       2.1    28.086
    5024      Si       1     SIL   Si0TW       1       2.1    28.086
    5025      Ob       1     SIL   O00wx       1     -1.05    15.999
    5026      Ob       1     SIL   O00wy       1     -1.05    15.999
    5027      Ob       1     SIL   O00wz       1     -1.05    15.999
    5028      Ob       1     SIL   O00x0       1     -1.05    15.999
    5029      Ob       1     SIL   O00x1       1     -1.05    15.999
    5030      Ob       1     SIL   O00x2       1     -1.05    15.999
    5031      Si       1     SIL   Si0TX       1       2.1    28.086
    5032      Si       1     SIL   Si0TY       1       2.1    28.086
    5033      Si       1     SIL   Si0TZ       1       2.1    28.086
    5034      Ob       1     SIL   O00x3       1     -1.05    15.999
    5035      Ob       1     SIL   O00x4       1     -1.05    15.999
    5036      Ob       1     SIL   O00x5       1     -1.05    15.999
    5037      Ob       1     SIL   O00x6       1     -1.05    15.999
    5038      Ob       1     SIL   O00x7       1     -1.05    15.999
    5039      Ob       1     SIL   O00x8       1     -1.05    15.999
    5040      Si       1     SIL   Si0Ta       1       2.1    28.086
    5041      Si       1     SIL   Si0Tb       1       2.1    28.086
    5042      Si       1     SIL   Si0Tc       1       2.1    28.086
    5043      Ob       1     SIL   O00x9       1     -1.05    15.999
    5044      Ob       1     SIL   O00xA       1     -1.05    15.999
    5045      Ob       1     SIL   O00xB       1     -1.05    15.999
    5046      Ob       1     SIL   O00xC       1     -1.05    15.999
    5047      Ob       1     SIL   O00xD       1     -1.05    15.999
    5048      Ob       1     SIL   O00xE       1     -1.05    15.999
    5049      Si       1     SIL   Si0Td       1       2.1    28.086
    5050      Si       1     SIL   Si0Te       1       2.1    28.086
    5051      Si       1     SIL   Si0Tf       1       2.1    28.086
    5052      Ob       1     SIL   O00xF       1     -1.05    15.999
    5053      Ob       1     SIL   O00xG       1     -1.05    15.999
    5054      Ob       1     SIL   O00xH       1     -1.05    15.999
    5055      Ob       1     SIL   O00xI       1     -1.05    15.999
    5056      Ob       1     SIL   O00xJ       1     -1.05    15.999
    5057      Ob       1     SIL   O00xK       1     -1.05    15.999
    5058      Si       1     SIL   Si0Tg       1       2.1    28.086
    5059      Si       1     SIL   Si0Th       1       2.1    28.086
    5060      Si       1     SIL   Si0Ti       1       2.1    28.086
    5061      Ob       1     SIL   O00xL       1     -1.05    15.999
    5062      Ob       1     SIL   O00xM       1     -1.05    15.999
    5063      Ob       1     SIL   O00xN       1     -1.05    15.999
    5064      Ob       1     SIL   O00xO       1     -1.05    15.999
    5065      Ob       1     SIL   O00xP       1     -1.05    15.999
    5066      Ob       1     SIL   O00xQ       1     -1.05    15.999
    5067      Si       1     SIL   Si0Tj       1       2.1    28.086
    5068      Si       1     SIL   Si0Tk       1       2.1    28.086
    5069      Si       1     SIL   Si0Tl       1       2.1    28.086
    5070      Ob       1     SIL   O00xR       1     -1.05    15.999
    5071      Ob       1     SIL   O00xS       1     -1.05    15.999
    5072      Ob       1     SIL   O00xT       1     -1.05    15.999
    5073      Ob       1     SIL   O00xU       1     -1.05    15.999
    5074      Ob       1     SIL   O00xV       1     -1.05    15.999
    5075      Ob       1     SIL   O00xW       1     -1.05    15.999
    5076      Si       1     SIL   Si0Tm       1       2.1    28.086
    5077      Si       1     SIL   Si0Tn       1       2.1    28.086
    5078      Si       1     SIL   Si0To       1       2.1    28.086
    5079      Ob       1     SIL   O00xX       1     -1.05    15.999
    5080      Ob       1     SIL   O00xY       1     -1.05    15.999
    5081      Ob       1     SIL   O00xZ       1     -1.05    15.999
    5082      Ob       1     SIL   O00xa       1     -1.05    15.999
    5083      Ob       1     SIL   O00xb       1     -1.05    15.999
    5084      Ob       1     SIL   O00xc       1     -1.05    15.999
    5085      Si       1     SIL   Si0Tp       1       2.1    28.086
    5086      Si       1     SIL   Si0Tq       1       2.1    28.086
    5087      Si       1     SIL   Si0Tr       1       2.1    28.086
    5088      Ob       1     SIL   O00xd       1     -1.05    15.999
    5089      Ob       1     SIL   O00xe       1     -1.05    15.999
    5090      Ob       1     SIL   O00xf       1     -1.05    15.999
    5091      Ob       1     SIL   O00xg       1     -1.05    15.999
    5092      Ob       1     SIL   O00xh       1     -1.05    15.999
    5093      Ob       1     SIL   O00xi       1     -1.05    15.999
    5094      Si       1     SIL   Si0Ts       1       2.1    28.086
    5095      Si       1     SIL   Si0Tt       1       2.1    28.086
    5096      Si       1     SIL   Si0Tu       1       2.1    28.086
    5097      Ob       1     SIL   O00xj       1     -1.05    15.999
    5098      Ob       1     SIL   O00xk       1     -1.05    15.999
    5099      Ob       1     SIL   O00xl       1     -1.05    15.999
    5100      Ob       1     SIL   O00xm       1     -1.05    15.999
    5101      Ob       1     SIL   O00xn       1     -1.05    15.999
    5102      Ob       1     SIL   O00xo       1     -1.05    15.999
    5103      Si       1     SIL   Si0Tv       1       2.1    28.086
    5104      Si       1     SIL   Si0Tw       1       2.1    28.086
    5105      Si       1     SIL   Si0Tx       1       2.1    28.086
    5106      Ob       1     SIL   O00xp       1     -1.05    15.999
    5107      Ob       1     SIL   O00xq       1     -1.05    15.999
    5108      Ob       1     SIL   O00xr       1     -1.05    15.999
    5109      Ob       1     SIL   O00xs       1     -1.05    15.999
    5110      Ob       1     SIL   O00xt       1     -1.05    15.999
    5111      Ob       1     SIL   O00xu       1     -1.05    15.999
    5112      Si       1     SIL   Si0Ty       1       2.1    28.086
    5113      Si       1     SIL   Si0Tz       1       2.1    28.086
    5114      Si       1     SIL   Si0U0       1       2.1    28.086
    5115      Ob       1     SIL   O00xv       1     -1.05    15.999
    5116      Ob       1     SIL   O00xw       1     -1.05    15.999
    5117      Ob       1     SIL   O00xx       1     -1.05    15.999
    5118      Ob       1     SIL   O00xy       1     -1.05    15.999
    5119      Ob       1     SIL   O00xz       1     -1.05    15.999
    5120      Ob       1     SIL   O00y0       1     -1.05    15.999
    5121      Si       1     SIL   Si0U1       1       2.1    28.086
    5122      Si       1     SIL   Si0U2       1       2.1    28.086
    5123      Si       1     SIL   Si0U3       1       2.1    28.086
    5124      Ob       1     SIL   O00y1       1     -1.05    15.999
    5125       O       1     SIL   O00y2       1    -0.525    15.999
    5126       O       1     SIL   O00y3       1    -0.525    15.999
    5127      Ob       1     SIL   O00y4       1     -1.05    15.999
    5128      Ob       1     SIL   O00y5       1     -1.05    15.999
    5129      Ob       1     SIL   O00y6       1     -1.05    15.999
    5130      Si       1     SIL   Si0U4       1       2.1    28.086
    5131      Si       1     SIL   Si0U5       1       2.1    28.086
    5132      Si       1     SIL   Si0U6       1       2.1    28.086
    5133      Ob       1     SIL   O00y7       1     -1.05    15.999
    5134      Ob       1     SIL   O00y8       1     -1.05    15.999
    5135      Ob       1     SIL   O00y9       1     -1.05    15.999
    5136      Ob       1     SIL   O00yA       1     -1.05    15.999
    5137      Ob       1     SIL   O00yB       1     -1.05    15.999
    5138      Ob       1     SIL   O00yC       1     -1.05    15.999
    5139      Si       1     SIL   Si0U7       1       2.1    28.086
    5140      Si       1     SIL   Si0U8       1       2.1    28.086
    5141      Si       1     SIL   Si0U9       1       2.1    28.086
    5142      Ob       1     SIL   O00yD       1     -1.05    15.999
    5143      Ob       1     SIL   O00yE       1     -1.05    15.999
    5144      Ob       1     SIL   O00yF       1     -1.05    15.999
    5145      Ob       1     SIL   O00yG       1     -1.05    15.999
    5146      Ob       1     SIL   O00yH       1     -1.05    15.999
    5147      Ob       1     SIL   O00yI       1     -1.05    15.999
    5148      Si       1     SIL   Si0UA       1       2.1    28.086
    5149      Si       1     SIL   Si0UB       1       2.1    28.086
    5150      Si       1     SIL   Si0UC       1       2.1    28.086
    5151      Ob       1     SIL   O00yJ       1     -1.05    15.999
    5152      Ob       1     SIL   O00yK       1     -1.05    15.999
    5153      Ob       1     SIL   O00yL       1     -1.05    15.999
    5154      Ob       1     SIL   O00yM       1     -1.05    15.999
    5155      Ob       1     SIL   O00yN       1     -1.05    15.999
    5156      Ob       1     SIL   O00yO       1     -1.05    15.999
    5157      Si       1     SIL   Si0UD       1       2.1    28.086
    5158      Si       1     SIL   Si0UE       1       2.1    28.086
    5159      Si       1     SIL   Si0UF       1       2.1    28.086
    5160      Ob       1     SIL   O00yP       1     -1.05    15.999
    5161      Ob       1     SIL   O00yQ       1     -1.05    15.999
    5162      Ob       1     SIL   O00yR       1     -1.05    15.999
    5163      Ob       1     SIL   O00yS       1     -1.05    15.999
    5164      Ob       1     SIL   O00yT       1     -1.05    15.999
    5165      Ob       1     SIL   O00yU       1     -1.05    15.999
    5166      Si       1     SIL   Si0UG       1       2.1    28.086
    5167      Si       1     SIL   Si0UH       1       2.1    28.086
    5168      Si       1     SIL   Si0UI       1       2.1    28.086
    5169      Ob       1     SIL   O00yV       1     -1.05    15.999
    5170      Ob       1     SIL   O00yW       1     -1.05    15.999
    5171      Ob       1     SIL   O00yX       1     -1.05    15.999
    5172      Ob       1     SIL   O00yY       1     -1.05    15.999
    5173      Ob       1     SIL   O00yZ       1     -1.05    15.999
    5174      Ob       1     SIL   O00ya       1     -1.05    15.999
    5175      Si       1     SIL   Si0UJ       1       2.1    28.086
    5176      Si       1     SIL   Si0UK       1       2.1    28.086
    5177      Si       1     SIL   Si0UL       1       2.1    28.086
    5178      Ob       1     SIL   O00yb       1     -1.05    15.999
    5179      Ob       1     SIL   O00yc       1     -1.05    15.999
    5180      Ob       1     SIL   O00yd       1     -1.05    15.999
    5181      Ob       1     SIL   O00ye       1     -1.05    15.999
    5182      Ob       1     SIL   O00yf       1     -1.05    15.999
    5183      Ob       1     SIL   O00yg       1     -1.05    15.999
    5184      Si       1     SIL   Si0UM       1       2.1    28.086
    5185      Si       1     SIL   Si0UN       1       2.1    28.086
    5186      Si       1     SIL   Si0UO       1       2.1    28.086
    5187      Ob       1     SIL   O00yh       1     -1.05    15.999
    5188      Ob       1     SIL   O00yi       1     -1.05    15.999
    5189      Ob       1     SIL   O00yj       1     -1.05    15.999
    5190      Ob       1     SIL   O00yk       1     -1.05    15.999
    5191      Ob       1     SIL   O00yl       1     -1.05    15.999
    5192      Ob       1     SIL   O00ym       1     -1.05    15.999
    5193      Si       1     SIL   Si0UP       1       2.1    28.086
    5194      Si       1     SIL   Si0UQ       1       2.1    28.086
    5195      Si       1     SIL   Si0UR       1       2.1    28.086
    5196      Ob       1     SIL   O00yn       1     -1.05    15.999
    5197      Ob       1     SIL   O00yo       1     -1.05    15.999
    5198      Ob       1     SIL   O00yp       1     -1.05    15.999
    5199      Ob       1     SIL   O00yq       1     -1.05    15.999
    5200      Ob       1     SIL   O00yr       1     -1.05    15.999
    5201      Ob       1     SIL   O00ys       1     -1.05    15.999
    5202      Si       1     SIL   Si0US       1       2.1    28.086
    5203      Si       1     SIL   Si0UT       1       2.1    28.086
    5204      Si       1     SIL   Si0UU       1       2.1    28.086
    5205      Ob       1     SIL   O00yt       1     -1.05    15.999
    5206      Ob       1     SIL   O00yu       1     -1.05    15.999
    5207      Ob       1     SIL   O00yv       1     -1.05    15.999
    5208      Ob       1     SIL   O00yw       1     -1.05    15.999
    5209      Ob       1     SIL   O00yx       1     -1.05    15.999
    5210      Ob       1     SIL   O00yy       1     -1.05    15.999
    5211      Si       1     SIL   Si0UV       1       2.1    28.086
    5212      Si       1     SIL   Si0UW       1       2.1    28.086
    5213      Si       1     SIL   Si0UX       1       2.1    28.086
    5214      Ob       1     SIL   O00yz       1     -1.05    15.999
    5215      Ob       1     SIL   O00z0       1     -1.05    15.999
    5216      Ob       1     SIL   O00z1       1     -1.05    15.999
    5217      Ob       1     SIL   O00z2       1     -1.05    15.999
    5218      Ob       1     SIL   O00z3       1     -1.05    15.999
    5219      Ob       1     SIL   O00z4       1     -1.05    15.999
    5220      Si       1     SIL   Si0UY       1       2.1    28.086
    5221      Si       1     SIL   Si0UZ       1       2.1    28.086
    5222      Si       1     SIL   Si0Ua       1       2.1    28.086
    5223      Ob       1     SIL   O00z5       1     -1.05    15.999
    5224      Ob       1     SIL   O00z6       1     -1.05    15.999
    5225      Ob       1     SIL   O00z7       1     -1.05    15.999
    5226      Ob       1     SIL   O00z8       1     -1.05    15.999
    5227      Ob       1     SIL   O00z9       1     -1.05    15.999
    5228      Ob       1     SIL   O00zA       1     -1.05    15.999
    5229      Si       1     SIL   Si0Ub       1       2.1    28.086
    5230      Si       1     SIL   Si0Uc       1       2.1    28.086
    5231      Si       1     SIL   Si0Ud       1       2.1    28.086
    5232      Ob       1     SIL   O00zB       1     -1.05    15.999
    5233      Ob       1     SIL   O00zC       1     -1.05    15.999
    5234      Ob       1     SIL   O00zD       1     -1.05    15.999
    5235      Ob       1     SIL   O00zE       1     -1.05    15.999
    5236      Ob       1     SIL   O00zF       1     -1.05    15.999
    5237      Ob       1     SIL   O00zG       1     -1.05    15.999
    5238      Si       1     SIL   Si0Ue       1       2.1    28.086
    5239      Si       1     SIL   Si0Uf       1       2.1    28.086
    5240      Si       1     SIL   Si0Ug       1       2.1    28.086
    5241      Ob       1     SIL   O00zH       1     -1.05    15.999
    5242      Ob       1     SIL   O00zI       1     -1.05    15.999
    5243      Ob       1     SIL   O00zJ       1     -1.05    15.999
    5244      Ob       1     SIL   O00zK       1     -1.05    15.999
    5245      Ob       1     SIL   O00zL       1     -1.05    15.999
    5246      Ob       1     SIL   O00zM       1     -1.05    15.999
    5247      Si       1     SIL   Si0Uh       1       2.1    28.086
    5248      Si       1     SIL   Si0Ui       1       2.1    28.086
    5249      Si       1     SIL   Si0Uj       1       2.1    28.086
    5250      Ob       1     SIL   O00zN       1     -1.05    15.999
    5251      Ob       1     SIL   O00zO       1     -1.05    15.999
    5252      Ob       1     SIL   O00zP       1     -1.05    15.999
    5253      Ob       1     SIL   O00zQ       1     -1.05    15.999
    5254      Ob       1     SIL   O00zR       1     -1.05    15.999
    5255      Ob       1     SIL   O00zS       1     -1.05    15.999
    5256      Si       1     SIL   Si0Uk       1       2.1    28.086
    5257      Si       1     SIL   Si0Ul       1       2.1    28.086
    5258      Si       1     SIL   Si0Um       1       2.1    28.086
    5259      Ob       1     SIL   O00zT       1     -1.05    15.999
    5260      Ob       1     SIL   O00zU       1     -1.05    15.999
    5261      Ob       1     SIL   O00zV       1     -1.05    15.999
    5262      Ob       1     SIL   O00zW       1     -1.05    15.999
    5263      Ob       1     SIL   O00zX       1     -1.05    15.999
    5264      Ob       1     SIL   O00zY       1     -1.05    15.999
    5265      Si       1     SIL   Si0Un       1       2.1    28.086
    5266      Si       1     SIL   Si0Uo       1       2.1    28.086
    5267      Si       1     SIL   Si0Up       1       2.1    28.086
    5268      Ob       1     SIL   O00zZ       1     -1.05    15.999
    5269      Ob       1     SIL   O00za       1     -1.05    15.999
    5270      Ob       1     SIL   O00zb       1     -1.05    15.999
    5271      Ob       1     SIL   O00zc       1     -1.05    15.999
    5272      Ob       1     SIL   O00zd       1     -1.05    15.999
    5273      Ob       1     SIL   O00ze       1     -1.05    15.999
    5274      Si       1     SIL   Si0Uq       1       2.1    28.086
    5275      Si       1     SIL   Si0Ur       1       2.1    28.086
    5276      Si       1     SIL   Si0Us       1       2.1    28.086
    5277      Ob       1     SIL   O00zf       1     -1.05    15.999
    5278      Ob       1     SIL   O00zg       1     -1.05    15.999
    5279      Ob       1     SIL   O00zh       1     -1.05    15.999
    5280      Ob       1     SIL   O00zi       1     -1.05    15.999
    5281      Ob       1     SIL   O00zj       1     -1.05    15.999
    5282      Ob       1     SIL   O00zk       1     -1.05    15.999
    5283      Si       1     SIL   Si0Ut       1       2.1    28.086
    5284      Si       1     SIL   Si0Uu       1       2.1    28.086
    5285      Si       1     SIL   Si0Uv       1       2.1    28.086
    5286      Ob       1     SIL   O00zl       1     -1.05    15.999
    5287      Ob       1     SIL   O00zm       1     -1.05    15.999
    5288      Ob       1     SIL   O00zn       1     -1.05    15.999
    5289      Ob       1     SIL   O00zo       1     -1.05    15.999
    5290      Ob       1     SIL   O00zp       1     -1.05    15.999
    5291      Ob       1     SIL   O00zq       1     -1.05    15.999
    5292      Si       1     SIL   Si0Uw       1       2.1    28.086
    5293      Si       1     SIL   Si0Ux       1       2.1    28.086
    5294      Si       1     SIL   Si0Uy       1       2.1    28.086
    5295      Ob       1     SIL   O00zr       1     -1.05    15.999
    5296      Ob       1     SIL   O00zs       1     -1.05    15.999
    5297      Ob       1     SIL   O00zt       1     -1.05    15.999
    5298      Ob       1     SIL   O00zu       1     -1.05    15.999
    5299      Ob       1     SIL   O00zv       1     -1.05    15.999
    5300      Ob       1     SIL   O00zw       1     -1.05    15.999
    5301      Si       1     SIL   Si0Uz       1       2.1    28.086
    5302      Si       1     SIL   Si0V0       1       2.1    28.086
    5303      Si       1     SIL   Si0V1       1       2.1    28.086
    5304      Ob       1     SIL   O00zx       1     -1.05    15.999
    5305      Ob       1     SIL   O00zy       1     -1.05    15.999
    5306      Ob       1     SIL   O00zz       1     -1.05    15.999
    5307      Ob       1     SIL   O0100       1     -1.05    15.999
    5308      Ob       1     SIL   O0101       1     -1.05    15.999
    5309      Ob       1     SIL   O0102       1     -1.05    15.999
    5310      Si       1     SIL   Si0V2       1       2.1    28.086
    5311      Si       1     SIL   Si0V3       1       2.1    28.086
    5312      Si       1     SIL   Si0V4       1       2.1    28.086
    5313      Ob       1     SIL   O0103       1     -1.05    15.999
    5314      Ob       1     SIL   O0104       1     -1.05    15.999
    5315      Ob       1     SIL   O0105       1     -1.05    15.999
    5316      Ob       1     SIL   O0106       1     -1.05    15.999
    5317      Ob       1     SIL   O0107       1     -1.05    15.999
    5318      Ob       1     SIL   O0108       1     -1.05    15.999
    5319      Si       1     SIL   Si0V5       1       2.1    28.086
    5320      Si       1     SIL   Si0V6       1       2.1    28.086
    5321      Si       1     SIL   Si0V7       1       2.1    28.086
    5322      Ob       1     SIL   O0109       1     -1.05    15.999
    5323      Ob       1     SIL   O010A       1     -1.05    15.999
    5324      Ob       1     SIL   O010B       1     -1.05    15.999
    5325      Ob       1     SIL   O010C       1     -1.05    15.999
    5326      Ob       1     SIL   O010D       1     -1.05    15.999
    5327      Ob       1     SIL   O010E       1     -1.05    15.999
    5328      Si       1     SIL   Si0V8       1       2.1    28.086
    5329      Si       1     SIL   Si0V9       1       2.1    28.086
    5330      Si       1     SIL   Si0VA       1       2.1    28.086
    5331      Ob       1     SIL   O010F       1     -1.05    15.999
    5332       O       1     SIL   O010G       1    -0.525    15.999
    5333       O       1     SIL   O010H       1    -0.525    15.999
    5334      Ob       1     SIL   O010I       1     -1.05    15.999
    5335      Ob       1     SIL   O010J       1     -1.05    15.999
    5336      Ob       1     SIL   O010K       1     -1.05    15.999
    5337      Si       1     SIL   Si0VB       1       2.1    28.086
    5338      Si       1     SIL   Si0VC       1       2.1    28.086
    5339      Si       1     SIL   Si0VD       1       2.1    28.086
    5340      Ob       1     SIL   O010L       1     -1.05    15.999
    5341      Ob       1     SIL   O010M       1     -1.05    15.999
    5342      Ob       1     SIL   O010N       1     -1.05    15.999
    5343      Ob       1     SIL   O010O       1     -1.05    15.999
    5344      Ob       1     SIL   O010P       1     -1.05    15.999
    5345      Ob       1     SIL   O010Q       1     -1.05    15.999
    5346      Si       1     SIL   Si0VE       1       2.1    28.086
    5347      Si       1     SIL   Si0VF       1       2.1    28.086
    5348      Si       1     SIL   Si0VG       1       2.1    28.086
    5349      Ob       1     SIL   O010R       1     -1.05    15.999
    5350      Ob       1     SIL   O010S       1     -1.05    15.999
    5351      Ob       1     SIL   O010T       1     -1.05    15.999
    5352      Ob       1     SIL   O010U       1     -1.05    15.999
    5353      Ob       1     SIL   O010V       1     -1.05    15.999
    5354      Ob       1     SIL   O010W       1     -1.05    15.999
    5355      Si       1     SIL   Si0VH       1       2.1    28.086
    5356      Si       1     SIL   Si0VI       1       2.1    28.086
    5357      Si       1     SIL   Si0VJ       1       2.1    28.086
    5358      Ob       1     SIL   O010X       1     -1.05    15.999
    5359      Ob       1     SIL   O010Y       1     -1.05    15.999
    5360      Ob       1     SIL   O010Z       1     -1.05    15.999
    5361      Ob       1     SIL   O010a       1     -1.05    15.999
    5362      Ob       1     SIL   O010b       1     -1.05    15.999
    5363      Ob       1     SIL   O010c       1     -1.05    15.999
    5364      Si       1     SIL   Si0VK       1       2.1    28.086
    5365      Si       1     SIL   Si0VL       1       2.1    28.086
    5366      Si       1     SIL   Si0VM       1       2.1    28.086
    5367      Ob       1     SIL   O010d       1     -1.05    15.999
    5368      Ob       1     SIL   O010e       1     -1.05    15.999
    5369      Ob       1     SIL   O010f       1     -1.05    15.999
    5370      Ob       1     SIL   O010g       1     -1.05    15.999
    5371      Ob       1     SIL   O010h       1     -1.05    15.999
    5372      Ob       1     SIL   O010i       1     -1.05    15.999
    5373      Si       1     SIL   Si0VN       1       2.1    28.086
    5374      Si       1     SIL   Si0VO       1       2.1    28.086
    5375      Si       1     SIL   Si0VP       1       2.1    28.086
    5376      Ob       1     SIL   O010j       1     -1.05    15.999
    5377      Ob       1     SIL   O010k       1     -1.05    15.999
    5378      Ob       1     SIL   O010l       1     -1.05    15.999
    5379      Ob       1     SIL   O010m       1     -1.05    15.999
    5380      Ob       1     SIL   O010n       1     -1.05    15.999
    5381      Ob       1     SIL   O010o       1     -1.05    15.999
    5382      Si       1     SIL   Si0VQ       1       2.1    28.086
    5383      Si       1     SIL   Si0VR       1       2.1    28.086
    5384      Si       1     SIL   Si0VS       1       2.1    28.086
    5385      Ob       1     SIL   O010p       1     -1.05    15.999
    5386      Ob       1     SIL   O010q       1     -1.05    15.999
    5387      Ob       1     SIL   O010r       1     -1.05    15.999
    5388      Ob       1     SIL   O010s       1     -1.05    15.999
    5389      Ob       1     SIL   O010t       1     -1.05    15.999
    5390      Ob       1     SIL   O010u       1     -1.05    15.999
    5391      Si       1     SIL   Si0VT       1       2.1    28.086
    5392      Si       1     SIL   Si0VU       1       2.1    28.086
    5393      Si       1     SIL   Si0VV       1       2.1    28.086
    5394      Ob       1     SIL   O010v       1     -1.05    15.999
    5395      Ob       1     SIL   O010w       1     -1.05    15.999
    5396      Ob       1     SIL   O010x       1     -1.05    15.999
    5397      Ob       1     SIL   O010y       1     -1.05    15.999
    5398      Ob       1     SIL   O010z       1     -1.05    15.999
    5399      Ob       1     SIL   O0110       1     -1.05    15.999
    5400      Si       1     SIL   Si0VW       1       2.1    28.086
    5401      Si       1     SIL   Si0VX       1       2.1    28.086
    5402      Si       1     SIL   Si0VY       1       2.1    28.086
    5403      Ob       1     SIL   O0111       1     -1.05    15.999
    5404      Ob       1     SIL   O0112       1     -1.05    15.999
    5405      Ob       1     SIL   O0113       1     -1.05    15.999
    5406      Ob       1     SIL   O0114       1     -1.05    15.999
    5407      Ob       1     SIL   O0115       1     -1.05    15.999
    5408      Ob       1     SIL   O0116       1     -1.05    15.999
    5409      Si       1     SIL   Si0VZ       1       2.1    28.086
    5410      Si       1     SIL   Si0Va       1       2.1    28.086
    5411      Si       1     SIL   Si0Vb       1       2.1    28.086
    5412      Ob       1     SIL   O0117       1     -1.05    15.999
    5413      Ob       1     SIL   O0118       1     -1.05    15.999
    5414      Ob       1     SIL   O0119       1     -1.05    15.999
    5415      Ob       1     SIL   O011A       1     -1.05    15.999
    5416      Ob       1     SIL   O011B       1     -1.05    15.999
    5417      Ob       1     SIL   O011C       1     -1.05    15.999
    5418      Si       1     SIL   Si0Vc       1       2.1    28.086
    5419      Si       1     SIL   Si0Vd       1       2.1    28.086
    5420      Si       1     SIL   Si0Ve       1       2.1    28.086
    5421      Ob       1     SIL   O011D       1     -1.05    15.999
    5422      Ob       1     SIL   O011E       1     -1.05    15.999
    5423      Ob       1     SIL   O011F       1     -1.05    15.999
    5424      Ob       1     SIL   O011G       1     -1.05    15.999
    5425      Ob       1     SIL   O011H       1     -1.05    15.999
    5426      Ob       1     SIL   O011I       1     -1.05    15.999
    5427      Si       1     SIL   Si0Vf       1       2.1    28.086
    5428      Si       1     SIL   Si0Vg       1       2.1    28.086
    5429      Si       1     SIL   Si0Vh       1       2.1    28.086
    5430      Ob       1     SIL   O011J       1     -1.05    15.999
    5431      Ob       1     SIL   O011K       1     -1.05    15.999
    5432      Ob       1     SIL   O011L       1     -1.05    15.999
    5433      Ob       1     SIL   O011M       1     -1.05    15.999
    5434      Ob       1     SIL   O011N       1     -1.05    15.999
    5435      Ob       1     SIL   O011O       1     -1.05    15.999
    5436      Si       1     SIL   Si0Vi       1       2.1    28.086
    5437      Si       1     SIL   Si0Vj       1       2.1    28.086
    5438      Si       1     SIL   Si0Vk       1       2.1    28.086
    5439      Ob       1     SIL   O011P       1     -1.05    15.999
    5440      Ob       1     SIL   O011Q       1     -1.05    15.999
    5441      Ob       1     SIL   O011R       1     -1.05    15.999
    5442      Ob       1     SIL   O011S       1     -1.05    15.999
    5443      Ob       1     SIL   O011T       1     -1.05    15.999
    5444      Ob       1     SIL   O011U       1     -1.05    15.999
    5445      Si       1     SIL   Si0Vl       1       2.1    28.086
    5446      Si       1     SIL   Si0Vm       1       2.1    28.086
    5447      Si       1     SIL   Si0Vn       1       2.1    28.086
    5448      Ob       1     SIL   O011V       1     -1.05    15.999
    5449      Ob       1     SIL   O011W       1     -1.05    15.999
    5450      Ob       1     SIL   O011X       1     -1.05    15.999
    5451      Ob       1     SIL   O011Y       1     -1.05    15.999
    5452      Ob       1     SIL   O011Z       1     -1.05    15.999
    5453      Ob       1     SIL   O011a       1     -1.05    15.999
    5454      Si       1     SIL   Si0Vo       1       2.1    28.086
    5455      Si       1     SIL   Si0Vp       1       2.1    28.086
    5456      Si       1     SIL   Si0Vq       1       2.1    28.086
    5457      Ob       1     SIL   O011b       1     -1.05    15.999
    5458      Ob       1     SIL   O011c       1     -1.05    15.999
    5459      Ob       1     SIL   O011d       1     -1.05    15.999
    5460      Ob       1     SIL   O011e       1     -1.05    15.999
    5461      Ob       1     SIL   O011f       1     -1.05    15.999
    5462      Ob       1     SIL   O011g       1     -1.05    15.999
    5463      Si       1     SIL   Si0Vr       1       2.1    28.086
    5464      Si       1     SIL   Si0Vs       1       2.1    28.086
    5465      Si       1     SIL   Si0Vt       1       2.1    28.086
    5466      Ob       1     SIL   O011h       1     -1.05    15.999
    5467      Ob       1     SIL   O011i       1     -1.05    15.999
    5468      Ob       1     SIL   O011j       1     -1.05    15.999
    5469      Ob       1     SIL   O011k       1     -1.05    15.999
    5470      Ob       1     SIL   O011l       1     -1.05    15.999
    5471      Ob       1     SIL   O011m       1     -1.05    15.999
    5472      Si       1     SIL   Si0Vu       1       2.1    28.086
    5473      Si       1     SIL   Si0Vv       1       2.1    28.086
    5474      Si       1     SIL   Si0Vw       1       2.1    28.086
    5475      Ob       1     SIL   O011n       1     -1.05    15.999
    5476      Ob       1     SIL   O011o       1     -1.05    15.999
    5477      Ob       1     SIL   O011p       1     -1.05    15.999
    5478      Ob       1     SIL   O011q       1     -1.05    15.999
    5479      Ob       1     SIL   O011r       1     -1.05    15.999
    5480      Ob       1     SIL   O011s       1     -1.05    15.999
    5481      Si       1     SIL   Si0Vx       1       2.1    28.086
    5482      Si       1     SIL   Si0Vy       1       2.1    28.086
    5483      Si       1     SIL   Si0Vz       1       2.1    28.086
    5484      Ob       1     SIL   O011t       1     -1.05    15.999
    5485      Ob       1     SIL   O011u       1     -1.05    15.999
    5486      Ob       1     SIL   O011v       1     -1.05    15.999
    5487      Ob       1     SIL   O011w       1     -1.05    15.999
    5488      Ob       1     SIL   O011x       1     -1.05    15.999
    5489      Ob       1     SIL   O011y       1     -1.05    15.999
    5490      Si       1     SIL   Si0W0       1       2.1    28.086
    5491      Si       1     SIL   Si0W1       1       2.1    28.086
    5492      Si       1     SIL   Si0W2       1       2.1    28.086
    5493      Ob       1     SIL   O011z       1     -1.05    15.999
    5494      Ob       1     SIL   O0120       1     -1.05    15.999
    5495      Ob       1     SIL   O0121       1     -1.05    15.999
    5496      Ob       1     SIL   O0122       1     -1.05    15.999
    5497      Ob       1     SIL   O0123       1     -1.05    15.999
    5498      Ob       1     SIL   O0124       1     -1.05    15.999
    5499      Si       1     SIL   Si0W3       1       2.1    28.086
    5500      Si       1     SIL   Si0W4       1       2.1    28.086
    5501      Si       1     SIL   Si0W5       1       2.1    28.086
    5502      Ob       1     SIL   O0125       1     -1.05    15.999
    5503      Ob       1     SIL   O0126       1     -1.05    15.999
    5504      Ob       1     SIL   O0127       1     -1.05    15.999
    5505      Ob       1     SIL   O0128       1     -1.05    15.999
    5506      Ob       1     SIL   O0129       1     -1.05    15.999
    5507      Ob       1     SIL   O012A       1     -1.05    15.999
    5508      Si       1     SIL   Si0W6       1       2.1    28.086
    5509      Si       1     SIL   Si0W7       1       2.1    28.086
    5510      Si       1     SIL   Si0W8       1       2.1    28.086
    5511      Ob       1     SIL   O012B       1     -1.05    15.999
    5512      Ob       1     SIL   O012C       1     -1.05    15.999
    5513      Ob       1     SIL   O012D       1     -1.05    15.999
    5514      Ob       1     SIL   O012E       1     -1.05    15.999
    5515      Ob       1     SIL   O012F       1     -1.05    15.999
    5516      Ob       1     SIL   O012G       1     -1.05    15.999
    5517      Si       1     SIL   Si0W9       1       2.1    28.086
    5518      Si       1     SIL   Si0WA       1       2.1    28.086
    5519      Si       1     SIL   Si0WB       1       2.1    28.086
    5520      Ob       1     SIL   O012H       1     -1.05    15.999
    5521      Ob       1     SIL   O012I       1     -1.05    15.999
    5522      Ob       1     SIL   O012J       1     -1.05    15.999
    5523      Ob       1     SIL   O012K       1     -1.05    15.999
    5524      Ob       1     SIL   O012L       1     -1.05    15.999
    5525      Ob       1     SIL   O012M       1     -1.05    15.999
    5526      Si       1     SIL   Si0WC       1       2.1    28.086
    5527      Si       1     SIL   Si0WD       1       2.1    28.086
    5528      Si       1     SIL   Si0WE       1       2.1    28.086
    5529      Ob       1     SIL   O012N       1     -1.05    15.999
    5530      Ob       1     SIL   O012O       1     -1.05    15.999
    5531      Ob       1     SIL   O012P       1     -1.05    15.999
    5532      Ob       1     SIL   O012Q       1     -1.05    15.999
    5533      Ob       1     SIL   O012R       1     -1.05    15.999
    5534      Ob       1     SIL   O012S       1     -1.05    15.999
    5535      Si       1     SIL   Si0WF       1       2.1    28.086
    5536      Si       1     SIL   Si0WG       1       2.1    28.086
    5537      Si       1     SIL   Si0WH       1       2.1    28.086
    5538      Ob       1     SIL   O012T       1     -1.05    15.999
    5539       O       1     SIL   O012U       1    -0.525    15.999
    5540       O       1     SIL   O012V       1    -0.525    15.999
    5541      Ob       1     SIL   O012W       1     -1.05    15.999
    5542      Ob       1     SIL   O012X       1     -1.05    15.999
    5543      Ob       1     SIL   O012Y       1     -1.05    15.999
    5544      Si       1     SIL   Si0WI       1       2.1    28.086
    5545      Si       1     SIL   Si0WJ       1       2.1    28.086
    5546      Si       1     SIL   Si0WK       1       2.1    28.086
    5547      Ob       1     SIL   O012Z       1     -1.05    15.999
    5548      Ob       1     SIL   O012a       1     -1.05    15.999
    5549      Ob       1     SIL   O012b       1     -1.05    15.999
    5550      Ob       1     SIL   O012c       1     -1.05    15.999
    5551      Ob       1     SIL   O012d       1     -1.05    15.999
    5552      Ob       1     SIL   O012e       1     -1.05    15.999
    5553      Si       1     SIL   Si0WL       1       2.1    28.086
    5554      Si       1     SIL   Si0WM       1       2.1    28.086
    5555      Si       1     SIL   Si0WN       1       2.1    28.086
    5556      Ob       1     SIL   O012f       1     -1.05    15.999
    5557      Ob       1     SIL   O012g       1     -1.05    15.999
    5558      Ob       1     SIL   O012h       1     -1.05    15.999
    5559      Ob       1     SIL   O012i       1     -1.05    15.999
    5560      Ob       1     SIL   O012j       1     -1.05    15.999
    5561      Ob       1     SIL   O012k       1     -1.05    15.999
    5562      Si       1     SIL   Si0WO       1       2.1    28.086
    5563      Si       1     SIL   Si0WP       1       2.1    28.086
    5564      Si       1     SIL   Si0WQ       1       2.1    28.086
    5565      Ob       1     SIL   O012l       1     -1.05    15.999
    5566      Ob       1     SIL   O012m       1     -1.05    15.999
    5567      Ob       1     SIL   O012n       1     -1.05    15.999
    5568      Ob       1     SIL   O012o       1     -1.05    15.999
    5569      Ob       1     SIL   O012p       1     -1.05    15.999
    5570      Ob       1     SIL   O012q       1     -1.05    15.999
    5571      Si       1     SIL   Si0WR       1       2.1    28.086
    5572      Si       1     SIL   Si0WS       1       2.1    28.086
    5573      Si       1     SIL   Si0WT       1       2.1    28.086
    5574      Ob       1     SIL   O012r       1     -1.05    15.999
    5575      Ob       1     SIL   O012s       1     -1.05    15.999
    5576      Ob       1     SIL   O012t       1     -1.05    15.999
    5577      Ob       1     SIL   O012u       1     -1.05    15.999
    5578      Ob       1     SIL   O012v       1     -1.05    15.999
    5579      Ob       1     SIL   O012w       1     -1.05    15.999
    5580      Si       1     SIL   Si0WU       1       2.1    28.086
    5581      Si       1     SIL   Si0WV       1       2.1    28.086
    5582      Si       1     SIL   Si0WW       1       2.1    28.086
    5583      Ob       1     SIL   O012x       1     -1.05    15.999
    5584      Ob       1     SIL   O012y       1     -1.05    15.999
    5585      Ob       1     SIL   O012z       1     -1.05    15.999
    5586      Ob       1     SIL   O0130       1     -1.05    15.999
    5587      Ob       1     SIL   O0131       1     -1.05    15.999
    5588      Ob       1     SIL   O0132       1     -1.05    15.999
    5589      Si       1     SIL   Si0WX       1       2.1    28.086
    5590      Si       1     SIL   Si0WY       1       2.1    28.086
    5591      Si       1     SIL   Si0WZ       1       2.1    28.086
    5592      Ob       1     SIL   O0133       1     -1.05    15.999
    5593      Ob       1     SIL   O0134       1     -1.05    15.999
    5594      Ob       1     SIL   O0135       1     -1.05    15.999
    5595      Ob       1     SIL   O0136       1     -1.05    15.999
    5596      Ob       1     SIL   O0137       1     -1.05    15.999
    5597      Ob       1     SIL   O0138       1     -1.05    15.999
    5598      Si       1     SIL   Si0Wa       1       2.1    28.086
    5599      Si       1     SIL   Si0Wb       1       2.1    28.086
    5600      Si       1     SIL   Si0Wc       1       2.1    28.086
    5601      Ob       1     SIL   O0139       1     -1.05    15.999
    5602      Ob       1     SIL   O013A       1     -1.05    15.999
    5603      Ob       1     SIL   O013B       1     -1.05    15.999
    5604      Ob       1     SIL   O013C       1     -1.05    15.999
    5605      Ob       1     SIL   O013D       1     -1.05    15.999
    5606      Ob       1     SIL   O013E       1     -1.05    15.999
    5607      Si       1     SIL   Si0Wd       1       2.1    28.086
    5608      Si       1     SIL   Si0We       1       2.1    28.086
    5609      Si       1     SIL   Si0Wf       1       2.1    28.086
    5610      Ob       1     SIL   O013F       1     -1.05    15.999
    5611      Ob       1     SIL   O013G       1     -1.05    15.999
    5612      Ob       1     SIL   O013H       1     -1.05    15.999
    5613      Ob       1     SIL   O013I       1     -1.05    15.999
    5614      Ob       1     SIL   O013J       1     -1.05    15.999
    5615      Ob       1     SIL   O013K       1     -1.05    15.999
    5616      Si       1     SIL   Si0Wg       1       2.1    28.086
    5617      Si       1     SIL   Si0Wh       1       2.1    28.086
    5618      Si       1     SIL   Si0Wi       1       2.1    28.086
    5619      Ob       1     SIL   O013L       1     -1.05    15.999
    5620      Ob       1     SIL   O013M       1     -1.05    15.999
    5621      Ob       1     SIL   O013N       1     -1.05    15.999
    5622      Ob       1     SIL   O013O       1     -1.05    15.999
    5623      Ob       1     SIL   O013P       1     -1.05    15.999
    5624      Ob       1     SIL   O013Q       1     -1.05    15.999
    5625      Si       1     SIL   Si0Wj       1       2.1    28.086
    5626      Si       1     SIL   Si0Wk       1       2.1    28.086
    5627      Si       1     SIL   Si0Wl       1       2.1    28.086
    5628      Ob       1     SIL   O013R       1     -1.05    15.999
    5629      Ob       1     SIL   O013S       1     -1.05    15.999
    5630      Ob       1     SIL   O013T       1     -1.05    15.999
    5631      Ob       1     SIL   O013U       1     -1.05    15.999
    5632      Ob       1     SIL   O013V       1     -1.05    15.999
    5633      Ob       1     SIL   O013W       1     -1.05    15.999
    5634      Si       1     SIL   Si0Wm       1       2.1    28.086
    5635      Si       1     SIL   Si0Wn       1       2.1    28.086
    5636      Si       1     SIL   Si0Wo       1       2.1    28.086
    5637      Ob       1     SIL   O013X       1     -1.05    15.999
    5638      Ob       1     SIL   O013Y       1     -1.05    15.999
    5639      Ob       1     SIL   O013Z       1     -1.05    15.999
    5640      Ob       1     SIL   O013a       1     -1.05    15.999
    5641      Ob       1     SIL   O013b       1     -1.05    15.999
    5642      Ob       1     SIL   O013c       1     -1.05    15.999
    5643      Si       1     SIL   Si0Wp       1       2.1    28.086
    5644      Si       1     SIL   Si0Wq       1       2.1    28.086
    5645      Si       1     SIL   Si0Wr       1       2.1    28.086
    5646      Ob       1     SIL   O013d       1     -1.05    15.999
    5647      Ob       1     SIL   O013e       1     -1.05    15.999
    5648      Ob       1     SIL   O013f       1     -1.05    15.999
    5649      Ob       1     SIL   O013g       1     -1.05    15.999
    5650      Ob       1     SIL   O013h       1     -1.05    15.999
    5651      Ob       1     SIL   O013i       1     -1.05    15.999
    5652      Si       1     SIL   Si0Ws       1       2.1    28.086
    5653      Si       1     SIL   Si0Wt       1       2.1    28.086
    5654      Si       1     SIL   Si0Wu       1       2.1    28.086
    5655      Ob       1     SIL   O013j       1     -1.05    15.999
    5656      Ob       1     SIL   O013k       1     -1.05    15.999
    5657      Ob       1     SIL   O013l       1     -1.05    15.999
    5658      Ob       1     SIL   O013m       1     -1.05    15.999
    5659      Ob       1     SIL   O013n       1     -1.05    15.999
    5660      Ob       1     SIL   O013o       1     -1.05    15.999
    5661      Si       1     SIL   Si0Wv       1       2.1    28.086
    5662      Si       1     SIL   Si0Ww       1       2.1    28.086
    5663      Si       1     SIL   Si0Wx       1       2.1    28.086
    5664      Ob       1     SIL   O013p       1     -1.05    15.999
    5665      Ob       1     SIL   O013q       1     -1.05    15.999
    5666      Ob       1     SIL   O013r       1     -1.05    15.999
    5667      Ob       1     SIL   O013s       1     -1.05    15.999
    5668      Ob       1     SIL   O013t       1     -1.05    15.999
    5669      Ob       1     SIL   O013u       1     -1.05    15.999
    5670      Si       1     SIL   Si0Wy       1       2.1    28.086
    5671      Si       1     SIL   Si0Wz       1       2.1    28.086
    5672      Si       1     SIL   Si0X0       1       2.1    28.086
    5673      Ob       1     SIL   O013v       1     -1.05    15.999
    5674      Ob       1     SIL   O013w       1     -1.05    15.999
    5675      Ob       1     SIL   O013x       1     -1.05    15.999
    5676      Ob       1     SIL   O013y       1     -1.05    15.999
    5677      Ob       1     SIL   O013z       1     -1.05    15.999
    5678      Ob       1     SIL   O0140       1     -1.05    15.999
    5679      Si       1     SIL   Si0X1       1       2.1    28.086
    5680      Si       1     SIL   Si0X2       1       2.1    28.086
    5681      Si       1     SIL   Si0X3       1       2.1    28.086
    5682      Ob       1     SIL   O0141       1     -1.05    15.999
    5683      Ob       1     SIL   O0142       1     -1.05    15.999
    5684      Ob       1     SIL   O0143       1     -1.05    15.999
    5685      Ob       1     SIL   O0144       1     -1.05    15.999
    5686      Ob       1     SIL   O0145       1     -1.05    15.999
    5687      Ob       1     SIL   O0146       1     -1.05    15.999
    5688      Si       1     SIL   Si0X4       1       2.1    28.086
    5689      Si       1     SIL   Si0X5       1       2.1    28.086
    5690      Si       1     SIL   Si0X6       1       2.1    28.086
    5691      Ob       1     SIL   O0147       1     -1.05    15.999
    5692      Ob       1     SIL   O0148       1     -1.05    15.999
    5693      Ob       1     SIL   O0149       1     -1.05    15.999
    5694      Ob       1     SIL   O014A       1     -1.05    15.999
    5695      Ob       1     SIL   O014B       1     -1.05    15.999
    5696      Ob       1     SIL   O014C       1     -1.05    15.999
    5697      Si       1     SIL   Si0X7       1       2.1    28.086
    5698      Si       1     SIL   Si0X8       1       2.1    28.086
    5699      Si       1     SIL   Si0X9       1       2.1    28.086
    5700      Ob       1     SIL   O014D       1     -1.05    15.999
    5701      Ob       1     SIL   O014E       1     -1.05    15.999
    5702      Ob       1     SIL   O014F       1     -1.05    15.999
    5703      Ob       1     SIL   O014G       1     -1.05    15.999
    5704      Ob       1     SIL   O014H       1     -1.05    15.999
    5705      Ob       1     SIL   O014I       1     -1.05    15.999
    5706      Si       1     SIL   Si0XA       1       2.1    28.086
    5707      Si       1     SIL   Si0XB       1       2.1    28.086
    5708      Si       1     SIL   Si0XC       1       2.1    28.086
    5709      Ob       1     SIL   O014J       1     -1.05    15.999
    5710      Ob       1     SIL   O014K       1     -1.05    15.999
    5711      Ob       1     SIL   O014L       1     -1.05    15.999
    5712      Ob       1     SIL   O014M       1     -1.05    15.999
    5713      Ob       1     SIL   O014N       1     -1.05    15.999
    5714      Ob       1     SIL   O014O       1     -1.05    15.999
    5715      Si       1     SIL   Si0XD       1       2.1    28.086
    5716      Si       1     SIL   Si0XE       1       2.1    28.086
    5717      Si       1     SIL   Si0XF       1       2.1    28.086
    5718      Ob       1     SIL   O014P       1     -1.05    15.999
    5719      Ob       1     SIL   O014Q       1     -1.05    15.999
    5720      Ob       1     SIL   O014R       1     -1.05    15.999
    5721      Ob       1     SIL   O014S       1     -1.05    15.999
    5722      Ob       1     SIL   O014T       1     -1.05    15.999
    5723      Ob       1     SIL   O014U       1     -1.05    15.999
    5724      Si       1     SIL   Si0XG       1       2.1    28.086
    5725      Si       1     SIL   Si0XH       1       2.1    28.086
    5726      Si       1     SIL   Si0XI       1       2.1    28.086
    5727      Ob       1     SIL   O014V       1     -1.05    15.999
    5728      Ob       1     SIL   O014W       1     -1.05    15.999
    5729      Ob       1     SIL   O014X       1     -1.05    15.999
    5730      Ob       1     SIL   O014Y       1     -1.05    15.999
    5731      Ob       1     SIL   O014Z       1     -1.05    15.999
    5732      Ob       1     SIL   O014a       1     -1.05    15.999
    5733      Si       1     SIL   Si0XJ       1       2.1    28.086
    5734      Si       1     SIL   Si0XK       1       2.1    28.086
    5735      Si       1     SIL   Si0XL       1       2.1    28.086
    5736      Ob       1     SIL   O014b       1     -1.05    15.999
    5737      Ob       1     SIL   O014c       1     -1.05    15.999
    5738      Ob       1     SIL   O014d       1     -1.05    15.999
    5739      Ob       1     SIL   O014e       1     -1.05    15.999
    5740      Ob       1     SIL   O014f       1     -1.05    15.999
    5741      Ob       1     SIL   O014g       1     -1.05    15.999
    5742      Si       1     SIL   Si0XM       1       2.1    28.086
    5743      Si       1     SIL   Si0XN       1       2.1    28.086
    5744      Si       1     SIL   Si0XO       1       2.1    28.086
    5745      Ob       1     SIL   O014h       1     -1.05    15.999
    5746       O       1     SIL   O014i       1    -0.525    15.999
    5747       O       1     SIL   O014j       1    -0.525    15.999
    5748      Ob       1     SIL   O014k       1     -1.05    15.999
    5749      Ob       1     SIL   O014l       1     -1.05    15.999
    5750      Ob       1     SIL   O014m       1     -1.05    15.999
    5751      Si       1     SIL   Si0XP       1       2.1    28.086
    5752      Si       1     SIL   Si0XQ       1       2.1    28.086
    5753      Si       1     SIL   Si0XR       1       2.1    28.086
    5754      Ob       1     SIL   O014n       1     -1.05    15.999
    5755      Ob       1     SIL   O014o       1     -1.05    15.999
    5756      Ob       1     SIL   O014p       1     -1.05    15.999
    5757      Ob       1     SIL   O014q       1     -1.05    15.999
    5758      Ob       1     SIL   O014r       1     -1.05    15.999
    5759      Ob       1     SIL   O014s       1     -1.05    15.999
    5760      Si       1     SIL   Si0XS       1       2.1    28.086
    5761      Si       1     SIL   Si0XT       1       2.1    28.086
    5762      Si       1     SIL   Si0XU       1       2.1    28.086
    5763      Ob       1     SIL   O014t       1     -1.05    15.999
    5764      Ob       1     SIL   O014u       1     -1.05    15.999
    5765      Ob       1     SIL   O014v       1     -1.05    15.999
    5766      Ob       1     SIL   O014w       1     -1.05    15.999
    5767      Ob       1     SIL   O014x       1     -1.05    15.999
    5768      Ob       1     SIL   O014y       1     -1.05    15.999
    5769      Si       1     SIL   Si0XV       1       2.1    28.086
    5770      Si       1     SIL   Si0XW       1       2.1    28.086
    5771      Si       1     SIL   Si0XX       1       2.1    28.086
    5772      Ob       1     SIL   O014z       1     -1.05    15.999
    5773      Ob       1     SIL   O0150       1     -1.05    15.999
    5774      Ob       1     SIL   O0151       1     -1.05    15.999
    5775      Ob       1     SIL   O0152       1     -1.05    15.999
    5776      Ob       1     SIL   O0153       1     -1.05    15.999
    5777      Ob       1     SIL   O0154       1     -1.05    15.999
    5778      Si       1     SIL   Si0XY       1       2.1    28.086
    5779      Si       1     SIL   Si0XZ       1       2.1    28.086
    5780      Si       1     SIL   Si0Xa       1       2.1    28.086
    5781      Ob       1     SIL   O0155       1     -1.05    15.999
    5782      Ob       1     SIL   O0156       1     -1.05    15.999
    5783      Ob       1     SIL   O0157       1     -1.05    15.999
    5784      Ob       1     SIL   O0158       1     -1.05    15.999
    5785      Ob       1     SIL   O0159       1     -1.05    15.999
    5786      Ob       1     SIL   O015A       1     -1.05    15.999
    5787      Si       1     SIL   Si0Xb       1       2.1    28.086
    5788      Si       1     SIL   Si0Xc       1       2.1    28.086
    5789      Si       1     SIL   Si0Xd       1       2.1    28.086
    5790      Ob       1     SIL   O015B       1     -1.05    15.999
    5791      Ob       1     SIL   O015C       1     -1.05    15.999
    5792      Ob       1     SIL   O015D       1     -1.05    15.999
    5793      Ob       1     SIL   O015E       1     -1.05    15.999
    5794      Ob       1     SIL   O015F       1     -1.05    15.999
    5795      Ob       1     SIL   O015G       1     -1.05    15.999
    5796      Si       1     SIL   Si0Xe       1       2.1    28.086
    5797      Si       1     SIL   Si0Xf       1       2.1    28.086
    5798      Si       1     SIL   Si0Xg       1       2.1    28.086
    5799      Ob       1     SIL   O015H       1     -1.05    15.999
    5800      Ob       1     SIL   O015I       1     -1.05    15.999
    5801      Ob       1     SIL   O015J       1     -1.05    15.999
    5802      Ob       1     SIL   O015K       1     -1.05    15.999
    5803      Ob       1     SIL   O015L       1     -1.05    15.999
    5804      Ob       1     SIL   O015M       1     -1.05    15.999
    5805      Si       1     SIL   Si0Xh       1       2.1    28.086
    5806      Si       1     SIL   Si0Xi       1       2.1    28.086
    5807      Si       1     SIL   Si0Xj       1       2.1    28.086
    5808      Ob       1     SIL   O015N       1     -1.05    15.999
    5809      Ob       1     SIL   O015O       1     -1.05    15.999
    5810      Ob       1     SIL   O015P       1     -1.05    15.999
    5811      Ob       1     SIL   O015Q       1     -1.05    15.999
    5812      Ob       1     SIL   O015R       1     -1.05    15.999
    5813      Ob       1     SIL   O015S       1     -1.05    15.999
    5814      Si       1     SIL   Si0Xk       1       2.1    28.086
    5815      Si       1     SIL   Si0Xl       1       2.1    28.086
    5816      Si       1     SIL   Si0Xm       1       2.1    28.086
    5817      Ob       1     SIL   O015T       1     -1.05    15.999
    5818      Ob       1     SIL   O015U       1     -1.05    15.999
    5819      Ob       1     SIL   O015V       1     -1.05    15.999
    5820      Ob       1     SIL   O015W       1     -1.05    15.999
    5821      Ob       1     SIL   O015X       1     -1.05    15.999
    5822      Ob       1     SIL   O015Y       1     -1.05    15.999
    5823      Si       1     SIL   Si0Xn       1       2.1    28.086
    5824      Si       1     SIL   Si0Xo       1       2.1    28.086
    5825      Si       1     SIL   Si0Xp       1       2.1    28.086
    5826      Ob       1     SIL   O015Z       1     -1.05    15.999
    5827      Ob       1     SIL   O015a       1     -1.05    15.999
    5828      Ob       1     SIL   O015b       1     -1.05    15.999
    5829      Ob       1     SIL   O015c       1     -1.05    15.999
    5830      Ob       1     SIL   O015d       1     -1.05    15.999
    5831      Ob       1     SIL   O015e       1     -1.05    15.999
    5832      Si       1     SIL   Si0Xq       1       2.1    28.086
    5833      Si       1     SIL   Si0Xr       1       2.1    28.086
    5834      Si       1     SIL   Si0Xs       1       2.1    28.086
    5835      Ob       1     SIL   O015f       1     -1.05    15.999
    5836      Ob       1     SIL   O015g       1     -1.05    15.999
    5837      Ob       1     SIL   O015h       1     -1.05    15.999
    5838      Ob       1     SIL   O015i       1     -1.05    15.999
    5839      Ob       1     SIL   O015j       1     -1.05    15.999
    5840      Ob       1     SIL   O015k       1     -1.05    15.999
    5841      Si       1     SIL   Si0Xt       1       2.1    28.086
    5842      Si       1     SIL   Si0Xu       1       2.1    28.086
    5843      Si       1     SIL   Si0Xv       1       2.1    28.086
    5844      Ob       1     SIL   O015l       1     -1.05    15.999
    5845      Ob       1     SIL   O015m       1     -1.05    15.999
    5846      Ob       1     SIL   O015n       1     -1.05    15.999
    5847      Ob       1     SIL   O015o       1     -1.05    15.999
    5848      Ob       1     SIL   O015p       1     -1.05    15.999
    5849      Ob       1     SIL   O015q       1     -1.05    15.999
    5850      Si       1     SIL   Si0Xw       1       2.1    28.086
    5851      Si       1     SIL   Si0Xx       1       2.1    28.086
    5852      Si       1     SIL   Si0Xy       1       2.1    28.086
    5853      Ob       1     SIL   O015r       1     -1.05    15.999
    5854      Ob       1     SIL   O015s       1     -1.05    15.999
    5855      Ob       1     SIL   O015t       1     -1.05    15.999
    5856      Ob       1     SIL   O015u       1     -1.05    15.999
    5857      Ob       1     SIL   O015v       1     -1.05    15.999
    5858      Ob       1     SIL   O015w       1     -1.05    15.999
    5859      Si       1     SIL   Si0Xz       1       2.1    28.086
    5860      Si       1     SIL   Si0Y0       1       2.1    28.086
    5861      Si       1     SIL   Si0Y1       1       2.1    28.086
    5862      Ob       1     SIL   O015x       1     -1.05    15.999
    5863      Ob       1     SIL   O015y       1     -1.05    15.999
    5864      Ob       1     SIL   O015z       1     -1.05    15.999
    5865      Ob       1     SIL   O0160       1     -1.05    15.999
    5866      Ob       1     SIL   O0161       1     -1.05    15.999
    5867      Ob       1     SIL   O0162       1     -1.05    15.999
    5868      Si       1     SIL   Si0Y2       1       2.1    28.086
    5869      Si       1     SIL   Si0Y3       1       2.1    28.086
    5870      Si       1     SIL   Si0Y4       1       2.1    28.086
    5871      Ob       1     SIL   O0163       1     -1.05    15.999
    5872      Ob       1     SIL   O0164       1     -1.05    15.999
    5873      Ob       1     SIL   O0165       1     -1.05    15.999
    5874      Ob       1     SIL   O0166       1     -1.05    15.999
    5875      Ob       1     SIL   O0167       1     -1.05    15.999
    5876      Ob       1     SIL   O0168       1     -1.05    15.999
    5877      Si       1     SIL   Si0Y5       1       2.1    28.086
    5878      Si       1     SIL   Si0Y6       1       2.1    28.086
    5879      Si       1     SIL   Si0Y7       1       2.1    28.086
    5880      Ob       1     SIL   O0169       1     -1.05    15.999
    5881      Ob       1     SIL   O016A       1     -1.05    15.999
    5882      Ob       1     SIL   O016B       1     -1.05    15.999
    5883      Ob       1     SIL   O016C       1     -1.05    15.999
    5884      Ob       1     SIL   O016D       1     -1.05    15.999
    5885      Ob       1     SIL   O016E       1     -1.05    15.999
    5886      Si       1     SIL   Si0Y8       1       2.1    28.086
    5887      Si       1     SIL   Si0Y9       1       2.1    28.086
    5888      Si       1     SIL   Si0YA       1       2.1    28.086
    5889      Ob       1     SIL   O016F       1     -1.05    15.999
    5890      Ob       1     SIL   O016G       1     -1.05    15.999
    5891      Ob       1     SIL   O016H       1     -1.05    15.999
    5892      Ob       1     SIL   O016I       1     -1.05    15.999
    5893      Ob       1     SIL   O016J       1     -1.05    15.999
    5894      Ob       1     SIL   O016K       1     -1.05    15.999
    5895      Si       1     SIL   Si0YB       1       2.1    28.086
    5896      Si       1     SIL   Si0YC       1       2.1    28.086
    5897      Si       1     SIL   Si0YD       1       2.1    28.086
    5898      Ob       1     SIL   O016L       1     -1.05    15.999
    5899      Ob       1     SIL   O016M       1     -1.05    15.999
    5900      Ob       1     SIL   O016N       1     -1.05    15.999
    5901      Ob       1     SIL   O016O       1     -1.05    15.999
    5902      Ob       1     SIL   O016P       1     -1.05    15.999
    5903      Ob       1     SIL   O016Q       1     -1.05    15.999
    5904      Si       1     SIL   Si0YE       1       2.1    28.086
    5905      Si       1     SIL   Si0YF       1       2.1    28.086
    5906      Si       1     SIL   Si0YG       1       2.1    28.086
    5907      Ob       1     SIL   O016R       1     -1.05    15.999
    5908      Ob       1     SIL   O016S       1     -1.05    15.999
    5909      Ob       1     SIL   O016T       1     -1.05    15.999
    5910      Ob       1     SIL   O016U       1     -1.05    15.999
    5911      Ob       1     SIL   O016V       1     -1.05    15.999
    5912      Ob       1     SIL   O016W       1     -1.05    15.999
    5913      Si       1     SIL   Si0YH       1       2.1    28.086
    5914      Si       1     SIL   Si0YI       1       2.1    28.086
    5915      Si       1     SIL   Si0YJ       1       2.1    28.086
    5916      Ob       1     SIL   O016X       1     -1.05    15.999
    5917      Ob       1     SIL   O016Y       1     -1.05    15.999
    5918      Ob       1     SIL   O016Z       1     -1.05    15.999
    5919      Ob       1     SIL   O016a       1     -1.05    15.999
    5920      Ob       1     SIL   O016b       1     -1.05    15.999
    5921      Ob       1     SIL   O016c       1     -1.05    15.999
    5922      Si       1     SIL   Si0YK       1       2.1    28.086
    5923      Si       1     SIL   Si0YL       1       2.1    28.086
    5924      Si       1     SIL   Si0YM       1       2.1    28.086
    5925      Ob       1     SIL   O016d       1     -1.05    15.999
    5926      Ob       1     SIL   O016e       1     -1.05    15.999
    5927      Ob       1     SIL   O016f       1     -1.05    15.999
    5928      Ob       1     SIL   O016g       1     -1.05    15.999
    5929      Ob       1     SIL   O016h       1     -1.05    15.999
    5930      Ob       1     SIL   O016i       1     -1.05    15.999
    5931      Si       1     SIL   Si0YN       1       2.1    28.086
    5932      Si       1     SIL   Si0YO       1       2.1    28.086
    5933      Si       1     SIL   Si0YP       1       2.1    28.086
    5934      Ob       1     SIL   O016j       1     -1.05    15.999
    5935      Ob       1     SIL   O016k       1     -1.05    15.999
    5936      Ob       1     SIL   O016l       1     -1.05    15.999
    5937      Ob       1     SIL   O016m       1     -1.05    15.999
    5938      Ob       1     SIL   O016n       1     -1.05    15.999
    5939      Ob       1     SIL   O016o       1     -1.05    15.999
    5940      Si       1     SIL   Si0YQ       1       2.1    28.086
    5941      Si       1     SIL   Si0YR       1       2.1    28.086
    5942      Si       1     SIL   Si0YS       1       2.1    28.086
    5943      Ob       1     SIL   O016p       1     -1.05    15.999
    5944      Ob       1     SIL   O016q       1     -1.05    15.999
    5945      Ob       1     SIL   O016r       1     -1.05    15.999
    5946      Ob       1     SIL   O016s       1     -1.05    15.999
    5947      Ob       1     SIL   O016t       1     -1.05    15.999
    5948      Ob       1     SIL   O016u       1     -1.05    15.999
    5949      Si       1     SIL   Si0YT       1       2.1    28.086
    5950      Si       1     SIL   Si0YU       1       2.1    28.086
    5951      Si       1     SIL   Si0YV       1       2.1    28.086
    5952      Ob       1     SIL   O016v       1     -1.05    15.999
    5953       O       1     SIL   O016w       1    -0.525    15.999
    5954       O       1     SIL   O016x       1    -0.525    15.999
    5955      Ob       1     SIL   O016y       1     -1.05    15.999
    5956      Ob       1     SIL   O016z       1     -1.05    15.999
    5957      Ob       1     SIL   O0170       1     -1.05    15.999
    5958      Si       1     SIL   Si0YW       1       2.1    28.086
    5959      Si       1     SIL   Si0YX       1       2.1    28.086
    5960      Si       1     SIL   Si0YY       1       2.1    28.086
    5961      Ob       1     SIL   O0171       1     -1.05    15.999
    5962      Ob       1     SIL   O0172       1     -1.05    15.999
    5963      Ob       1     SIL   O0173       1     -1.05    15.999
    5964      Ob       1     SIL   O0174       1     -1.05    15.999
    5965      Ob       1     SIL   O0175       1     -1.05    15.999
    5966      Ob       1     SIL   O0176       1     -1.05    15.999
    5967      Si       1     SIL   Si0YZ       1       2.1    28.086
    5968      Si       1     SIL   Si0Ya       1       2.1    28.086
    5969      Si       1     SIL   Si0Yb       1       2.1    28.086
    5970      Ob       1     SIL   O0177       1     -1.05    15.999
    5971      Ob       1     SIL   O0178       1     -1.05    15.999
    5972      Ob       1     SIL   O0179       1     -1.05    15.999
    5973      Ob       1     SIL   O017A       1     -1.05    15.999
    5974      Ob       1     SIL   O017B       1     -1.05    15.999
    5975      Ob       1     SIL   O017C       1     -1.05    15.999
    5976      Si       1     SIL   Si0Yc       1       2.1    28.086
    5977      Si       1     SIL   Si0Yd       1       2.1    28.086
    5978      Si       1     SIL   Si0Ye       1       2.1    28.086
    5979      Ob       1     SIL   O017D       1     -1.05    15.999
    5980      Ob       1     SIL   O017E       1     -1.05    15.999
    5981      Ob       1     SIL   O017F       1     -1.05    15.999
    5982      Ob       1     SIL   O017G       1     -1.05    15.999
    5983      Ob       1     SIL   O017H       1     -1.05    15.999
    5984      Ob       1     SIL   O017I       1     -1.05    15.999
    5985      Si       1     SIL   Si0Yf       1       2.1    28.086
    5986      Si       1     SIL   Si0Yg       1       2.1    28.086
    5987      Si       1     SIL   Si0Yh       1       2.1    28.086
    5988      Ob       1     SIL   O017J       1     -1.05    15.999
    5989      Ob       1     SIL   O017K       1     -1.05    15.999
    5990      Ob       1     SIL   O017L       1     -1.05    15.999
    5991      Ob       1     SIL   O017M       1     -1.05    15.999
    5992      Ob       1     SIL   O017N       1     -1.05    15.999
    5993      Ob       1     SIL   O017O       1     -1.05    15.999
    5994      Si       1     SIL   Si0Yi       1       2.1    28.086
    5995      Si       1     SIL   Si0Yj       1       2.1    28.086
    5996      Si       1     SIL   Si0Yk       1       2.1    28.086
    5997      Ob       1     SIL   O017P       1     -1.05    15.999
    5998      Ob       1     SIL   O017Q       1     -1.05    15.999
    5999      Ob       1     SIL   O017R       1     -1.05    15.999
    6000      Ob       1     SIL   O017S       1     -1.05    15.999
    6001      Ob       1     SIL   O017T       1     -1.05    15.999
    6002      Ob       1     SIL   O017U       1     -1.05    15.999
    6003      Si       1     SIL   Si0Yl       1       2.1    28.086
    6004      Si       1     SIL   Si0Ym       1       2.1    28.086
    6005      Si       1     SIL   Si0Yn       1       2.1    28.086
    6006      Ob       1     SIL   O017V       1     -1.05    15.999
    6007      Ob       1     SIL   O017W       1     -1.05    15.999
    6008      Ob       1     SIL   O017X       1     -1.05    15.999
    6009      Ob       1     SIL   O017Y       1     -1.05    15.999
    6010      Ob       1     SIL   O017Z       1     -1.05    15.999
    6011      Ob       1     SIL   O017a       1     -1.05    15.999
    6012      Si       1     SIL   Si0Yo       1       2.1    28.086
    6013      Si       1     SIL   Si0Yp       1       2.1    28.086
    6014      Si       1     SIL   Si0Yq       1       2.1    28.086
    6015      Ob       1     SIL   O017b       1     -1.05    15.999
    6016      Ob       1     SIL   O017c       1     -1.05    15.999
    6017      Ob       1     SIL   O017d       1     -1.05    15.999
    6018      Ob       1     SIL   O017e       1     -1.05    15.999
    6019      Ob       1     SIL   O017f       1     -1.05    15.999
    6020      Ob       1     SIL   O017g       1     -1.05    15.999
    6021      Si       1     SIL   Si0Yr       1       2.1    28.086
    6022      Si       1     SIL   Si0Ys       1       2.1    28.086
    6023      Si       1     SIL   Si0Yt       1       2.1    28.086
    6024      Ob       1     SIL   O017h       1     -1.05    15.999
    6025      Ob       1     SIL   O017i       1     -1.05    15.999
    6026      Ob       1     SIL   O017j       1     -1.05    15.999
    6027      Ob       1     SIL   O017k       1     -1.05    15.999
    6028      Ob       1     SIL   O017l       1     -1.05    15.999
    6029      Ob       1     SIL   O017m       1     -1.05    15.999
    6030      Si       1     SIL   Si0Yu       1       2.1    28.086
    6031      Si       1     SIL   Si0Yv       1       2.1    28.086
    6032      Si       1     SIL   Si0Yw       1       2.1    28.086
    6033      Ob       1     SIL   O017n       1     -1.05    15.999
    6034      Ob       1     SIL   O017o       1     -1.05    15.999
    6035      Ob       1     SIL   O017p       1     -1.05    15.999
    6036      Ob       1     SIL   O017q       1     -1.05    15.999
    6037      Ob       1     SIL   O017r       1     -1.05    15.999
    6038      Ob       1     SIL   O017s       1     -1.05    15.999
    6039      Si       1     SIL   Si0Yx       1       2.1    28.086
    6040      Si       1     SIL   Si0Yy       1       2.1    28.086
    6041      Si       1     SIL   Si0Yz       1       2.1    28.086
    6042      Ob       1     SIL   O017t       1     -1.05    15.999
    6043      Ob       1     SIL   O017u       1     -1.05    15.999
    6044      Ob       1     SIL   O017v       1     -1.05    15.999
    6045      Ob       1     SIL   O017w       1     -1.05    15.999
    6046      Ob       1     SIL   O017x       1     -1.05    15.999
    6047      Ob       1     SIL   O017y       1     -1.05    15.999
    6048      Si       1     SIL   Si0Z0       1       2.1    28.086
    6049      Si       1     SIL   Si0Z1       1       2.1    28.086
    6050      Si       1     SIL   Si0Z2       1       2.1    28.086
    6051      Ob       1     SIL   O017z       1     -1.05    15.999
    6052      Ob       1     SIL   O0180       1     -1.05    15.999
    6053      Ob       1     SIL   O0181       1     -1.05    15.999
    6054      Ob       1     SIL   O0182       1     -1.05    15.999
    6055      Ob       1     SIL   O0183       1     -1.05    15.999
    6056      Ob       1     SIL   O0184       1     -1.05    15.999
    6057      Si       1     SIL   Si0Z3       1       2.1    28.086
    6058      Si       1     SIL   Si0Z4       1       2.1    28.086
    6059      Si       1     SIL   Si0Z5       1       2.1    28.086
    6060      Ob       1     SIL   O0185       1     -1.05    15.999
    6061      Ob       1     SIL   O0186       1     -1.05    15.999
    6062      Ob       1     SIL   O0187       1     -1.05    15.999
    6063      Ob       1     SIL   O0188       1     -1.05    15.999
    6064      Ob       1     SIL   O0189       1     -1.05    15.999
    6065      Ob       1     SIL   O018A       1     -1.05    15.999
    6066      Si       1     SIL   Si0Z6       1       2.1    28.086
    6067      Si       1     SIL   Si0Z7       1       2.1    28.086
    6068      Si       1     SIL   Si0Z8       1       2.1    28.086
    6069      Ob       1     SIL   O018B       1     -1.05    15.999
    6070      Ob       1     SIL   O018C       1     -1.05    15.999
    6071      Ob       1     SIL   O018D       1     -1.05    15.999
    6072      Ob       1     SIL   O018E       1     -1.05    15.999
    6073      Ob       1     SIL   O018F       1     -1.05    15.999
    6074      Ob       1     SIL   O018G       1     -1.05    15.999
    6075      Si       1     SIL   Si0Z9       1       2.1    28.086
    6076      Si       1     SIL   Si0ZA       1       2.1    28.086
    6077      Si       1     SIL   Si0ZB       1       2.1    28.086
    6078      Ob       1     SIL   O018H       1     -1.05    15.999
    6079      Ob       1     SIL   O018I       1     -1.05    15.999
    6080      Ob       1     SIL   O018J       1     -1.05    15.999
    6081      Ob       1     SIL   O018K       1     -1.05    15.999
    6082      Ob       1     SIL   O018L       1     -1.05    15.999
    6083      Ob       1     SIL   O018M       1     -1.05    15.999
    6084      Si       1     SIL   Si0ZC       1       2.1    28.086
    6085      Si       1     SIL   Si0ZD       1       2.1    28.086
    6086      Si       1     SIL   Si0ZE       1       2.1    28.086
    6087      Ob       1     SIL   O018N       1     -1.05    15.999
    6088      Ob       1     SIL   O018O       1     -1.05    15.999
    6089      Ob       1     SIL   O018P       1     -1.05    15.999
    6090      Ob       1     SIL   O018Q       1     -1.05    15.999
    6091      Ob       1     SIL   O018R       1     -1.05    15.999
    6092      Ob       1     SIL   O018S       1     -1.05    15.999
    6093      Si       1     SIL   Si0ZF       1       2.1    28.086
    6094      Si       1     SIL   Si0ZG       1       2.1    28.086
    6095      Si       1     SIL   Si0ZH       1       2.1    28.086
    6096      Ob       1     SIL   O018T       1     -1.05    15.999
    6097      Ob       1     SIL   O018U       1     -1.05    15.999
    6098      Ob       1     SIL   O018V       1     -1.05    15.999
    6099      Ob       1     SIL   O018W       1     -1.05    15.999
    6100      Ob       1     SIL   O018X       1     -1.05    15.999
    6101      Ob       1     SIL   O018Y       1     -1.05    15.999
    6102      Si       1     SIL   Si0ZI       1       2.1    28.086
    6103      Si       1     SIL   Si0ZJ       1       2.1    28.086
    6104      Si       1     SIL   Si0ZK       1       2.1    28.086
    6105      Ob       1     SIL   O018Z       1     -1.05    15.999
    6106      Ob       1     SIL   O018a       1     -1.05    15.999
    6107      Ob       1     SIL   O018b       1     -1.05    15.999
    6108      Ob       1     SIL   O018c       1     -1.05    15.999
    6109      Ob       1     SIL   O018d       1     -1.05    15.999
    6110      Ob       1     SIL   O018e       1     -1.05    15.999
    6111      Si       1     SIL   Si0ZL       1       2.1    28.086
    6112      Si       1     SIL   Si0ZM       1       2.1    28.086
    6113      Si       1     SIL   Si0ZN       1       2.1    28.086
    6114      Ob       1     SIL   O018f       1     -1.05    15.999
    6115      Ob       1     SIL   O018g       1     -1.05    15.999
    6116      Ob       1     SIL   O018h       1     -1.05    15.999
    6117      Ob       1     SIL   O018i       1     -1.05    15.999
    6118      Ob       1     SIL   O018j       1     -1.05    15.999
    6119      Ob       1     SIL   O018k       1     -1.05    15.999
    6120      Si       1     SIL   Si0ZO       1       2.1    28.086
    6121      Si       1     SIL   Si0ZP       1       2.1    28.086
    6122      Si       1     SIL   Si0ZQ       1       2.1    28.086
    6123      Ob       1     SIL   O018l       1     -1.05    15.999
    6124      Ob       1     SIL   O018m       1     -1.05    15.999
    6125      Ob       1     SIL   O018n       1     -1.05    15.999
    6126      Ob       1     SIL   O018o       1     -1.05    15.999
    6127      Ob       1     SIL   O018p       1     -1.05    15.999
    6128      Ob       1     SIL   O018q       1     -1.05    15.999
    6129      Si       1     SIL   Si0ZR       1       2.1    28.086
    6130      Si       1     SIL   Si0ZS       1       2.1    28.086
    6131      Si       1     SIL   Si0ZT       1       2.1    28.086
    6132      Ob       1     SIL   O018r       1     -1.05    15.999
    6133      Ob       1     SIL   O018s       1     -1.05    15.999
    6134      Ob       1     SIL   O018t       1     -1.05    15.999
    6135      Ob       1     SIL   O018u       1     -1.05    15.999
    6136      Ob       1     SIL   O018v       1     -1.05    15.999
    6137      Ob       1     SIL   O018w       1     -1.05    15.999
    6138      Si       1     SIL   Si0ZU       1       2.1    28.086
    6139      Si       1     SIL   Si0ZV       1       2.1    28.086
    6140      Si       1     SIL   Si0ZW       1       2.1    28.086
    6141      Ob       1     SIL   O018x       1     -1.05    15.999
    6142      Ob       1     SIL   O018y       1     -1.05    15.999
    6143      Ob       1     SIL   O018z       1     -1.05    15.999
    6144      Ob       1     SIL   O0190       1     -1.05    15.999
    6145      Ob       1     SIL   O0191       1     -1.05    15.999
    6146      Ob       1     SIL   O0192       1     -1.05    15.999
    6147      Si       1     SIL   Si0ZX       1       2.1    28.086
    6148      Si       1     SIL   Si0ZY       1       2.1    28.086
    6149      Si       1     SIL   Si0ZZ       1       2.1    28.086
    6150      Ob       1     SIL   O0193       1     -1.05    15.999
    6151      Ob       1     SIL   O0194       1     -1.05    15.999
    6152      Ob       1     SIL   O0195       1     -1.05    15.999
    6153      Ob       1     SIL   O0196       1     -1.05    15.999
    6154      Ob       1     SIL   O0197       1     -1.05    15.999
    6155      Ob       1     SIL   O0198       1     -1.05    15.999
    6156      Si       1     SIL   Si0Za       1       2.1    28.086
    6157      Si       1     SIL   Si0Zb       1       2.1    28.086
    6158      Si       1     SIL   Si0Zc       1       2.1    28.086
    6159      Ob       1     SIL   O0199       1     -1.05    15.999
    6160       O       1     SIL   O019A       1    -0.525    15.999
    6161       O       1     SIL   O019B       1    -0.525    15.999
    6162      Ob       1     SIL   O019C       1     -1.05    15.999
    6163      Ob       1     SIL   O019D       1     -1.05    15.999
    6164      Ob       1     SIL   O019E       1     -1.05    15.999
    6165      Si       1     SIL   Si0Zd       1       2.1    28.086
    6166      Si       1     SIL   Si0Ze       1       2.1    28.086
    6167      Si       1     SIL   Si0Zf       1       2.1    28.086
    6168      Ob       1     SIL   O019F       1     -1.05    15.999
    6169      Ob       1     SIL   O019G       1     -1.05    15.999
    6170      Ob       1     SIL   O019H       1     -1.05    15.999
    6171      Ob       1     SIL   O019I       1     -1.05    15.999
    6172      Ob       1     SIL   O019J       1     -1.05    15.999
    6173      Ob       1     SIL   O019K       1     -1.05    15.999
    6174      Si       1     SIL   Si0Zg       1       2.1    28.086
    6175      Si       1     SIL   Si0Zh       1       2.1    28.086
    6176      Si       1     SIL   Si0Zi       1       2.1    28.086
    6177      Ob       1     SIL   O019L       1     -1.05    15.999
    6178      Ob       1     SIL   O019M       1     -1.05    15.999
    6179      Ob       1     SIL   O019N       1     -1.05    15.999
    6180      Ob       1     SIL   O019O       1     -1.05    15.999
    6181      Ob       1     SIL   O019P       1     -1.05    15.999
    6182      Ob       1     SIL   O019Q       1     -1.05    15.999
    6183      Si       1     SIL   Si0Zj       1       2.1    28.086
    6184      Si       1     SIL   Si0Zk       1       2.1    28.086
    6185      Si       1     SIL   Si0Zl       1       2.1    28.086
    6186      Ob       1     SIL   O019R       1     -1.05    15.999
    6187      Ob       1     SIL   O019S       1     -1.05    15.999
    6188      Ob       1     SIL   O019T       1     -1.05    15.999
    6189      Ob       1     SIL   O019U       1     -1.05    15.999
    6190      Ob       1     SIL   O019V       1     -1.05    15.999
    6191      Ob       1     SIL   O019W       1     -1.05    15.999
    6192      Si       1     SIL   Si0Zm       1       2.1    28.086
    6193      Si       1     SIL   Si0Zn       1       2.1    28.086
    6194      Si       1     SIL   Si0Zo       1       2.1    28.086
    6195      Ob       1     SIL   O019X       1     -1.05    15.999
    6196      Ob       1     SIL   O019Y       1     -1.05    15.999
    6197      Ob       1     SIL   O019Z       1     -1.05    15.999
    6198      Ob       1     SIL   O019a       1     -1.05    15.999
    6199      Ob       1     SIL   O019b       1     -1.05    15.999
    6200      Ob       1     SIL   O019c       1     -1.05    15.999
    6201      Si       1     SIL   Si0Zp       1       2.1    28.086
    6202      Si       1     SIL   Si0Zq       1       2.1    28.086
    6203      Si       1     SIL   Si0Zr       1       2.1    28.086
    6204      Ob       1     SIL   O019d       1     -1.05    15.999
    6205      Ob       1     SIL   O019e       1     -1.05    15.999
    6206      Ob       1     SIL   O019f       1     -1.05    15.999
    6207      Ob       1     SIL   O019g       1     -1.05    15.999
    6208      Ob       1     SIL   O019h       1     -1.05    15.999
    6209      Ob       1     SIL   O019i       1     -1.05    15.999
    6210      Si       1     SIL   Si0Zs       1       2.1    28.086
    6211      Si       1     SIL   Si0Zt       1       2.1    28.086
    6212      Si       1     SIL   Si0Zu       1       2.1    28.086
    6213      Ob       1     SIL   O019j       1     -1.05    15.999
    6214      Ob       1     SIL   O019k       1     -1.05    15.999
    6215      Ob       1     SIL   O019l       1     -1.05    15.999
    6216      Ob       1     SIL   O019m       1     -1.05    15.999
    6217      Ob       1     SIL   O019n       1     -1.05    15.999
    6218      Ob       1     SIL   O019o       1     -1.05    15.999
    6219      Si       1     SIL   Si0Zv       1       2.1    28.086
    6220      Si       1     SIL   Si0Zw       1       2.1    28.086
    6221      Si       1     SIL   Si0Zx       1       2.1    28.086
    6222      Ob       1     SIL   O019p       1     -1.05    15.999
    6223      Ob       1     SIL   O019q       1     -1.05    15.999
    6224      Ob       1     SIL   O019r       1     -1.05    15.999
    6225      Ob       1     SIL   O019s       1     -1.05    15.999
    6226      Ob       1     SIL   O019t       1     -1.05    15.999
    6227      Ob       1     SIL   O019u       1     -1.05    15.999
    6228      Si       1     SIL   Si0Zy       1       2.1    28.086
    6229      Si       1     SIL   Si0Zz       1       2.1    28.086
    6230      Si       1     SIL   Si0a0       1       2.1    28.086
    6231      Ob       1     SIL   O019v       1     -1.05    15.999
    6232      Ob       1     SIL   O019w       1     -1.05    15.999
    6233      Ob       1     SIL   O019x       1     -1.05    15.999
    6234      Ob       1     SIL   O019y       1     -1.05    15.999
    6235      Ob       1     SIL   O019z       1     -1.05    15.999
    6236      Ob       1     SIL   O01A0       1     -1.05    15.999
    6237      Si       1     SIL   Si0a1       1       2.1    28.086
    6238      Si       1     SIL   Si0a2       1       2.1    28.086
    6239      Si       1     SIL   Si0a3       1       2.1    28.086
    6240      Ob       1     SIL   O01A1       1     -1.05    15.999
    6241      Ob       1     SIL   O01A2       1     -1.05    15.999
    6242      Ob       1     SIL   O01A3       1     -1.05    15.999
    6243      Ob       1     SIL   O01A4       1     -1.05    15.999
    6244      Ob       1     SIL   O01A5       1     -1.05    15.999
    6245      Ob       1     SIL   O01A6       1     -1.05    15.999
    6246      Si       1     SIL   Si0a4       1       2.1    28.086
    6247      Si       1     SIL   Si0a5       1       2.1    28.086
    6248      Si       1     SIL   Si0a6       1       2.1    28.086
    6249      Ob       1     SIL   O01A7       1     -1.05    15.999
    6250      Ob       1     SIL   O01A8       1     -1.05    15.999
    6251      Ob       1     SIL   O01A9       1     -1.05    15.999
    6252      Ob       1     SIL   O01AA       1     -1.05    15.999
    6253      Ob       1     SIL   O01AB       1     -1.05    15.999
    6254      Ob       1     SIL   O01AC       1     -1.05    15.999
    6255      Si       1     SIL   Si0a7       1       2.1    28.086
    6256      Si       1     SIL   Si0a8       1       2.1    28.086
    6257      Si       1     SIL   Si0a9       1       2.1    28.086
    6258      Ob       1     SIL   O01AD       1     -1.05    15.999
    6259      Ob       1     SIL   O01AE       1     -1.05    15.999
    6260      Ob       1     SIL   O01AF       1     -1.05    15.999
    6261      Ob       1     SIL   O01AG       1     -1.05    15.999
    6262      Ob       1     SIL   O01AH       1     -1.05    15.999
    6263      Ob       1     SIL   O01AI       1     -1.05    15.999
    6264      Si       1     SIL   Si0aA       1       2.1    28.086
    6265      Si       1     SIL   Si0aB       1       2.1    28.086
    6266      Si       1     SIL   Si0aC       1       2.1    28.086
    6267      Ob       1     SIL   O01AJ       1     -1.05    15.999
    6268      Ob       1     SIL   O01AK       1     -1.05    15.999
    6269      Ob       1     SIL   O01AL       1     -1.05    15.999
    6270      Ob       1     SIL   O01AM       1     -1.05    15.999
    6271      Ob       1     SIL   O01AN       1     -1.05    15.999
    6272      Ob       1     SIL   O01AO       1     -1.05    15.999
    6273      Si       1     SIL   Si0aD       1       2.1    28.086
    6274      Si       1     SIL   Si0aE       1       2.1    28.086
    6275      Si       1     SIL   Si0aF       1       2.1    28.086
    6276      Ob       1     SIL   O01AP       1     -1.05    15.999
    6277      Ob       1     SIL   O01AQ       1     -1.05    15.999
    6278      Ob       1     SIL   O01AR       1     -1.05    15.999
    6279      Ob       1     SIL   O01AS       1     -1.05    15.999
    6280      Ob       1     SIL   O01AT       1     -1.05    15.999
    6281      Ob       1     SIL   O01AU       1     -1.05    15.999
    6282      Si       1     SIL   Si0aG       1       2.1    28.086
    6283      Si       1     SIL   Si0aH       1       2.1    28.086
    6284      Si       1     SIL   Si0aI       1       2.1    28.086
    6285      Ob       1     SIL   O01AV       1     -1.05    15.999
    6286      Ob       1     SIL   O01AW       1     -1.05    15.999
    6287      Ob       1     SIL   O01AX       1     -1.05    15.999
    6288      Ob       1     SIL   O01AY       1     -1.05    15.999
    6289      Ob       1     SIL   O01AZ       1     -1.05    15.999
    6290      Ob       1     SIL   O01Aa       1     -1.05    15.999
    6291      Si       1     SIL   Si0aJ       1       2.1    28.086
    6292      Si       1     SIL   Si0aK       1       2.1    28.086
    6293      Si       1     SIL   Si0aL       1       2.1    28.086
    6294      Ob       1     SIL   O01Ab       1     -1.05    15.999
    6295      Ob       1     SIL   O01Ac       1     -1.05    15.999
    6296      Ob       1     SIL   O01Ad       1     -1.05    15.999
    6297      Ob       1     SIL   O01Ae       1     -1.05    15.999
    6298      Ob       1     SIL   O01Af       1     -1.05    15.999
    6299      Ob       1     SIL   O01Ag       1     -1.05    15.999
    6300      Si       1     SIL   Si0aM       1       2.1    28.086
    6301      Si       1     SIL   Si0aN       1       2.1    28.086
    6302      Si       1     SIL   Si0aO       1       2.1    28.086
    6303      Ob       1     SIL   O01Ah       1     -1.05    15.999
    6304      Ob       1     SIL   O01Ai       1     -1.05    15.999
    6305      Ob       1     SIL   O01Aj       1     -1.05    15.999
    6306      Ob       1     SIL   O01Ak       1     -1.05    15.999
    6307      Ob       1     SIL   O01Al       1     -1.05    15.999
    6308      Ob       1     SIL   O01Am       1     -1.05    15.999
    6309      Si       1     SIL   Si0aP       1       2.1    28.086
    6310      Si       1     SIL   Si0aQ       1       2.1    28.086
    6311      Si       1     SIL   Si0aR       1       2.1    28.086
    6312      Ob       1     SIL   O01An       1     -1.05    15.999
    6313      Ob       1     SIL   O01Ao       1     -1.05    15.999
    6314      Ob       1     SIL   O01Ap       1     -1.05    15.999
    6315      Ob       1     SIL   O01Aq       1     -1.05    15.999
    6316      Ob       1     SIL   O01Ar       1     -1.05    15.999
    6317      Ob       1     SIL   O01As       1     -1.05    15.999
    6318      Si       1     SIL   Si0aS       1       2.1    28.086
    6319      Si       1     SIL   Si0aT       1       2.1    28.086
    6320      Si       1     SIL   Si0aU       1       2.1    28.086
    6321      Ob       1     SIL   O01At       1     -1.05    15.999
    6322      Ob       1     SIL   O01Au       1     -1.05    15.999
    6323      Ob       1     SIL   O01Av       1     -1.05    15.999
    6324      Ob       1     SIL   O01Aw       1     -1.05    15.999
    6325      Ob       1     SIL   O01Ax       1     -1.05    15.999
    6326      Ob       1     SIL   O01Ay       1     -1.05    15.999
    6327      Si       1     SIL   Si0aV       1       2.1    28.086
    6328      Si       1     SIL   Si0aW       1       2.1    28.086
    6329      Si       1     SIL   Si0aX       1       2.1    28.086
    6330      Ob       1     SIL   O01Az       1     -1.05    15.999
    6331      Ob       1     SIL   O01B0       1     -1.05    15.999
    6332      Ob       1     SIL   O01B1       1     -1.05    15.999
    6333      Ob       1     SIL   O01B2       1     -1.05    15.999
    6334      Ob       1     SIL   O01B3       1     -1.05    15.999
    6335      Ob       1     SIL   O01B4       1     -1.05    15.999
    6336      Si       1     SIL   Si0aY       1       2.1    28.086
    6337      Si       1     SIL   Si0aZ       1       2.1    28.086
    6338      Si       1     SIL   Si0aa       1       2.1    28.086
    6339      Ob       1     SIL   O01B5       1     -1.05    15.999
    6340      Ob       1     SIL   O01B6       1     -1.05    15.999
    6341      Ob       1     SIL   O01B7       1     -1.05    15.999
    6342      Ob       1     SIL   O01B8       1     -1.05    15.999
    6343      Ob       1     SIL   O01B9       1     -1.05    15.999
    6344      Ob       1     SIL   O01BA       1     -1.05    15.999
    6345      Si       1     SIL   Si0ab       1       2.1    28.086
    6346      Si       1     SIL   Si0ac       1       2.1    28.086
    6347      Si       1     SIL   Si0ad       1       2.1    28.086
    6348      Ob       1     SIL   O01BB       1     -1.05    15.999
    6349      Ob       1     SIL   O01BC       1     -1.05    15.999
    6350      Ob       1     SIL   O01BD       1     -1.05    15.999
    6351      Ob       1     SIL   O01BE       1     -1.05    15.999
    6352      Ob       1     SIL   O01BF       1     -1.05    15.999
    6353      Ob       1     SIL   O01BG       1     -1.05    15.999
    6354      Si       1     SIL   Si0ae       1       2.1    28.086
    6355      Si       1     SIL   Si0af       1       2.1    28.086
    6356      Si       1     SIL   Si0ag       1       2.1    28.086
    6357      Ob       1     SIL   O01BH       1     -1.05    15.999
    6358      Ob       1     SIL   O01BI       1     -1.05    15.999
    6359      Ob       1     SIL   O01BJ       1     -1.05    15.999
    6360      Ob       1     SIL   O01BK       1     -1.05    15.999
    6361      Ob       1     SIL   O01BL       1     -1.05    15.999
    6362      Ob       1     SIL   O01BM       1     -1.05    15.999
    6363      Si       1     SIL   Si0ah       1       2.1    28.086
    6364      Si       1     SIL   Si0ai       1       2.1    28.086
    6365      Si       1     SIL   Si0aj       1       2.1    28.086
    6366      Ob       1     SIL   O01BN       1     -1.05    15.999
    6367       O       1     SIL   O01BO       1    -0.525    15.999
    6368       O       1     SIL   O01BP       1    -0.525    15.999
    6369      Ob       1     SIL   O01BQ       1     -1.05    15.999
    6370      Ob       1     SIL   O01BR       1     -1.05    15.999
    6371      Ob       1     SIL   O01BS       1     -1.05    15.999
    6372      Si       1     SIL   Si0ak       1       2.1    28.086
    6373      Si       1     SIL   Si0al       1       2.1    28.086
    6374      Si       1     SIL   Si0am       1       2.1    28.086
    6375      Ob       1     SIL   O01BT       1     -1.05    15.999
    6376      Ob       1     SIL   O01BU       1     -1.05    15.999
    6377      Ob       1     SIL   O01BV       1     -1.05    15.999
    6378      Ob       1     SIL   O01BW       1     -1.05    15.999
    6379      Ob       1     SIL   O01BX       1     -1.05    15.999
    6380      Ob       1     SIL   O01BY       1     -1.05    15.999
    6381      Si       1     SIL   Si0an       1       2.1    28.086
    6382      Si       1     SIL   Si0ao       1       2.1    28.086
    6383      Si       1     SIL   Si0ap       1       2.1    28.086
    6384      Ob       1     SIL   O01BZ       1     -1.05    15.999
    6385      Ob       1     SIL   O01Ba       1     -1.05    15.999
    6386      Ob       1     SIL   O01Bb       1     -1.05    15.999
    6387      Ob       1     SIL   O01Bc       1     -1.05    15.999
    6388      Ob       1     SIL   O01Bd       1     -1.05    15.999
    6389      Ob       1     SIL   O01Be       1     -1.05    15.999
    6390      Si       1     SIL   Si0aq       1       2.1    28.086
    6391      Si       1     SIL   Si0ar       1       2.1    28.086
    6392      Si       1     SIL   Si0as       1       2.1    28.086
    6393      Ob       1     SIL   O01Bf       1     -1.05    15.999
    6394      Ob       1     SIL   O01Bg       1     -1.05    15.999
    6395      Ob       1     SIL   O01Bh       1     -1.05    15.999
    6396      Ob       1     SIL   O01Bi       1     -1.05    15.999
    6397      Ob       1     SIL   O01Bj       1     -1.05    15.999
    6398      Ob       1     SIL   O01Bk       1     -1.05    15.999
    6399      Si       1     SIL   Si0at       1       2.1    28.086
    6400      Si       1     SIL   Si0au       1       2.1    28.086
    6401      Si       1     SIL   Si0av       1       2.1    28.086
    6402      Ob       1     SIL   O01Bl       1     -1.05    15.999
    6403      Ob       1     SIL   O01Bm       1     -1.05    15.999
    6404      Ob       1     SIL   O01Bn       1     -1.05    15.999
    6405      Ob       1     SIL   O01Bo       1     -1.05    15.999
    6406      Ob       1     SIL   O01Bp       1     -1.05    15.999
    6407      Ob       1     SIL   O01Bq       1     -1.05    15.999
    6408      Si       1     SIL   Si0aw       1       2.1    28.086
    6409      Si       1     SIL   Si0ax       1       2.1    28.086
    6410      Si       1     SIL   Si0ay       1       2.1    28.086
    6411      Ob       1     SIL   O01Br       1     -1.05    15.999
    6412      Ob       1     SIL   O01Bs       1     -1.05    15.999
    6413      Ob       1     SIL   O01Bt       1     -1.05    15.999
    6414      Ob       1     SIL   O01Bu       1     -1.05    15.999
    6415      Ob       1     SIL   O01Bv       1     -1.05    15.999
    6416      Ob       1     SIL   O01Bw       1     -1.05    15.999
    6417      Si       1     SIL   Si0az       1       2.1    28.086
    6418      Si       1     SIL   Si0b0       1       2.1    28.086
    6419      Si       1     SIL   Si0b1       1       2.1    28.086
    6420      Ob       1     SIL   O01Bx       1     -1.05    15.999
    6421      Ob       1     SIL   O01By       1     -1.05    15.999
    6422      Ob       1     SIL   O01Bz       1     -1.05    15.999
    6423      Ob       1     SIL   O01C0       1     -1.05    15.999
    6424      Ob       1     SIL   O01C1       1     -1.05    15.999
    6425      Ob       1     SIL   O01C2       1     -1.05    15.999
    6426      Si       1     SIL   Si0b2       1       2.1    28.086
    6427      Si       1     SIL   Si0b3       1       2.1    28.086
    6428      Si       1     SIL   Si0b4       1       2.1    28.086
    6429      Ob       1     SIL   O01C3       1     -1.05    15.999
    6430      Ob       1     SIL   O01C4       1     -1.05    15.999
    6431      Ob       1     SIL   O01C5       1     -1.05    15.999
    6432      Ob       1     SIL   O01C6       1     -1.05    15.999
    6433      Ob       1     SIL   O01C7       1     -1.05    15.999
    6434      Ob       1     SIL   O01C8       1     -1.05    15.999
    6435      Si       1     SIL   Si0b5       1       2.1    28.086
    6436      Si       1     SIL   Si0b6       1       2.1    28.086
    6437      Si       1     SIL   Si0b7       1       2.1    28.086
    6438      Ob       1     SIL   O01C9       1     -1.05    15.999
    6439      Ob       1     SIL   O01CA       1     -1.05    15.999
    6440      Ob       1     SIL   O01CB       1     -1.05    15.999
    6441      Ob       1     SIL   O01CC       1     -1.05    15.999
    6442      Ob       1     SIL   O01CD       1     -1.05    15.999
    6443      Ob       1     SIL   O01CE       1     -1.05    15.999
    6444      Si       1     SIL   Si0b8       1       2.1    28.086
    6445      Si       1     SIL   Si0b9       1       2.1    28.086
    6446      Si       1     SIL   Si0bA       1       2.1    28.086
    6447      Ob       1     SIL   O01CF       1     -1.05    15.999
    6448      Ob       1     SIL   O01CG       1     -1.05    15.999
    6449      Ob       1     SIL   O01CH       1     -1.05    15.999
    6450      Ob       1     SIL   O01CI       1     -1.05    15.999
    6451      Ob       1     SIL   O01CJ       1     -1.05    15.999
    6452      Ob       1     SIL   O01CK       1     -1.05    15.999
    6453      Si       1     SIL   Si0bB       1       2.1    28.086
    6454      Si       1     SIL   Si0bC       1       2.1    28.086
    6455      Si       1     SIL   Si0bD       1       2.1    28.086
    6456      Ob       1     SIL   O01CL       1     -1.05    15.999
    6457      Ob       1     SIL   O01CM       1     -1.05    15.999
    6458      Ob       1     SIL   O01CN       1     -1.05    15.999
    6459      Ob       1     SIL   O01CO       1     -1.05    15.999
    6460      Ob       1     SIL   O01CP       1     -1.05    15.999
    6461      Ob       1     SIL   O01CQ       1     -1.05    15.999
    6462      Si       1     SIL   Si0bE       1       2.1    28.086
    6463      Si       1     SIL   Si0bF       1       2.1    28.086
    6464      Si       1     SIL   Si0bG       1       2.1    28.086
    6465      Ob       1     SIL   O01CR       1     -1.05    15.999
    6466      Ob       1     SIL   O01CS       1     -1.05    15.999
    6467      Ob       1     SIL   O01CT       1     -1.05    15.999
    6468      Ob       1     SIL   O01CU       1     -1.05    15.999
    6469      Ob       1     SIL   O01CV       1     -1.05    15.999
    6470      Ob       1     SIL   O01CW       1     -1.05    15.999
    6471      Si       1     SIL   Si0bH       1       2.1    28.086
    6472      Si       1     SIL   Si0bI       1       2.1    28.086
    6473      Si       1     SIL   Si0bJ       1       2.1    28.086
    6474      Ob       1     SIL   O01CX       1     -1.05    15.999
    6475      Ob       1     SIL   O01CY       1     -1.05    15.999
    6476      Ob       1     SIL   O01CZ       1     -1.05    15.999
    6477      Ob       1     SIL   O01Ca       1     -1.05    15.999
    6478      Ob       1     SIL   O01Cb       1     -1.05    15.999
    6479      Ob       1     SIL   O01Cc       1     -1.05    15.999
    6480      Si       1     SIL   Si0bK       1       2.1    28.086
    6481      Si       1     SIL   Si0bL       1       2.1    28.086
    6482      Si       1     SIL   Si0bM       1       2.1    28.086
    6483      Ob       1     SIL   O01Cd       1     -1.05    15.999
    6484      Ob       1     SIL   O01Ce       1     -1.05    15.999
    6485      Ob       1     SIL   O01Cf       1     -1.05    15.999
    6486      Ob       1     SIL   O01Cg       1     -1.05    15.999
    6487      Ob       1     SIL   O01Ch       1     -1.05    15.999
    6488      Ob       1     SIL   O01Ci       1     -1.05    15.999
    6489      Si       1     SIL   Si0bN       1       2.1    28.086
    6490      Si       1     SIL   Si0bO       1       2.1    28.086
    6491      Si       1     SIL   Si0bP       1       2.1    28.086
    6492      Ob       1     SIL   O01Cj       1     -1.05    15.999
    6493      Ob       1     SIL   O01Ck       1     -1.05    15.999
    6494      Ob       1     SIL   O01Cl       1     -1.05    15.999
    6495      Ob       1     SIL   O01Cm       1     -1.05    15.999
    6496      Ob       1     SIL   O01Cn       1     -1.05    15.999
    6497      Ob       1     SIL   O01Co       1     -1.05    15.999
    6498      Si       1     SIL   Si0bQ       1       2.1    28.086
    6499      Si       1     SIL   Si0bR       1       2.1    28.086
    6500      Si       1     SIL   Si0bS       1       2.1    28.086
    6501      Ob       1     SIL   O01Cp       1     -1.05    15.999
    6502      Ob       1     SIL   O01Cq       1     -1.05    15.999
    6503      Ob       1     SIL   O01Cr       1     -1.05    15.999
    6504      Ob       1     SIL   O01Cs       1     -1.05    15.999
    6505      Ob       1     SIL   O01Ct       1     -1.05    15.999
    6506      Ob       1     SIL   O01Cu       1     -1.05    15.999
    6507      Si       1     SIL   Si0bT       1       2.1    28.086
    6508      Si       1     SIL   Si0bU       1       2.1    28.086
    6509      Si       1     SIL   Si0bV       1       2.1    28.086
    6510      Ob       1     SIL   O01Cv       1     -1.05    15.999
    6511      Ob       1     SIL   O01Cw       1     -1.05    15.999
    6512      Ob       1     SIL   O01Cx       1     -1.05    15.999
    6513      Ob       1     SIL   O01Cy       1     -1.05    15.999
    6514      Ob       1     SIL   O01Cz       1     -1.05    15.999
    6515      Ob       1     SIL   O01D0       1     -1.05    15.999
    6516      Si       1     SIL   Si0bW       1       2.1    28.086
    6517      Si       1     SIL   Si0bX       1       2.1    28.086
    6518      Si       1     SIL   Si0bY       1       2.1    28.086
    6519      Ob       1     SIL   O01D1       1     -1.05    15.999
    6520      Ob       1     SIL   O01D2       1     -1.05    15.999
    6521      Ob       1     SIL   O01D3       1     -1.05    15.999
    6522      Ob       1     SIL   O01D4       1     -1.05    15.999
    6523      Ob       1     SIL   O01D5       1     -1.05    15.999
    6524      Ob       1     SIL   O01D6       1     -1.05    15.999
    6525      Si       1     SIL   Si0bZ       1       2.1    28.086
    6526      Si       1     SIL   Si0ba       1       2.1    28.086
    6527      Si       1     SIL   Si0bb       1       2.1    28.086
    6528      Ob       1     SIL   O01D7       1     -1.05    15.999
    6529      Ob       1     SIL   O01D8       1     -1.05    15.999
    6530      Ob       1     SIL   O01D9       1     -1.05    15.999
    6531      Ob       1     SIL   O01DA       1     -1.05    15.999
    6532      Ob       1     SIL   O01DB       1     -1.05    15.999
    6533      Ob       1     SIL   O01DC       1     -1.05    15.999
    6534      Si       1     SIL   Si0bc       1       2.1    28.086
    6535      Si       1     SIL   Si0bd       1       2.1    28.086
    6536      Si       1     SIL   Si0be       1       2.1    28.086
    6537      Ob       1     SIL   O01DD       1     -1.05    15.999
    6538      Ob       1     SIL   O01DE       1     -1.05    15.999
    6539      Ob       1     SIL   O01DF       1     -1.05    15.999
    6540      Ob       1     SIL   O01DG       1     -1.05    15.999
    6541      Ob       1     SIL   O01DH       1     -1.05    15.999
    6542      Ob       1     SIL   O01DI       1     -1.05    15.999
    6543      Si       1     SIL   Si0bf       1       2.1    28.086
    6544      Si       1     SIL   Si0bg       1       2.1    28.086
    6545      Si       1     SIL   Si0bh       1       2.1    28.086
    6546      Ob       1     SIL   O01DJ       1     -1.05    15.999
    6547      Ob       1     SIL   O01DK       1     -1.05    15.999
    6548      Ob       1     SIL   O01DL       1     -1.05    15.999
    6549      Ob       1     SIL   O01DM       1     -1.05    15.999
    6550      Ob       1     SIL   O01DN       1     -1.05    15.999
    6551      Ob       1     SIL   O01DO       1     -1.05    15.999
    6552      Si       1     SIL   Si0bi       1       2.1    28.086
    6553      Si       1     SIL   Si0bj       1       2.1    28.086
    6554      Si       1     SIL   Si0bk       1       2.1    28.086
    6555      Ob       1     SIL   O01DP       1     -1.05    15.999
    6556      Ob       1     SIL   O01DQ       1     -1.05    15.999
    6557      Ob       1     SIL   O01DR       1     -1.05    15.999
    6558      Ob       1     SIL   O01DS       1     -1.05    15.999
    6559      Ob       1     SIL   O01DT       1     -1.05    15.999
    6560      Ob       1     SIL   O01DU       1     -1.05    15.999
    6561      Si       1     SIL   Si0bl       1       2.1    28.086
    6562      Si       1     SIL   Si0bm       1       2.1    28.086
    6563      Si       1     SIL   Si0bn       1       2.1    28.086
    6564      Ob       1     SIL   O01DV       1     -1.05    15.999
    6565      Ob       1     SIL   O01DW       1     -1.05    15.999
    6566      Ob       1     SIL   O01DX       1     -1.05    15.999
    6567      Ob       1     SIL   O01DY       1     -1.05    15.999
    6568      Ob       1     SIL   O01DZ       1     -1.05    15.999
    6569      Ob       1     SIL   O01Da       1     -1.05    15.999
    6570      Si       1     SIL   Si0bo       1       2.1    28.086
    6571      Si       1     SIL   Si0bp       1       2.1    28.086
    6572      Si       1     SIL   Si0bq       1       2.1    28.086
    6573      Ob       1     SIL   O01Db       1     -1.05    15.999
    6574       O       1     SIL   O01Dc       1    -0.525    15.999
    6575       O       1     SIL   O01Dd       1    -0.525    15.999
    6576      Ob       1     SIL   O01De       1     -1.05    15.999
    6577      Ob       1     SIL   O01Df       1     -1.05    15.999
    6578      Ob       1     SIL   O01Dg       1     -1.05    15.999
    6579      Si       1     SIL   Si0br       1       2.1    28.086
    6580      Si       1     SIL   Si0bs       1       2.1    28.086
    6581      Si       1     SIL   Si0bt       1       2.1    28.086
    6582      Ob       1     SIL   O01Dh       1     -1.05    15.999
    6583      Ob       1     SIL   O01Di       1     -1.05    15.999
    6584      Ob       1     SIL   O01Dj       1     -1.05    15.999
    6585      Ob       1     SIL   O01Dk       1     -1.05    15.999
    6586      Ob       1     SIL   O01Dl       1     -1.05    15.999
    6587      Ob       1     SIL   O01Dm       1     -1.05    15.999
    6588      Si       1     SIL   Si0bu       1       2.1    28.086
    6589      Si       1     SIL   Si0bv       1       2.1    28.086
    6590      Si       1     SIL   Si0bw       1       2.1    28.086
    6591      Ob       1     SIL   O01Dn       1     -1.05    15.999
    6592      Ob       1     SIL   O01Do       1     -1.05    15.999
    6593      Ob       1     SIL   O01Dp       1     -1.05    15.999
    6594      Ob       1     SIL   O01Dq       1     -1.05    15.999
    6595      Ob       1     SIL   O01Dr       1     -1.05    15.999
    6596      Ob       1     SIL   O01Ds       1     -1.05    15.999
    6597      Si       1     SIL   Si0bx       1       2.1    28.086
    6598      Si       1     SIL   Si0by       1       2.1    28.086
    6599      Si       1     SIL   Si0bz       1       2.1    28.086
    6600      Ob       1     SIL   O01Dt       1     -1.05    15.999
    6601      Ob       1     SIL   O01Du       1     -1.05    15.999
    6602      Ob       1     SIL   O01Dv       1     -1.05    15.999
    6603      Ob       1     SIL   O01Dw       1     -1.05    15.999
    6604      Ob       1     SIL   O01Dx       1     -1.05    15.999
    6605      Ob       1     SIL   O01Dy       1     -1.05    15.999
    6606      Si       1     SIL   Si0c0       1       2.1    28.086
    6607      Si       1     SIL   Si0c1       1       2.1    28.086
    6608      Si       1     SIL   Si0c2       1       2.1    28.086
    6609      Ob       1     SIL   O01Dz       1     -1.05    15.999
    6610      Ob       1     SIL   O01E0       1     -1.05    15.999
    6611      Ob       1     SIL   O01E1       1     -1.05    15.999
    6612      Ob       1     SIL   O01E2       1     -1.05    15.999
    6613      Ob       1     SIL   O01E3       1     -1.05    15.999
    6614      Ob       1     SIL   O01E4       1     -1.05    15.999
    6615      Si       1     SIL   Si0c3       1       2.1    28.086
    6616      Si       1     SIL   Si0c4       1       2.1    28.086
    6617      Si       1     SIL   Si0c5       1       2.1    28.086
    6618      Ob       1     SIL   O01E5       1     -1.05    15.999
    6619      Ob       1     SIL   O01E6       1     -1.05    15.999
    6620      Ob       1     SIL   O01E7       1     -1.05    15.999
    6621      Ob       1     SIL   O01E8       1     -1.05    15.999
    6622      Ob       1     SIL   O01E9       1     -1.05    15.999
    6623      Ob       1     SIL   O01EA       1     -1.05    15.999
    6624      Si       1     SIL   Si0c6       1       2.1    28.086
    6625      Si       1     SIL   Si0c7       1       2.1    28.086
    6626      Si       1     SIL   Si0c8       1       2.1    28.086
    6627      Ob       1     SIL   O01EB       1     -1.05    15.999
    6628      Ob       1     SIL   O01EC       1     -1.05    15.999
    6629      Ob       1     SIL   O01ED       1     -1.05    15.999
    6630      Ob       1     SIL   O01EE       1     -1.05    15.999
    6631      Ob       1     SIL   O01EF       1     -1.05    15.999
    6632      Ob       1     SIL   O01EG       1     -1.05    15.999
    6633      Si       1     SIL   Si0c9       1       2.1    28.086
    6634      Si       1     SIL   Si0cA       1       2.1    28.086
    6635      Si       1     SIL   Si0cB       1       2.1    28.086
    6636      Ob       1     SIL   O01EH       1     -1.05    15.999
    6637      Ob       1     SIL   O01EI       1     -1.05    15.999
    6638      Ob       1     SIL   O01EJ       1     -1.05    15.999
    6639      Ob       1     SIL   O01EK       1     -1.05    15.999
    6640      Ob       1     SIL   O01EL       1     -1.05    15.999
    6641      Ob       1     SIL   O01EM       1     -1.05    15.999
    6642      Si       1     SIL   Si0cC       1       2.1    28.086
    6643      Si       1     SIL   Si0cD       1       2.1    28.086
    6644      Si       1     SIL   Si0cE       1       2.1    28.086
    6645      Ob       1     SIL   O01EN       1     -1.05    15.999
    6646      Ob       1     SIL   O01EO       1     -1.05    15.999
    6647      Ob       1     SIL   O01EP       1     -1.05    15.999
    6648      Ob       1     SIL   O01EQ       1     -1.05    15.999
    6649      Ob       1     SIL   O01ER       1     -1.05    15.999
    6650      Ob       1     SIL   O01ES       1     -1.05    15.999
    6651      Si       1     SIL   Si0cF       1       2.1    28.086
    6652      Si       1     SIL   Si0cG       1       2.1    28.086
    6653      Si       1     SIL   Si0cH       1       2.1    28.086
    6654      Ob       1     SIL   O01ET       1     -1.05    15.999
    6655      Ob       1     SIL   O01EU       1     -1.05    15.999
    6656      Ob       1     SIL   O01EV       1     -1.05    15.999
    6657      Ob       1     SIL   O01EW       1     -1.05    15.999
    6658      Ob       1     SIL   O01EX       1     -1.05    15.999
    6659      Ob       1     SIL   O01EY       1     -1.05    15.999
    6660      Si       1     SIL   Si0cI       1       2.1    28.086
    6661      Si       1     SIL   Si0cJ       1       2.1    28.086
    6662      Si       1     SIL   Si0cK       1       2.1    28.086
    6663      Ob       1     SIL   O01EZ       1     -1.05    15.999
    6664      Ob       1     SIL   O01Ea       1     -1.05    15.999
    6665      Ob       1     SIL   O01Eb       1     -1.05    15.999
    6666      Ob       1     SIL   O01Ec       1     -1.05    15.999
    6667      Ob       1     SIL   O01Ed       1     -1.05    15.999
    6668      Ob       1     SIL   O01Ee       1     -1.05    15.999
    6669      Si       1     SIL   Si0cL       1       2.1    28.086
    6670      Si       1     SIL   Si0cM       1       2.1    28.086
    6671      Si       1     SIL   Si0cN       1       2.1    28.086
    6672      Ob       1     SIL   O01Ef       1     -1.05    15.999
    6673      Ob       1     SIL   O01Eg       1     -1.05    15.999
    6674      Ob       1     SIL   O01Eh       1     -1.05    15.999
    6675      Ob       1     SIL   O01Ei       1     -1.05    15.999
    6676      Ob       1     SIL   O01Ej       1     -1.05    15.999
    6677      Ob       1     SIL   O01Ek       1     -1.05    15.999
    6678      Si       1     SIL   Si0cO       1       2.1    28.086
    6679      Si       1     SIL   Si0cP       1       2.1    28.086
    6680      Si       1     SIL   Si0cQ       1       2.1    28.086
    6681      Ob       1     SIL   O01El       1     -1.05    15.999
    6682      Ob       1     SIL   O01Em       1     -1.05    15.999
    6683      Ob       1     SIL   O01En       1     -1.05    15.999
    6684      Ob       1     SIL   O01Eo       1     -1.05    15.999
    6685      Ob       1     SIL   O01Ep       1     -1.05    15.999
    6686      Ob       1     SIL   O01Eq       1     -1.05    15.999
    6687      Si       1     SIL   Si0cR       1       2.1    28.086
    6688      Si       1     SIL   Si0cS       1       2.1    28.086
    6689      Si       1     SIL   Si0cT       1       2.1    28.086
    6690      Ob       1     SIL   O01Er       1     -1.05    15.999
    6691      Ob       1     SIL   O01Es       1     -1.05    15.999
    6692      Ob       1     SIL   O01Et       1     -1.05    15.999
    6693      Ob       1     SIL   O01Eu       1     -1.05    15.999
    6694      Ob       1     SIL   O01Ev       1     -1.05    15.999
    6695      Ob       1     SIL   O01Ew       1     -1.05    15.999
    6696      Si       1     SIL   Si0cU       1       2.1    28.086
    6697      Si       1     SIL   Si0cV       1       2.1    28.086
    6698      Si       1     SIL   Si0cW       1       2.1    28.086
    6699      Ob       1     SIL   O01Ex       1     -1.05    15.999
    6700      Ob       1     SIL   O01Ey       1     -1.05    15.999
    6701      Ob       1     SIL   O01Ez       1     -1.05    15.999
    6702      Ob       1     SIL   O01F0       1     -1.05    15.999
    6703      Ob       1     SIL   O01F1       1     -1.05    15.999
    6704      Ob       1     SIL   O01F2       1     -1.05    15.999
    6705      Si       1     SIL   Si0cX       1       2.1    28.086
    6706      Si       1     SIL   Si0cY       1       2.1    28.086
    6707      Si       1     SIL   Si0cZ       1       2.1    28.086
    6708      Ob       1     SIL   O01F3       1     -1.05    15.999
    6709      Ob       1     SIL   O01F4       1     -1.05    15.999
    6710      Ob       1     SIL   O01F5       1     -1.05    15.999
    6711      Ob       1     SIL   O01F6       1     -1.05    15.999
    6712      Ob       1     SIL   O01F7       1     -1.05    15.999
    6713      Ob       1     SIL   O01F8       1     -1.05    15.999
    6714      Si       1     SIL   Si0ca       1       2.1    28.086
    6715      Si       1     SIL   Si0cb       1       2.1    28.086
    6716      Si       1     SIL   Si0cc       1       2.1    28.086
    6717      Ob       1     SIL   O01F9       1     -1.05    15.999
    6718      Ob       1     SIL   O01FA       1     -1.05    15.999
    6719      Ob       1     SIL   O01FB       1     -1.05    15.999
    6720      Ob       1     SIL   O01FC       1     -1.05    15.999
    6721      Ob       1     SIL   O01FD       1     -1.05    15.999
    6722      Ob       1     SIL   O01FE       1     -1.05    15.999
    6723      Si       1     SIL   Si0cd       1       2.1    28.086
    6724      Si       1     SIL   Si0ce       1       2.1    28.086
    6725      Si       1     SIL   Si0cf       1       2.1    28.086
    6726      Ob       1     SIL   O01FF       1     -1.05    15.999
    6727      Ob       1     SIL   O01FG       1     -1.05    15.999
    6728      Ob       1     SIL   O01FH       1     -1.05    15.999
    6729      Ob       1     SIL   O01FI       1     -1.05    15.999
    6730      Ob       1     SIL   O01FJ       1     -1.05    15.999
    6731      Ob       1     SIL   O01FK       1     -1.05    15.999
    6732      Si       1     SIL   Si0cg       1       2.1    28.086
    6733      Si       1     SIL   Si0ch       1       2.1    28.086
    6734      Si       1     SIL   Si0ci       1       2.1    28.086
    6735      Ob       1     SIL   O01FL       1     -1.05    15.999
    6736      Ob       1     SIL   O01FM       1     -1.05    15.999
    6737      Ob       1     SIL   O01FN       1     -1.05    15.999
    6738      Ob       1     SIL   O01FO       1     -1.05    15.999
    6739      Ob       1     SIL   O01FP       1     -1.05    15.999
    6740      Ob       1     SIL   O01FQ       1     -1.05    15.999
    6741      Si       1     SIL   Si0cj       1       2.1    28.086
    6742      Si       1     SIL   Si0ck       1       2.1    28.086
    6743      Si       1     SIL   Si0cl       1       2.1    28.086
    6744      Ob       1     SIL   O01FR       1     -1.05    15.999
    6745      Ob       1     SIL   O01FS       1     -1.05    15.999
    6746      Ob       1     SIL   O01FT       1     -1.05    15.999
    6747      Ob       1     SIL   O01FU       1     -1.05    15.999
    6748      Ob       1     SIL   O01FV       1     -1.05    15.999
    6749      Ob       1     SIL   O01FW       1     -1.05    15.999
    6750      Si       1     SIL   Si0cm       1       2.1    28.086
    6751      Si       1     SIL   Si0cn       1       2.1    28.086
    6752      Si       1     SIL   Si0co       1       2.1    28.086
    6753      Ob       1     SIL   O01FX       1     -1.05    15.999
    6754      Ob       1     SIL   O01FY       1     -1.05    15.999
    6755      Ob       1     SIL   O01FZ       1     -1.05    15.999
    6756      Ob       1     SIL   O01Fa       1     -1.05    15.999
    6757      Ob       1     SIL   O01Fb       1     -1.05    15.999
    6758      Ob       1     SIL   O01Fc       1     -1.05    15.999
    6759      Si       1     SIL   Si0cp       1       2.1    28.086
    6760      Si       1     SIL   Si0cq       1       2.1    28.086
    6761      Si       1     SIL   Si0cr       1       2.1    28.086
    6762      Ob       1     SIL   O01Fd       1     -1.05    15.999
    6763      Ob       1     SIL   O01Fe       1     -1.05    15.999
    6764      Ob       1     SIL   O01Ff       1     -1.05    15.999
    6765      Ob       1     SIL   O01Fg       1     -1.05    15.999
    6766      Ob       1     SIL   O01Fh       1     -1.05    15.999
    6767      Ob       1     SIL   O01Fi       1     -1.05    15.999
    6768      Si       1     SIL   Si0cs       1       2.1    28.086
    6769      Si       1     SIL   Si0ct       1       2.1    28.086
    6770      Si       1     SIL   Si0cu       1       2.1    28.086
    6771      Ob       1     SIL   O01Fj       1     -1.05    15.999
    6772      Ob       1     SIL   O01Fk       1     -1.05    15.999
    6773      Ob       1     SIL   O01Fl       1     -1.05    15.999
    6774      Ob       1     SIL   O01Fm       1     -1.05    15.999
    6775      Ob       1     SIL   O01Fn       1     -1.05    15.999
    6776      Ob       1     SIL   O01Fo       1     -1.05    15.999
    6777      Si       1     SIL   Si0cv       1       2.1    28.086
    6778      Si       1     SIL   Si0cw       1       2.1    28.086
    6779      Si       1     SIL   Si0cx       1       2.1    28.086
    6780      Ob       1     SIL   O01Fp       1     -1.05    15.999
    6781       O       1     SIL   O01Fq       1    -0.525    15.999
    6782       O       1     SIL   O01Fr       1    -0.525    15.999
    6783      Ob       1     SIL   O01Fs       1     -1.05    15.999
    6784      Ob       1     SIL   O01Ft       1     -1.05    15.999
    6785      Ob       1     SIL   O01Fu       1     -1.05    15.999
    6786      Si       1     SIL   Si0cy       1       2.1    28.086
    6787      Si       1     SIL   Si0cz       1       2.1    28.086
    6788      Si       1     SIL   Si0d0       1       2.1    28.086
    6789      Ob       1     SIL   O01Fv       1     -1.05    15.999
    6790      Ob       1     SIL   O01Fw       1     -1.05    15.999
    6791      Ob       1     SIL   O01Fx       1     -1.05    15.999
    6792      Ob       1     SIL   O01Fy       1     -1.05    15.999
    6793      Ob       1     SIL   O01Fz       1     -1.05    15.999
    6794      Ob       1     SIL   O01G0       1     -1.05    15.999
    6795      Si       1     SIL   Si0d1       1       2.1    28.086
    6796      Si       1     SIL   Si0d2       1       2.1    28.086
    6797      Si       1     SIL   Si0d3       1       2.1    28.086
    6798      Ob       1     SIL   O01G1       1     -1.05    15.999
    6799      Ob       1     SIL   O01G2       1     -1.05    15.999
    6800      Ob       1     SIL   O01G3       1     -1.05    15.999
    6801      Ob       1     SIL   O01G4       1     -1.05    15.999
    6802      Ob       1     SIL   O01G5       1     -1.05    15.999
    6803      Ob       1     SIL   O01G6       1     -1.05    15.999
    6804      Si       1     SIL   Si0d4       1       2.1    28.086
    6805      Si       1     SIL   Si0d5       1       2.1    28.086
    6806      Si       1     SIL   Si0d6       1       2.1    28.086
    6807      Ob       1     SIL   O01G7       1     -1.05    15.999
    6808      Ob       1     SIL   O01G8       1     -1.05    15.999
    6809      Ob       1     SIL   O01G9       1     -1.05    15.999
    6810      Ob       1     SIL   O01GA       1     -1.05    15.999
    6811      Ob       1     SIL   O01GB       1     -1.05    15.999
    6812      Ob       1     SIL   O01GC       1     -1.05    15.999
    6813      Si       1     SIL   Si0d7       1       2.1    28.086
    6814      Si       1     SIL   Si0d8       1       2.1    28.086
    6815      Si       1     SIL   Si0d9       1       2.1    28.086
    6816      Ob       1     SIL   O01GD       1     -1.05    15.999
    6817      Ob       1     SIL   O01GE       1     -1.05    15.999
    6818      Ob       1     SIL   O01GF       1     -1.05    15.999
    6819      Ob       1     SIL   O01GG       1     -1.05    15.999
    6820      Ob       1     SIL   O01GH       1     -1.05    15.999
    6821      Ob       1     SIL   O01GI       1     -1.05    15.999
    6822      Si       1     SIL   Si0dA       1       2.1    28.086
    6823      Si       1     SIL   Si0dB       1       2.1    28.086
    6824      Si       1     SIL   Si0dC       1       2.1    28.086
    6825      Ob       1     SIL   O01GJ       1     -1.05    15.999
    6826      Ob       1     SIL   O01GK       1     -1.05    15.999
    6827      Ob       1     SIL   O01GL       1     -1.05    15.999
    6828      Ob       1     SIL   O01GM       1     -1.05    15.999
    6829      Ob       1     SIL   O01GN       1     -1.05    15.999
    6830      Ob       1     SIL   O01GO       1     -1.05    15.999
    6831      Si       1     SIL   Si0dD       1       2.1    28.086
    6832      Si       1     SIL   Si0dE       1       2.1    28.086
    6833      Si       1     SIL   Si0dF       1       2.1    28.086
    6834      Ob       1     SIL   O01GP       1     -1.05    15.999
    6835      Ob       1     SIL   O01GQ       1     -1.05    15.999
    6836      Ob       1     SIL   O01GR       1     -1.05    15.999
    6837      Ob       1     SIL   O01GS       1     -1.05    15.999
    6838      Ob       1     SIL   O01GT       1     -1.05    15.999
    6839      Ob       1     SIL   O01GU       1     -1.05    15.999
    6840      Si       1     SIL   Si0dG       1       2.1    28.086
    6841      Si       1     SIL   Si0dH       1       2.1    28.086
    6842      Si       1     SIL   Si0dI       1       2.1    28.086
    6843      Ob       1     SIL   O01GV       1     -1.05    15.999
    6844      Ob       1     SIL   O01GW       1     -1.05    15.999
    6845      Ob       1     SIL   O01GX       1     -1.05    15.999
    6846      Ob       1     SIL   O01GY       1     -1.05    15.999
    6847      Ob       1     SIL   O01GZ       1     -1.05    15.999
    6848      Ob       1     SIL   O01Ga       1     -1.05    15.999
    6849      Si       1     SIL   Si0dJ       1       2.1    28.086
    6850      Si       1     SIL   Si0dK       1       2.1    28.086
    6851      Si       1     SIL   Si0dL       1       2.1    28.086
    6852      Ob       1     SIL   O01Gb       1     -1.05    15.999
    6853      Ob       1     SIL   O01Gc       1     -1.05    15.999
    6854      Ob       1     SIL   O01Gd       1     -1.05    15.999
    6855      Ob       1     SIL   O01Ge       1     -1.05    15.999
    6856      Ob       1     SIL   O01Gf       1     -1.05    15.999
    6857      Ob       1     SIL   O01Gg       1     -1.05    15.999
    6858      Si       1     SIL   Si0dM       1       2.1    28.086
    6859      Si       1     SIL   Si0dN       1       2.1    28.086
    6860      Si       1     SIL   Si0dO       1       2.1    28.086
    6861      Ob       1     SIL   O01Gh       1     -1.05    15.999
    6862      Ob       1     SIL   O01Gi       1     -1.05    15.999
    6863      Ob       1     SIL   O01Gj       1     -1.05    15.999
    6864      Ob       1     SIL   O01Gk       1     -1.05    15.999
    6865      Ob       1     SIL   O01Gl       1     -1.05    15.999
    6866      Ob       1     SIL   O01Gm       1     -1.05    15.999
    6867      Si       1     SIL   Si0dP       1       2.1    28.086
    6868      Si       1     SIL   Si0dQ       1       2.1    28.086
    6869      Si       1     SIL   Si0dR       1       2.1    28.086
    6870      Ob       1     SIL   O01Gn       1     -1.05    15.999
    6871      Ob       1     SIL   O01Go       1     -1.05    15.999
    6872      Ob       1     SIL   O01Gp       1     -1.05    15.999
    6873      Ob       1     SIL   O01Gq       1     -1.05    15.999
    6874      Ob       1     SIL   O01Gr       1     -1.05    15.999
    6875      Ob       1     SIL   O01Gs       1     -1.05    15.999
    6876      Si       1     SIL   Si0dS       1       2.1    28.086
    6877      Si       1     SIL   Si0dT       1       2.1    28.086
    6878      Si       1     SIL   Si0dU       1       2.1    28.086
    6879      Ob       1     SIL   O01Gt       1     -1.05    15.999
    6880      Ob       1     SIL   O01Gu       1     -1.05    15.999
    6881      Ob       1     SIL   O01Gv       1     -1.05    15.999
    6882      Ob       1     SIL   O01Gw       1     -1.05    15.999
    6883      Ob       1     SIL   O01Gx       1     -1.05    15.999
    6884      Ob       1     SIL   O01Gy       1     -1.05    15.999
    6885      Si       1     SIL   Si0dV       1       2.1    28.086
    6886      Si       1     SIL   Si0dW       1       2.1    28.086
    6887      Si       1     SIL   Si0dX       1       2.1    28.086
    6888      Ob       1     SIL   O01Gz       1     -1.05    15.999
    6889      Ob       1     SIL   O01H0       1     -1.05    15.999
    6890      Ob       1     SIL   O01H1       1     -1.05    15.999
    6891      Ob       1     SIL   O01H2       1     -1.05    15.999
    6892      Ob       1     SIL   O01H3       1     -1.05    15.999
    6893      Ob       1     SIL   O01H4       1     -1.05    15.999
    6894      Si       1     SIL   Si0dY       1       2.1    28.086
    6895      Si       1     SIL   Si0dZ       1       2.1    28.086
    6896      Si       1     SIL   Si0da       1       2.1    28.086
    6897      Ob       1     SIL   O01H5       1     -1.05    15.999
    6898      Ob       1     SIL   O01H6       1     -1.05    15.999
    6899      Ob       1     SIL   O01H7       1     -1.05    15.999
    6900      Ob       1     SIL   O01H8       1     -1.05    15.999
    6901      Ob       1     SIL   O01H9       1     -1.05    15.999
    6902      Ob       1     SIL   O01HA       1     -1.05    15.999
    6903      Si       1     SIL   Si0db       1       2.1    28.086
    6904      Si       1     SIL   Si0dc       1       2.1    28.086
    6905      Si       1     SIL   Si0dd       1       2.1    28.086
    6906      Ob       1     SIL   O01HB       1     -1.05    15.999
    6907      Ob       1     SIL   O01HC       1     -1.05    15.999
    6908      Ob       1     SIL   O01HD       1     -1.05    15.999
    6909      Ob       1     SIL   O01HE       1     -1.05    15.999
    6910      Ob       1     SIL   O01HF       1     -1.05    15.999
    6911      Ob       1     SIL   O01HG       1     -1.05    15.999
    6912      Si       1     SIL   Si0de       1       2.1    28.086
    6913      Si       1     SIL   Si0df       1       2.1    28.086
    6914      Si       1     SIL   Si0dg       1       2.1    28.086
    6915      Ob       1     SIL   O01HH       1     -1.05    15.999
    6916      Ob       1     SIL   O01HI       1     -1.05    15.999
    6917      Ob       1     SIL   O01HJ       1     -1.05    15.999
    6918      Ob       1     SIL   O01HK       1     -1.05    15.999
    6919      Ob       1     SIL   O01HL       1     -1.05    15.999
    6920      Ob       1     SIL   O01HM       1     -1.05    15.999
    6921      Si       1     SIL   Si0dh       1       2.1    28.086
    6922      Si       1     SIL   Si0di       1       2.1    28.086
    6923      Si       1     SIL   Si0dj       1       2.1    28.086
    6924      Ob       1     SIL   O01HN       1     -1.05    15.999
    6925      Ob       1     SIL   O01HO       1     -1.05    15.999
    6926      Ob       1     SIL   O01HP       1     -1.05    15.999
    6927      Ob       1     SIL   O01HQ       1     -1.05    15.999
    6928      Ob       1     SIL   O01HR       1     -1.05    15.999
    6929      Ob       1     SIL   O01HS       1     -1.05    15.999
    6930      Si       1     SIL   Si0dk       1       2.1    28.086
    6931      Si       1     SIL   Si0dl       1       2.1    28.086
    6932      Si       1     SIL   Si0dm       1       2.1    28.086
    6933      Ob       1     SIL   O01HT       1     -1.05    15.999
    6934      Ob       1     SIL   O01HU       1     -1.05    15.999
    6935      Ob       1     SIL   O01HV       1     -1.05    15.999
    6936      Ob       1     SIL   O01HW       1     -1.05    15.999
    6937      Ob       1     SIL   O01HX       1     -1.05    15.999
    6938      Ob       1     SIL   O01HY       1     -1.05    15.999
    6939      Si       1     SIL   Si0dn       1       2.1    28.086
    6940      Si       1     SIL   Si0do       1       2.1    28.086
    6941      Si       1     SIL   Si0dp       1       2.1    28.086
    6942      Ob       1     SIL   O01HZ       1     -1.05    15.999
    6943      Ob       1     SIL   O01Ha       1     -1.05    15.999
    6944      Ob       1     SIL   O01Hb       1     -1.05    15.999
    6945      Ob       1     SIL   O01Hc       1     -1.05    15.999
    6946      Ob       1     SIL   O01Hd       1     -1.05    15.999
    6947      Ob       1     SIL   O01He       1     -1.05    15.999
    6948      Si       1     SIL   Si0dq       1       2.1    28.086
    6949      Si       1     SIL   Si0dr       1       2.1    28.086
    6950      Si       1     SIL   Si0ds       1       2.1    28.086
    6951      Ob       1     SIL   O01Hf       1     -1.05    15.999
    6952      Ob       1     SIL   O01Hg       1     -1.05    15.999
    6953      Ob       1     SIL   O01Hh       1     -1.05    15.999
    6954      Ob       1     SIL   O01Hi       1     -1.05    15.999
    6955      Ob       1     SIL   O01Hj       1     -1.05    15.999
    6956      Ob       1     SIL   O01Hk       1     -1.05    15.999
    6957      Si       1     SIL   Si0dt       1       2.1    28.086
    6958      Si       1     SIL   Si0du       1       2.1    28.086
    6959      Si       1     SIL   Si0dv       1       2.1    28.086
    6960      Ob       1     SIL   O01Hl       1     -1.05    15.999
    6961      Ob       1     SIL   O01Hm       1     -1.05    15.999
    6962      Ob       1     SIL   O01Hn       1     -1.05    15.999
    6963      Ob       1     SIL   O01Ho       1     -1.05    15.999
    6964      Ob       1     SIL   O01Hp       1     -1.05    15.999
    6965      Ob       1     SIL   O01Hq       1     -1.05    15.999
    6966      Si       1     SIL   Si0dw       1       2.1    28.086
    6967      Si       1     SIL   Si0dx       1       2.1    28.086
    6968      Si       1     SIL   Si0dy       1       2.1    28.086
    6969      Ob       1     SIL   O01Hr       1     -1.05    15.999
    6970      Ob       1     SIL   O01Hs       1     -1.05    15.999
    6971      Ob       1     SIL   O01Ht       1     -1.05    15.999
    6972      Ob       1     SIL   O01Hu       1     -1.05    15.999
    6973      Ob       1     SIL   O01Hv       1     -1.05    15.999
    6974      Ob       1     SIL   O01Hw       1     -1.05    15.999
    6975      Si       1     SIL   Si0dz       1       2.1    28.086
    6976      Si       1     SIL   Si0e0       1       2.1    28.086
    6977      Si       1     SIL   Si0e1       1       2.1    28.086
    6978      Ob       1     SIL   O01Hx       1     -1.05    15.999
    6979      Ob       1     SIL   O01Hy       1     -1.05    15.999
    6980      Ob       1     SIL   O01Hz       1     -1.05    15.999
    6981      Ob       1     SIL   O01I0       1     -1.05    15.999
    6982      Ob       1     SIL   O01I1       1     -1.05    15.999
    6983      Ob       1     SIL   O01I2       1     -1.05    15.999
    6984      Si       1     SIL   Si0e2       1       2.1    28.086
    6985      Si       1     SIL   Si0e3       1       2.1    28.086
    6986      Si       1     SIL   Si0e4       1       2.1    28.086
    6987      Ob       1     SIL   O01I3       1     -1.05    15.999
    6988       O       1     SIL   O01I4       1    -0.525    15.999
    6989       O       1     SIL   O01I5       1    -0.525    15.999
    6990      Ob       1     SIL   O01I6       1     -1.05    15.999
    6991      Ob       1     SIL   O01I7       1     -1.05    15.999
    6992      Ob       1     SIL   O01I8       1     -1.05    15.999
    6993      Si       1     SIL   Si0e5       1       2.1    28.086
    6994      Si       1     SIL   Si0e6       1       2.1    28.086
    6995      Si       1     SIL   Si0e7       1       2.1    28.086
    6996      Ob       1     SIL   O01I9       1     -1.05    15.999
    6997      Ob       1     SIL   O01IA       1     -1.05    15.999
    6998      Ob       1     SIL   O01IB       1     -1.05    15.999
    6999      Ob       1     SIL   O01IC       1     -1.05    15.999
    7000      Ob       1     SIL   O01ID       1     -1.05    15.999
    7001      Ob       1     SIL   O01IE       1     -1.05    15.999
    7002      Si       1     SIL   Si0e8       1       2.1    28.086
    7003      Si       1     SIL   Si0e9       1       2.1    28.086
    7004      Si       1     SIL   Si0eA       1       2.1    28.086
    7005      Ob       1     SIL   O01IF       1     -1.05    15.999
    7006      Ob       1     SIL   O01IG       1     -1.05    15.999
    7007      Ob       1     SIL   O01IH       1     -1.05    15.999
    7008      Ob       1     SIL   O01II       1     -1.05    15.999
    7009      Ob       1     SIL   O01IJ       1     -1.05    15.999
    7010      Ob       1     SIL   O01IK       1     -1.05    15.999
    7011      Si       1     SIL   Si0eB       1       2.1    28.086
    7012      Si       1     SIL   Si0eC       1       2.1    28.086
    7013      Si       1     SIL   Si0eD       1       2.1    28.086
    7014      Ob       1     SIL   O01IL       1     -1.05    15.999
    7015      Ob       1     SIL   O01IM       1     -1.05    15.999
    7016      Ob       1     SIL   O01IN       1     -1.05    15.999
    7017      Ob       1     SIL   O01IO       1     -1.05    15.999
    7018      Ob       1     SIL   O01IP       1     -1.05    15.999
    7019      Ob       1     SIL   O01IQ       1     -1.05    15.999
    7020      Si       1     SIL   Si0eE       1       2.1    28.086
    7021      Si       1     SIL   Si0eF       1       2.1    28.086
    7022      Si       1     SIL   Si0eG       1       2.1    28.086
    7023      Ob       1     SIL   O01IR       1     -1.05    15.999
    7024      Ob       1     SIL   O01IS       1     -1.05    15.999
    7025      Ob       1     SIL   O01IT       1     -1.05    15.999
    7026      Ob       1     SIL   O01IU       1     -1.05    15.999
    7027      Ob       1     SIL   O01IV       1     -1.05    15.999
    7028      Ob       1     SIL   O01IW       1     -1.05    15.999
    7029      Si       1     SIL   Si0eH       1       2.1    28.086
    7030      Si       1     SIL   Si0eI       1       2.1    28.086
    7031      Si       1     SIL   Si0eJ       1       2.1    28.086
    7032      Ob       1     SIL   O01IX       1     -1.05    15.999
    7033      Ob       1     SIL   O01IY       1     -1.05    15.999
    7034      Ob       1     SIL   O01IZ       1     -1.05    15.999
    7035      Ob       1     SIL   O01Ia       1     -1.05    15.999
    7036      Ob       1     SIL   O01Ib       1     -1.05    15.999
    7037      Ob       1     SIL   O01Ic       1     -1.05    15.999
    7038      Si       1     SIL   Si0eK       1       2.1    28.086
    7039      Si       1     SIL   Si0eL       1       2.1    28.086
    7040      Si       1     SIL   Si0eM       1       2.1    28.086
    7041      Ob       1     SIL   O01Id       1     -1.05    15.999
    7042      Ob       1     SIL   O01Ie       1     -1.05    15.999
    7043      Ob       1     SIL   O01If       1     -1.05    15.999
    7044      Ob       1     SIL   O01Ig       1     -1.05    15.999
    7045      Ob       1     SIL   O01Ih       1     -1.05    15.999
    7046      Ob       1     SIL   O01Ii       1     -1.05    15.999
    7047      Si       1     SIL   Si0eN       1       2.1    28.086
    7048      Si       1     SIL   Si0eO       1       2.1    28.086
    7049      Si       1     SIL   Si0eP       1       2.1    28.086
    7050      Ob       1     SIL   O01Ij       1     -1.05    15.999
    7051      Ob       1     SIL   O01Ik       1     -1.05    15.999
    7052      Ob       1     SIL   O01Il       1     -1.05    15.999
    7053      Ob       1     SIL   O01Im       1     -1.05    15.999
    7054      Ob       1     SIL   O01In       1     -1.05    15.999
    7055      Ob       1     SIL   O01Io       1     -1.05    15.999
    7056      Si       1     SIL   Si0eQ       1       2.1    28.086
    7057      Si       1     SIL   Si0eR       1       2.1    28.086
    7058      Si       1     SIL   Si0eS       1       2.1    28.086
    7059      Ob       1     SIL   O01Ip       1     -1.05    15.999
    7060      Ob       1     SIL   O01Iq       1     -1.05    15.999
    7061      Ob       1     SIL   O01Ir       1     -1.05    15.999
    7062      Ob       1     SIL   O01Is       1     -1.05    15.999
    7063      Ob       1     SIL   O01It       1     -1.05    15.999
    7064      Ob       1     SIL   O01Iu       1     -1.05    15.999
    7065      Si       1     SIL   Si0eT       1       2.1    28.086
    7066      Si       1     SIL   Si0eU       1       2.1    28.086
    7067      Si       1     SIL   Si0eV       1       2.1    28.086
    7068      Ob       1     SIL   O01Iv       1     -1.05    15.999
    7069      Ob       1     SIL   O01Iw       1     -1.05    15.999
    7070      Ob       1     SIL   O01Ix       1     -1.05    15.999
    7071      Ob       1     SIL   O01Iy       1     -1.05    15.999
    7072      Ob       1     SIL   O01Iz       1     -1.05    15.999
    7073      Ob       1     SIL   O01J0       1     -1.05    15.999
    7074      Si       1     SIL   Si0eW       1       2.1    28.086
    7075      Si       1     SIL   Si0eX       1       2.1    28.086
    7076      Si       1     SIL   Si0eY       1       2.1    28.086
    7077      Ob       1     SIL   O01J1       1     -1.05    15.999
    7078      Ob       1     SIL   O01J2       1     -1.05    15.999
    7079      Ob       1     SIL   O01J3       1     -1.05    15.999
    7080      Ob       1     SIL   O01J4       1     -1.05    15.999
    7081      Ob       1     SIL   O01J5       1     -1.05    15.999
    7082      Ob       1     SIL   O01J6       1     -1.05    15.999
    7083      Si       1     SIL   Si0eZ       1       2.1    28.086
    7084      Si       1     SIL   Si0ea       1       2.1    28.086
    7085      Si       1     SIL   Si0eb       1       2.1    28.086
    7086      Ob       1     SIL   O01J7       1     -1.05    15.999
    7087      Ob       1     SIL   O01J8       1     -1.05    15.999
    7088      Ob       1     SIL   O01J9       1     -1.05    15.999
    7089      Ob       1     SIL   O01JA       1     -1.05    15.999
    7090      Ob       1     SIL   O01JB       1     -1.05    15.999
    7091      Ob       1     SIL   O01JC       1     -1.05    15.999
    7092      Si       1     SIL   Si0ec       1       2.1    28.086
    7093      Si       1     SIL   Si0ed       1       2.1    28.086
    7094      Si       1     SIL   Si0ee       1       2.1    28.086
    7095      Ob       1     SIL   O01JD       1     -1.05    15.999
    7096      Ob       1     SIL   O01JE       1     -1.05    15.999
    7097      Ob       1     SIL   O01JF       1     -1.05    15.999
    7098      Ob       1     SIL   O01JG       1     -1.05    15.999
    7099      Ob       1     SIL   O01JH       1     -1.05    15.999
    7100      Ob       1     SIL   O01JI       1     -1.05    15.999
    7101      Si       1     SIL   Si0ef       1       2.1    28.086
    7102      Si       1     SIL   Si0eg       1       2.1    28.086
    7103      Si       1     SIL   Si0eh       1       2.1    28.086
    7104      Ob       1     SIL   O01JJ       1     -1.05    15.999
    7105      Ob       1     SIL   O01JK       1     -1.05    15.999
    7106      Ob       1     SIL   O01JL       1     -1.05    15.999
    7107      Ob       1     SIL   O01JM       1     -1.05    15.999
    7108      Ob       1     SIL   O01JN       1     -1.05    15.999
    7109      Ob       1     SIL   O01JO       1     -1.05    15.999
    7110      Si       1     SIL   Si0ei       1       2.1    28.086
    7111      Si       1     SIL   Si0ej       1       2.1    28.086
    7112      Si       1     SIL   Si0ek       1       2.1    28.086
    7113      Ob       1     SIL   O01JP       1     -1.05    15.999
    7114      Ob       1     SIL   O01JQ       1     -1.05    15.999
    7115      Ob       1     SIL   O01JR       1     -1.05    15.999
    7116      Ob       1     SIL   O01JS       1     -1.05    15.999
    7117      Ob       1     SIL   O01JT       1     -1.05    15.999
    7118      Ob       1     SIL   O01JU       1     -1.05    15.999
    7119      Si       1     SIL   Si0el       1       2.1    28.086
    7120      Si       1     SIL   Si0em       1       2.1    28.086
    7121      Si       1     SIL   Si0en       1       2.1    28.086
    7122      Ob       1     SIL   O01JV       1     -1.05    15.999
    7123      Ob       1     SIL   O01JW       1     -1.05    15.999
    7124      Ob       1     SIL   O01JX       1     -1.05    15.999
    7125      Ob       1     SIL   O01JY       1     -1.05    15.999
    7126      Ob       1     SIL   O01JZ       1     -1.05    15.999
    7127      Ob       1     SIL   O01Ja       1     -1.05    15.999
    7128      Si       1     SIL   Si0eo       1       2.1    28.086
    7129      Si       1     SIL   Si0ep       1       2.1    28.086
    7130      Si       1     SIL   Si0eq       1       2.1    28.086
    7131      Ob       1     SIL   O01Jb       1     -1.05    15.999
    7132      Ob       1     SIL   O01Jc       1     -1.05    15.999
    7133      Ob       1     SIL   O01Jd       1     -1.05    15.999
    7134      Ob       1     SIL   O01Je       1     -1.05    15.999
    7135      Ob       1     SIL   O01Jf       1     -1.05    15.999
    7136      Ob       1     SIL   O01Jg       1     -1.05    15.999
    7137      Si       1     SIL   Si0er       1       2.1    28.086
    7138      Si       1     SIL   Si0es       1       2.1    28.086
    7139      Si       1     SIL   Si0et       1       2.1    28.086
    7140      Ob       1     SIL   O01Jh       1     -1.05    15.999
    7141      Ob       1     SIL   O01Ji       1     -1.05    15.999
    7142      Ob       1     SIL   O01Jj       1     -1.05    15.999
    7143      Ob       1     SIL   O01Jk       1     -1.05    15.999
    7144      Ob       1     SIL   O01Jl       1     -1.05    15.999
    7145      Ob       1     SIL   O01Jm       1     -1.05    15.999
    7146      Si       1     SIL   Si0eu       1       2.1    28.086
    7147      Si       1     SIL   Si0ev       1       2.1    28.086
    7148      Si       1     SIL   Si0ew       1       2.1    28.086
    7149      Ob       1     SIL   O01Jn       1     -1.05    15.999
    7150      Ob       1     SIL   O01Jo       1     -1.05    15.999
    7151      Ob       1     SIL   O01Jp       1     -1.05    15.999
    7152      Ob       1     SIL   O01Jq       1     -1.05    15.999
    7153      Ob       1     SIL   O01Jr       1     -1.05    15.999
    7154      Ob       1     SIL   O01Js       1     -1.05    15.999
    7155      Si       1     SIL   Si0ex       1       2.1    28.086
    7156      Si       1     SIL   Si0ey       1       2.1    28.086
    7157      Si       1     SIL   Si0ez       1       2.1    28.086
    7158      Ob       1     SIL   O01Jt       1     -1.05    15.999
    7159      Ob       1     SIL   O01Ju       1     -1.05    15.999
    7160      Ob       1     SIL   O01Jv       1     -1.05    15.999
    7161      Ob       1     SIL   O01Jw       1     -1.05    15.999
    7162      Ob       1     SIL   O01Jx       1     -1.05    15.999
    7163      Ob       1     SIL   O01Jy       1     -1.05    15.999
    7164      Si       1     SIL   Si0f0       1       2.1    28.086
    7165      Si       1     SIL   Si0f1       1       2.1    28.086
    7166      Si       1     SIL   Si0f2       1       2.1    28.086
    7167      Ob       1     SIL   O01Jz       1     -1.05    15.999
    7168      Ob       1     SIL   O01K0       1     -1.05    15.999
    7169      Ob       1     SIL   O01K1       1     -1.05    15.999
    7170      Ob       1     SIL   O01K2       1     -1.05    15.999
    7171      Ob       1     SIL   O01K3       1     -1.05    15.999
    7172      Ob       1     SIL   O01K4       1     -1.05    15.999
    7173      Si       1     SIL   Si0f3       1       2.1    28.086
    7174      Si       1     SIL   Si0f4       1       2.1    28.086
    7175      Si       1     SIL   Si0f5       1       2.1    28.086
    7176      Ob       1     SIL   O01K5       1     -1.05    15.999
    7177      Ob       1     SIL   O01K6       1     -1.05    15.999
    7178      Ob       1     SIL   O01K7       1     -1.05    15.999
    7179      Ob       1     SIL   O01K8       1     -1.05    15.999
    7180      Ob       1     SIL   O01K9       1     -1.05    15.999
    7181      Ob       1     SIL   O01KA       1     -1.05    15.999
    7182      Si       1     SIL   Si0f6       1       2.1    28.086
    7183      Si       1     SIL   Si0f7       1       2.1    28.086
    7184      Si       1     SIL   Si0f8       1       2.1    28.086
    7185      Ob       1     SIL   O01KB       1     -1.05    15.999
    7186      Ob       1     SIL   O01KC       1     -1.05    15.999
    7187      Ob       1     SIL   O01KD       1     -1.05    15.999
    7188      Ob       1     SIL   O01KE       1     -1.05    15.999
    7189      Ob       1     SIL   O01KF       1     -1.05    15.999
    7190      Ob       1     SIL   O01KG       1     -1.05    15.999
    7191      Si       1     SIL   Si0f9       1       2.1    28.086
    7192      Si       1     SIL   Si0fA       1       2.1    28.086
    7193      Si       1     SIL   Si0fB       1       2.1    28.086
    7194      Ob       1     SIL   O01KH       1     -1.05    15.999
    7195       O       1     SIL   O01KI       1    -0.525    15.999
    7196       O       1     SIL   O01KJ       1    -0.525    15.999
    7197      Ob       1     SIL   O01KK       1     -1.05    15.999
    7198      Ob       1     SIL   O01KL       1     -1.05    15.999
    7199      Ob       1     SIL   O01KM       1     -1.05    15.999
    7200      Si       1     SIL   Si0fC       1       2.1    28.086
    7201      Si       1     SIL   Si0fD       1       2.1    28.086
    7202      Si       1     SIL   Si0fE       1       2.1    28.086
    7203      Ob       1     SIL   O01KN       1     -1.05    15.999
    7204      Ob       1     SIL   O01KO       1     -1.05    15.999
    7205      Ob       1     SIL   O01KP       1     -1.05    15.999
    7206      Ob       1     SIL   O01KQ       1     -1.05    15.999
    7207      Ob       1     SIL   O01KR       1     -1.05    15.999
    7208      Ob       1     SIL   O01KS       1     -1.05    15.999
    7209      Si       1     SIL   Si0fF       1       2.1    28.086
    7210      Si       1     SIL   Si0fG       1       2.1    28.086
    7211      Si       1     SIL   Si0fH       1       2.1    28.086
    7212      Ob       1     SIL   O01KT       1     -1.05    15.999
    7213      Ob       1     SIL   O01KU       1     -1.05    15.999
    7214      Ob       1     SIL   O01KV       1     -1.05    15.999
    7215      Ob       1     SIL   O01KW       1     -1.05    15.999
    7216      Ob       1     SIL   O01KX       1     -1.05    15.999
    7217      Ob       1     SIL   O01KY       1     -1.05    15.999
    7218      Si       1     SIL   Si0fI       1       2.1    28.086
    7219      Si       1     SIL   Si0fJ       1       2.1    28.086
    7220      Si       1     SIL   Si0fK       1       2.1    28.086
    7221      Ob       1     SIL   O01KZ       1     -1.05    15.999
    7222      Ob       1     SIL   O01Ka       1     -1.05    15.999
    7223      Ob       1     SIL   O01Kb       1     -1.05    15.999
    7224      Ob       1     SIL   O01Kc       1     -1.05    15.999
    7225      Ob       1     SIL   O01Kd       1     -1.05    15.999
    7226      Ob       1     SIL   O01Ke       1     -1.05    15.999
    7227      Si       1     SIL   Si0fL       1       2.1    28.086
    7228      Si       1     SIL   Si0fM       1       2.1    28.086
    7229      Si       1     SIL   Si0fN       1       2.1    28.086
    7230      Ob       1     SIL   O01Kf       1     -1.05    15.999
    7231      Ob       1     SIL   O01Kg       1     -1.05    15.999
    7232      Ob       1     SIL   O01Kh       1     -1.05    15.999
    7233      Ob       1     SIL   O01Ki       1     -1.05    15.999
    7234      Ob       1     SIL   O01Kj       1     -1.05    15.999
    7235      Ob       1     SIL   O01Kk       1     -1.05    15.999
    7236      Si       1     SIL   Si0fO       1       2.1    28.086
    7237      Si       1     SIL   Si0fP       1       2.1    28.086
    7238      Si       1     SIL   Si0fQ       1       2.1    28.086
    7239      Ob       1     SIL   O01Kl       1     -1.05    15.999
    7240      Ob       1     SIL   O01Km       1     -1.05    15.999
    7241      Ob       1     SIL   O01Kn       1     -1.05    15.999
    7242      Ob       1     SIL   O01Ko       1     -1.05    15.999
    7243      Ob       1     SIL   O01Kp       1     -1.05    15.999
    7244      Ob       1     SIL   O01Kq       1     -1.05    15.999
    7245      Si       1     SIL   Si0fR       1       2.1    28.086
    7246      Si       1     SIL   Si0fS       1       2.1    28.086
    7247      Si       1     SIL   Si0fT       1       2.1    28.086
    7248      Ob       1     SIL   O01Kr       1     -1.05    15.999
    7249      Ob       1     SIL   O01Ks       1     -1.05    15.999
    7250      Ob       1     SIL   O01Kt       1     -1.05    15.999
    7251      Ob       1     SIL   O01Ku       1     -1.05    15.999
    7252      Ob       1     SIL   O01Kv       1     -1.05    15.999
    7253      Ob       1     SIL   O01Kw       1     -1.05    15.999
    7254      Si       1     SIL   Si0fU       1       2.1    28.086
    7255      Si       1     SIL   Si0fV       1       2.1    28.086
    7256      Si       1     SIL   Si0fW       1       2.1    28.086
    7257      Ob       1     SIL   O01Kx       1     -1.05    15.999
    7258      Ob       1     SIL   O01Ky       1     -1.05    15.999
    7259      Ob       1     SIL   O01Kz       1     -1.05    15.999
    7260      Ob       1     SIL   O01L0       1     -1.05    15.999
    7261      Ob       1     SIL   O01L1       1     -1.05    15.999
    7262      Ob       1     SIL   O01L2       1     -1.05    15.999
    7263      Si       1     SIL   Si0fX       1       2.1    28.086
    7264      Si       1     SIL   Si0fY       1       2.1    28.086
    7265      Si       1     SIL   Si0fZ       1       2.1    28.086
    7266      Ob       1     SIL   O01L3       1     -1.05    15.999
    7267      Ob       1     SIL   O01L4       1     -1.05    15.999
    7268      Ob       1     SIL   O01L5       1     -1.05    15.999
    7269      Ob       1     SIL   O01L6       1     -1.05    15.999
    7270      Ob       1     SIL   O01L7       1     -1.05    15.999
    7271      Ob       1     SIL   O01L8       1     -1.05    15.999
    7272      Si       1     SIL   Si0fa       1       2.1    28.086
    7273      Si       1     SIL   Si0fb       1       2.1    28.086
    7274      Si       1     SIL   Si0fc       1       2.1    28.086
    7275      Ob       1     SIL   O01L9       1     -1.05    15.999
    7276      Ob       1     SIL   O01LA       1     -1.05    15.999
    7277      Ob       1     SIL   O01LB       1     -1.05    15.999
    7278      Ob       1     SIL   O01LC       1     -1.05    15.999
    7279      Ob       1     SIL   O01LD       1     -1.05    15.999
    7280      Ob       1     SIL   O01LE       1     -1.05    15.999
    7281      Si       1     SIL   Si0fd       1       2.1    28.086
    7282      Si       1     SIL   Si0fe       1       2.1    28.086
    7283      Si       1     SIL   Si0ff       1       2.1    28.086
    7284      Ob       1     SIL   O01LF       1     -1.05    15.999
    7285      Ob       1     SIL   O01LG       1     -1.05    15.999
    7286      Ob       1     SIL   O01LH       1     -1.05    15.999
    7287      Ob       1     SIL   O01LI       1     -1.05    15.999
    7288      Ob       1     SIL   O01LJ       1     -1.05    15.999
    7289      Ob       1     SIL   O01LK       1     -1.05    15.999
    7290      Si       1     SIL   Si0fg       1       2.1    28.086
    7291      Si       1     SIL   Si0fh       1       2.1    28.086
    7292      Si       1     SIL   Si0fi       1       2.1    28.086
    7293      Ob       1     SIL   O01LL       1     -1.05    15.999
    7294      Ob       1     SIL   O01LM       1     -1.05    15.999
    7295      Ob       1     SIL   O01LN       1     -1.05    15.999
    7296      Ob       1     SIL   O01LO       1     -1.05    15.999
    7297      Ob       1     SIL   O01LP       1     -1.05    15.999
    7298      Ob       1     SIL   O01LQ       1     -1.05    15.999
    7299      Si       1     SIL   Si0fj       1       2.1    28.086
    7300      Si       1     SIL   Si0fk       1       2.1    28.086
    7301      Si       1     SIL   Si0fl       1       2.1    28.086
    7302      Ob       1     SIL   O01LR       1     -1.05    15.999
    7303      Ob       1     SIL   O01LS       1     -1.05    15.999
    7304      Ob       1     SIL   O01LT       1     -1.05    15.999
    7305      Ob       1     SIL   O01LU       1     -1.05    15.999
    7306      Ob       1     SIL   O01LV       1     -1.05    15.999
    7307      Ob       1     SIL   O01LW       1     -1.05    15.999
    7308      Si       1     SIL   Si0fm       1       2.1    28.086
    7309      Si       1     SIL   Si0fn       1       2.1    28.086
    7310      Si       1     SIL   Si0fo       1       2.1    28.086
    7311      Ob       1     SIL   O01LX       1     -1.05    15.999
    7312      Ob       1     SIL   O01LY       1     -1.05    15.999
    7313      Ob       1     SIL   O01LZ       1     -1.05    15.999
    7314      Ob       1     SIL   O01La       1     -1.05    15.999
    7315      Ob       1     SIL   O01Lb       1     -1.05    15.999
    7316      Ob       1     SIL   O01Lc       1     -1.05    15.999
    7317      Si       1     SIL   Si0fp       1       2.1    28.086
    7318      Si       1     SIL   Si0fq       1       2.1    28.086
    7319      Si       1     SIL   Si0fr       1       2.1    28.086
    7320      Ob       1     SIL   O01Ld       1     -1.05    15.999
    7321      Ob       1     SIL   O01Le       1     -1.05    15.999
    7322      Ob       1     SIL   O01Lf       1     -1.05    15.999
    7323      Ob       1     SIL   O01Lg       1     -1.05    15.999
    7324      Ob       1     SIL   O01Lh       1     -1.05    15.999
    7325      Ob       1     SIL   O01Li       1     -1.05    15.999
    7326      Si       1     SIL   Si0fs       1       2.1    28.086
    7327      Si       1     SIL   Si0ft       1       2.1    28.086
    7328      Si       1     SIL   Si0fu       1       2.1    28.086
    7329      Ob       1     SIL   O01Lj       1     -1.05    15.999
    7330      Ob       1     SIL   O01Lk       1     -1.05    15.999
    7331      Ob       1     SIL   O01Ll       1     -1.05    15.999
    7332      Ob       1     SIL   O01Lm       1     -1.05    15.999
    7333      Ob       1     SIL   O01Ln       1     -1.05    15.999
    7334      Ob       1     SIL   O01Lo       1     -1.05    15.999
    7335      Si       1     SIL   Si0fv       1       2.1    28.086
    7336      Si       1     SIL   Si0fw       1       2.1    28.086
    7337      Si       1     SIL   Si0fx       1       2.1    28.086
    7338      Ob       1     SIL   O01Lp       1     -1.05    15.999
    7339      Ob       1     SIL   O01Lq       1     -1.05    15.999
    7340      Ob       1     SIL   O01Lr       1     -1.05    15.999
    7341      Ob       1     SIL   O01Ls       1     -1.05    15.999
    7342      Ob       1     SIL   O01Lt       1     -1.05    15.999
    7343      Ob       1     SIL   O01Lu       1     -1.05    15.999
    7344      Si       1     SIL   Si0fy       1       2.1    28.086
    7345      Si       1     SIL   Si0fz       1       2.1    28.086
    7346      Si       1     SIL   Si0g0       1       2.1    28.086
    7347      Ob       1     SIL   O01Lv       1     -1.05    15.999
    7348      Ob       1     SIL   O01Lw       1     -1.05    15.999
    7349      Ob       1     SIL   O01Lx       1     -1.05    15.999
    7350      Ob       1     SIL   O01Ly       1     -1.05    15.999
    7351      Ob       1     SIL   O01Lz       1     -1.05    15.999
    7352      Ob       1     SIL   O01M0       1     -1.05    15.999
    7353      Si       1     SIL   Si0g1       1       2.1    28.086
    7354      Si       1     SIL   Si0g2       1       2.1    28.086
    7355      Si       1     SIL   Si0g3       1       2.1    28.086
    7356      Ob       1     SIL   O01M1       1     -1.05    15.999
    7357      Ob       1     SIL   O01M2       1     -1.05    15.999
    7358      Ob       1     SIL   O01M3       1     -1.05    15.999
    7359      Ob       1     SIL   O01M4       1     -1.05    15.999
    7360      Ob       1     SIL   O01M5       1     -1.05    15.999
    7361      Ob       1     SIL   O01M6       1     -1.05    15.999
    7362      Si       1     SIL   Si0g4       1       2.1    28.086
    7363      Si       1     SIL   Si0g5       1       2.1    28.086
    7364      Si       1     SIL   Si0g6       1       2.1    28.086
    7365      Ob       1     SIL   O01M7       1     -1.05    15.999
    7366      Ob       1     SIL   O01M8       1     -1.05    15.999
    7367      Ob       1     SIL   O01M9       1     -1.05    15.999
    7368      Ob       1     SIL   O01MA       1     -1.05    15.999
    7369      Ob       1     SIL   O01MB       1     -1.05    15.999
    7370      Ob       1     SIL   O01MC       1     -1.05    15.999
    7371      Si       1     SIL   Si0g7       1       2.1    28.086
    7372      Si       1     SIL   Si0g8       1       2.1    28.086
    7373      Si       1     SIL   Si0g9       1       2.1    28.086
    7374      Ob       1     SIL   O01MD       1     -1.05    15.999
    7375      Ob       1     SIL   O01ME       1     -1.05    15.999
    7376      Ob       1     SIL   O01MF       1     -1.05    15.999
    7377      Ob       1     SIL   O01MG       1     -1.05    15.999
    7378      Ob       1     SIL   O01MH       1     -1.05    15.999
    7379      Ob       1     SIL   O01MI       1     -1.05    15.999
    7380      Si       1     SIL   Si0gA       1       2.1    28.086
    7381      Si       1     SIL   Si0gB       1       2.1    28.086
    7382      Si       1     SIL   Si0gC       1       2.1    28.086
    7383      Ob       1     SIL   O01MJ       1     -1.05    15.999
    7384      Ob       1     SIL   O01MK       1     -1.05    15.999
    7385      Ob       1     SIL   O01ML       1     -1.05    15.999
    7386      Ob       1     SIL   O01MM       1     -1.05    15.999
    7387      Ob       1     SIL   O01MN       1     -1.05    15.999
    7388      Ob       1     SIL   O01MO       1     -1.05    15.999
    7389      Si       1     SIL   Si0gD       1       2.1    28.086
    7390      Si       1     SIL   Si0gE       1       2.1    28.086
    7391      Si       1     SIL   Si0gF       1       2.1    28.086
    7392      Ob       1     SIL   O01MP       1     -1.05    15.999
    7393      Ob       1     SIL   O01MQ       1     -1.05    15.999
    7394      Ob       1     SIL   O01MR       1     -1.05    15.999
    7395      Ob       1     SIL   O01MS       1     -1.05    15.999
    7396      Ob       1     SIL   O01MT       1     -1.05    15.999
    7397      Ob       1     SIL   O01MU       1     -1.05    15.999
    7398      Si       1     SIL   Si0gG       1       2.1    28.086
    7399      Si       1     SIL   Si0gH       1       2.1    28.086
    7400      Si       1     SIL   Si0gI       1       2.1    28.086
    7401      Ob       1     SIL   O01MV       1     -1.05    15.999
    7402       O       1     SIL   O01MW       1    -0.525    15.999
    7403       O       1     SIL   O01MX       1    -0.525    15.999
    7404      Ob       1     SIL   O01MY       1     -1.05    15.999
    7405      Ob       1     SIL   O01MZ       1     -1.05    15.999
    7406      Ob       1     SIL   O01Ma       1     -1.05    15.999
    7407      Si       1     SIL   Si0gJ       1       2.1    28.086
    7408      Si       1     SIL   Si0gK       1       2.1    28.086
    7409      Si       1     SIL   Si0gL       1       2.1    28.086
    7410      Ob       1     SIL   O01Mb       1     -1.05    15.999
    7411      Ob       1     SIL   O01Mc       1     -1.05    15.999
    7412      Ob       1     SIL   O01Md       1     -1.05    15.999
    7413      Ob       1     SIL   O01Me       1     -1.05    15.999
    7414      Ob       1     SIL   O01Mf       1     -1.05    15.999
    7415      Ob       1     SIL   O01Mg       1     -1.05    15.999
    7416      Si       1     SIL   Si0gM       1       2.1    28.086
    7417      Si       1     SIL   Si0gN       1       2.1    28.086
    7418      Si       1     SIL   Si0gO       1       2.1    28.086
    7419      Ob       1     SIL   O01Mh       1     -1.05    15.999
    7420      Ob       1     SIL   O01Mi       1     -1.05    15.999
    7421      Ob       1     SIL   O01Mj       1     -1.05    15.999
    7422      Ob       1     SIL   O01Mk       1     -1.05    15.999
    7423      Ob       1     SIL   O01Ml       1     -1.05    15.999
    7424      Ob       1     SIL   O01Mm       1     -1.05    15.999
    7425      Si       1     SIL   Si0gP       1       2.1    28.086
    7426      Si       1     SIL   Si0gQ       1       2.1    28.086
    7427      Si       1     SIL   Si0gR       1       2.1    28.086
    7428      Ob       1     SIL   O01Mn       1     -1.05    15.999
    7429      Ob       1     SIL   O01Mo       1     -1.05    15.999
    7430      Ob       1     SIL   O01Mp       1     -1.05    15.999
    7431      Ob       1     SIL   O01Mq       1     -1.05    15.999
    7432      Ob       1     SIL   O01Mr       1     -1.05    15.999
    7433      Ob       1     SIL   O01Ms       1     -1.05    15.999
    7434      Si       1     SIL   Si0gS       1       2.1    28.086
    7435      Si       1     SIL   Si0gT       1       2.1    28.086
    7436      Si       1     SIL   Si0gU       1       2.1    28.086
    7437      Ob       1     SIL   O01Mt       1     -1.05    15.999
    7438      Ob       1     SIL   O01Mu       1     -1.05    15.999
    7439      Ob       1     SIL   O01Mv       1     -1.05    15.999
    7440      Ob       1     SIL   O01Mw       1     -1.05    15.999
    7441      Ob       1     SIL   O01Mx       1     -1.05    15.999
    7442      Ob       1     SIL   O01My       1     -1.05    15.999
    7443      Si       1     SIL   Si0gV       1       2.1    28.086
    7444      Si       1     SIL   Si0gW       1       2.1    28.086
    7445      Si       1     SIL   Si0gX       1       2.1    28.086
    7446      Ob       1     SIL   O01Mz       1     -1.05    15.999
    7447      Ob       1     SIL   O01N0       1     -1.05    15.999
    7448      Ob       1     SIL   O01N1       1     -1.05    15.999
    7449      Ob       1     SIL   O01N2       1     -1.05    15.999
    7450      Ob       1     SIL   O01N3       1     -1.05    15.999
    7451      Ob       1     SIL   O01N4       1     -1.05    15.999
    7452      Si       1     SIL   Si0gY       1       2.1    28.086
    7453      Si       1     SIL   Si0gZ       1       2.1    28.086
    7454      Si       1     SIL   Si0ga       1       2.1    28.086
    7455      Ob       1     SIL   O01N5       1     -1.05    15.999
    7456      Ob       1     SIL   O01N6       1     -1.05    15.999
    7457      Ob       1     SIL   O01N7       1     -1.05    15.999
    7458      Ob       1     SIL   O01N8       1     -1.05    15.999
    7459      Ob       1     SIL   O01N9       1     -1.05    15.999
    7460      Ob       1     SIL   O01NA       1     -1.05    15.999
    7461      Si       1     SIL   Si0gb       1       2.1    28.086
    7462      Si       1     SIL   Si0gc       1       2.1    28.086
    7463      Si       1     SIL   Si0gd       1       2.1    28.086
    7464      Ob       1     SIL   O01NB       1     -1.05    15.999
    7465      Ob       1     SIL   O01NC       1     -1.05    15.999
    7466      Ob       1     SIL   O01ND       1     -1.05    15.999
    7467      Ob       1     SIL   O01NE       1     -1.05    15.999
    7468      Ob       1     SIL   O01NF       1     -1.05    15.999
    7469      Ob       1     SIL   O01NG       1     -1.05    15.999
    7470      Si       1     SIL   Si0ge       1       2.1    28.086
    7471      Si       1     SIL   Si0gf       1       2.1    28.086
    7472      Si       1     SIL   Si0gg       1       2.1    28.086
    7473      Ob       1     SIL   O01NH       1     -1.05    15.999
    7474      Ob       1     SIL   O01NI       1     -1.05    15.999
    7475      Ob       1     SIL   O01NJ       1     -1.05    15.999
    7476      Ob       1     SIL   O01NK       1     -1.05    15.999
    7477      Ob       1     SIL   O01NL       1     -1.05    15.999
    7478      Ob       1     SIL   O01NM       1     -1.05    15.999
    7479      Si       1     SIL   Si0gh       1       2.1    28.086
    7480      Si       1     SIL   Si0gi       1       2.1    28.086
    7481      Si       1     SIL   Si0gj       1       2.1    28.086
    7482      Ob       1     SIL   O01NN       1     -1.05    15.999
    7483      Ob       1     SIL   O01NO       1     -1.05    15.999
    7484      Ob       1     SIL   O01NP       1     -1.05    15.999
    7485      Ob       1     SIL   O01NQ       1     -1.05    15.999
    7486      Ob       1     SIL   O01NR       1     -1.05    15.999
    7487      Ob       1     SIL   O01NS       1     -1.05    15.999
    7488      Si       1     SIL   Si0gk       1       2.1    28.086
    7489      Si       1     SIL   Si0gl       1       2.1    28.086
    7490      Si       1     SIL   Si0gm       1       2.1    28.086
    7491      Ob       1     SIL   O01NT       1     -1.05    15.999
    7492      Ob       1     SIL   O01NU       1     -1.05    15.999
    7493      Ob       1     SIL   O01NV       1     -1.05    15.999
    7494      Ob       1     SIL   O01NW       1     -1.05    15.999
    7495      Ob       1     SIL   O01NX       1     -1.05    15.999
    7496      Ob       1     SIL   O01NY       1     -1.05    15.999
    7497      Si       1     SIL   Si0gn       1       2.1    28.086
    7498      Si       1     SIL   Si0go       1       2.1    28.086
    7499      Si       1     SIL   Si0gp       1       2.1    28.086
    7500      Ob       1     SIL   O01NZ       1     -1.05    15.999
    7501      Ob       1     SIL   O01Na       1     -1.05    15.999
    7502      Ob       1     SIL   O01Nb       1     -1.05    15.999
    7503      Ob       1     SIL   O01Nc       1     -1.05    15.999
    7504      Ob       1     SIL   O01Nd       1     -1.05    15.999
    7505      Ob       1     SIL   O01Ne       1     -1.05    15.999
    7506      Si       1     SIL   Si0gq       1       2.1    28.086
    7507      Si       1     SIL   Si0gr       1       2.1    28.086
    7508      Si       1     SIL   Si0gs       1       2.1    28.086
    7509      Ob       1     SIL   O01Nf       1     -1.05    15.999
    7510      Ob       1     SIL   O01Ng       1     -1.05    15.999
    7511      Ob       1     SIL   O01Nh       1     -1.05    15.999
    7512      Ob       1     SIL   O01Ni       1     -1.05    15.999
    7513      Ob       1     SIL   O01Nj       1     -1.05    15.999
    7514      Ob       1     SIL   O01Nk       1     -1.05    15.999
    7515      Si       1     SIL   Si0gt       1       2.1    28.086
    7516      Si       1     SIL   Si0gu       1       2.1    28.086
    7517      Si       1     SIL   Si0gv       1       2.1    28.086
    7518      Ob       1     SIL   O01Nl       1     -1.05    15.999
    7519      Ob       1     SIL   O01Nm       1     -1.05    15.999
    7520      Ob       1     SIL   O01Nn       1     -1.05    15.999
    7521      Ob       1     SIL   O01No       1     -1.05    15.999
    7522      Ob       1     SIL   O01Np       1     -1.05    15.999
    7523      Ob       1     SIL   O01Nq       1     -1.05    15.999
    7524      Si       1     SIL   Si0gw       1       2.1    28.086
    7525      Si       1     SIL   Si0gx       1       2.1    28.086
    7526      Si       1     SIL   Si0gy       1       2.1    28.086
    7527      Ob       1     SIL   O01Nr       1     -1.05    15.999
    7528      Ob       1     SIL   O01Ns       1     -1.05    15.999
    7529      Ob       1     SIL   O01Nt       1     -1.05    15.999
    7530      Ob       1     SIL   O01Nu       1     -1.05    15.999
    7531      Ob       1     SIL   O01Nv       1     -1.05    15.999
    7532      Ob       1     SIL   O01Nw       1     -1.05    15.999
    7533      Si       1     SIL   Si0gz       1       2.1    28.086
    7534      Si       1     SIL   Si0h0       1       2.1    28.086
    7535      Si       1     SIL   Si0h1       1       2.1    28.086
    7536      Ob       1     SIL   O01Nx       1     -1.05    15.999
    7537      Ob       1     SIL   O01Ny       1     -1.05    15.999
    7538      Ob       1     SIL   O01Nz       1     -1.05    15.999
    7539      Ob       1     SIL   O01O0       1     -1.05    15.999
    7540      Ob       1     SIL   O01O1       1     -1.05    15.999
    7541      Ob       1     SIL   O01O2       1     -1.05    15.999
    7542      Si       1     SIL   Si0h2       1       2.1    28.086
    7543      Si       1     SIL   Si0h3       1       2.1    28.086
    7544      Si       1     SIL   Si0h4       1       2.1    28.086
    7545      Ob       1     SIL   O01O3       1     -1.05    15.999
    7546      Ob       1     SIL   O01O4       1     -1.05    15.999
    7547      Ob       1     SIL   O01O5       1     -1.05    15.999
    7548      Ob       1     SIL   O01O6       1     -1.05    15.999
    7549      Ob       1     SIL   O01O7       1     -1.05    15.999
    7550      Ob       1     SIL   O01O8       1     -1.05    15.999
    7551      Si       1     SIL   Si0h5       1       2.1    28.086
    7552      Si       1     SIL   Si0h6       1       2.1    28.086
    7553      Si       1     SIL   Si0h7       1       2.1    28.086
    7554      Ob       1     SIL   O01O9       1     -1.05    15.999
    7555      Ob       1     SIL   O01OA       1     -1.05    15.999
    7556      Ob       1     SIL   O01OB       1     -1.05    15.999
    7557      Ob       1     SIL   O01OC       1     -1.05    15.999
    7558      Ob       1     SIL   O01OD       1     -1.05    15.999
    7559      Ob       1     SIL   O01OE       1     -1.05    15.999
    7560      Si       1     SIL   Si0h8       1       2.1    28.086
    7561      Si       1     SIL   Si0h9       1       2.1    28.086
    7562      Si       1     SIL   Si0hA       1       2.1    28.086
    7563      Ob       1     SIL   O01OF       1     -1.05    15.999
    7564      Ob       1     SIL   O01OG       1     -1.05    15.999
    7565      Ob       1     SIL   O01OH       1     -1.05    15.999
    7566      Ob       1     SIL   O01OI       1     -1.05    15.999
    7567      Ob       1     SIL   O01OJ       1     -1.05    15.999
    7568      Ob       1     SIL   O01OK       1     -1.05    15.999
    7569      Si       1     SIL   Si0hB       1       2.1    28.086
    7570      Si       1     SIL   Si0hC       1       2.1    28.086
    7571      Si       1     SIL   Si0hD       1       2.1    28.086
    7572      Ob       1     SIL   O01OL       1     -1.05    15.999
    7573      Ob       1     SIL   O01OM       1     -1.05    15.999
    7574      Ob       1     SIL   O01ON       1     -1.05    15.999
    7575      Ob       1     SIL   O01OO       1     -1.05    15.999
    7576      Ob       1     SIL   O01OP       1     -1.05    15.999
    7577      Ob       1     SIL   O01OQ       1     -1.05    15.999
    7578      Si       1     SIL   Si0hE       1       2.1    28.086
    7579      Si       1     SIL   Si0hF       1       2.1    28.086
    7580      Si       1     SIL   Si0hG       1       2.1    28.086
    7581      Ob       1     SIL   O01OR       1     -1.05    15.999
    7582      Ob       1     SIL   O01OS       1     -1.05    15.999
    7583      Ob       1     SIL   O01OT       1     -1.05    15.999
    7584      Ob       1     SIL   O01OU       1     -1.05    15.999
    7585      Ob       1     SIL   O01OV       1     -1.05    15.999
    7586      Ob       1     SIL   O01OW       1     -1.05    15.999
    7587      Si       1     SIL   Si0hH       1       2.1    28.086
    7588      Si       1     SIL   Si0hI       1       2.1    28.086
    7589      Si       1     SIL   Si0hJ       1       2.1    28.086
    7590      Ob       1     SIL   O01OX       1     -1.05    15.999
    7591      Ob       1     SIL   O01OY       1     -1.05    15.999
    7592      Ob       1     SIL   O01OZ       1     -1.05    15.999
    7593      Ob       1     SIL   O01Oa       1     -1.05    15.999
    7594      Ob       1     SIL   O01Ob       1     -1.05    15.999
    7595      Ob       1     SIL   O01Oc       1     -1.05    15.999
    7596      Si       1     SIL   Si0hK       1       2.1    28.086
    7597      Si       1     SIL   Si0hL       1       2.1    28.086
    7598      Si       1     SIL   Si0hM       1       2.1    28.086
    7599      Ob       1     SIL   O01Od       1     -1.05    15.999
    7600      Ob       1     SIL   O01Oe       1     -1.05    15.999
    7601      Ob       1     SIL   O01Of       1     -1.05    15.999
    7602      Ob       1     SIL   O01Og       1     -1.05    15.999
    7603      Ob       1     SIL   O01Oh       1     -1.05    15.999
    7604      Ob       1     SIL   O01Oi       1     -1.05    15.999
    7605      Si       1     SIL   Si0hN       1       2.1    28.086
    7606      Si       1     SIL   Si0hO       1       2.1    28.086
    7607      Si       1     SIL   Si0hP       1       2.1    28.086
    7608      Ob       1     SIL   O01Oj       1     -1.05    15.999
    7609       O       1     SIL   O01Ok       1    -0.525    15.999
    7610       O       1     SIL   O01Ol       1    -0.525    15.999
    7611      Ob       1     SIL   O01Om       1     -1.05    15.999
    7612      Ob       1     SIL   O01On       1     -1.05    15.999
    7613      Ob       1     SIL   O01Oo       1     -1.05    15.999
    7614      Si       1     SIL   Si0hQ       1       2.1    28.086
    7615      Si       1     SIL   Si0hR       1       2.1    28.086
    7616      Si       1     SIL   Si0hS       1       2.1    28.086
    7617      Ob       1     SIL   O01Op       1     -1.05    15.999
    7618      Ob       1     SIL   O01Oq       1     -1.05    15.999
    7619      Ob       1     SIL   O01Or       1     -1.05    15.999
    7620      Ob       1     SIL   O01Os       1     -1.05    15.999
    7621      Ob       1     SIL   O01Ot       1     -1.05    15.999
    7622      Ob       1     SIL   O01Ou       1     -1.05    15.999
    7623      Si       1     SIL   Si0hT       1       2.1    28.086
    7624      Si       1     SIL   Si0hU       1       2.1    28.086
    7625      Si       1     SIL   Si0hV       1       2.1    28.086
    7626      Ob       1     SIL   O01Ov       1     -1.05    15.999
    7627      Ob       1     SIL   O01Ow       1     -1.05    15.999
    7628      Ob       1     SIL   O01Ox       1     -1.05    15.999
    7629      Ob       1     SIL   O01Oy       1     -1.05    15.999
    7630      Ob       1     SIL   O01Oz       1     -1.05    15.999
    7631      Ob       1     SIL   O01P0       1     -1.05    15.999
    7632      Si       1     SIL   Si0hW       1       2.1    28.086
    7633      Si       1     SIL   Si0hX       1       2.1    28.086
    7634      Si       1     SIL   Si0hY       1       2.1    28.086
    7635      Ob       1     SIL   O01P1       1     -1.05    15.999
    7636      Ob       1     SIL   O01P2       1     -1.05    15.999
    7637      Ob       1     SIL   O01P3       1     -1.05    15.999
    7638      Ob       1     SIL   O01P4       1     -1.05    15.999
    7639      Ob       1     SIL   O01P5       1     -1.05    15.999
    7640      Ob       1     SIL   O01P6       1     -1.05    15.999
    7641      Si       1     SIL   Si0hZ       1       2.1    28.086
    7642      Si       1     SIL   Si0ha       1       2.1    28.086
    7643      Si       1     SIL   Si0hb       1       2.1    28.086
    7644      Ob       1     SIL   O01P7       1     -1.05    15.999
    7645      Ob       1     SIL   O01P8       1     -1.05    15.999
    7646      Ob       1     SIL   O01P9       1     -1.05    15.999
    7647      Ob       1     SIL   O01PA       1     -1.05    15.999
    7648      Ob       1     SIL   O01PB       1     -1.05    15.999
    7649      Ob       1     SIL   O01PC       1     -1.05    15.999
    7650      Si       1     SIL   Si0hc       1       2.1    28.086
    7651      Si       1     SIL   Si0hd       1       2.1    28.086
    7652      Si       1     SIL   Si0he       1       2.1    28.086
    7653      Ob       1     SIL   O01PD       1     -1.05    15.999
    7654      Ob       1     SIL   O01PE       1     -1.05    15.999
    7655      Ob       1     SIL   O01PF       1     -1.05    15.999
    7656      Ob       1     SIL   O01PG       1     -1.05    15.999
    7657      Ob       1     SIL   O01PH       1     -1.05    15.999
    7658      Ob       1     SIL   O01PI       1     -1.05    15.999
    7659      Si       1     SIL   Si0hf       1       2.1    28.086
    7660      Si       1     SIL   Si0hg       1       2.1    28.086
    7661      Si       1     SIL   Si0hh       1       2.1    28.086
    7662      Ob       1     SIL   O01PJ       1     -1.05    15.999
    7663      Ob       1     SIL   O01PK       1     -1.05    15.999
    7664      Ob       1     SIL   O01PL       1     -1.05    15.999
    7665      Ob       1     SIL   O01PM       1     -1.05    15.999
    7666      Ob       1     SIL   O01PN       1     -1.05    15.999
    7667      Ob       1     SIL   O01PO       1     -1.05    15.999
    7668      Si       1     SIL   Si0hi       1       2.1    28.086
    7669      Si       1     SIL   Si0hj       1       2.1    28.086
    7670      Si       1     SIL   Si0hk       1       2.1    28.086
    7671      Ob       1     SIL   O01PP       1     -1.05    15.999
    7672      Ob       1     SIL   O01PQ       1     -1.05    15.999
    7673      Ob       1     SIL   O01PR       1     -1.05    15.999
    7674      Ob       1     SIL   O01PS       1     -1.05    15.999
    7675      Ob       1     SIL   O01PT       1     -1.05    15.999
    7676      Ob       1     SIL   O01PU       1     -1.05    15.999
    7677      Si       1     SIL   Si0hl       1       2.1    28.086
    7678      Si       1     SIL   Si0hm       1       2.1    28.086
    7679      Si       1     SIL   Si0hn       1       2.1    28.086
    7680      Ob       1     SIL   O01PV       1     -1.05    15.999
    7681      Ob       1     SIL   O01PW       1     -1.05    15.999
    7682      Ob       1     SIL   O01PX       1     -1.05    15.999
    7683      Ob       1     SIL   O01PY       1     -1.05    15.999
    7684      Ob       1     SIL   O01PZ       1     -1.05    15.999
    7685      Ob       1     SIL   O01Pa       1     -1.05    15.999
    7686      Si       1     SIL   Si0ho       1       2.1    28.086
    7687      Si       1     SIL   Si0hp       1       2.1    28.086
    7688      Si       1     SIL   Si0hq       1       2.1    28.086
    7689      Ob       1     SIL   O01Pb       1     -1.05    15.999
    7690      Ob       1     SIL   O01Pc       1     -1.05    15.999
    7691      Ob       1     SIL   O01Pd       1     -1.05    15.999
    7692      Ob       1     SIL   O01Pe       1     -1.05    15.999
    7693      Ob       1     SIL   O01Pf       1     -1.05    15.999
    7694      Ob       1     SIL   O01Pg       1     -1.05    15.999
    7695      Si       1     SIL   Si0hr       1       2.1    28.086
    7696      Si       1     SIL   Si0hs       1       2.1    28.086
    7697      Si       1     SIL   Si0ht       1       2.1    28.086
    7698      Ob       1     SIL   O01Ph       1     -1.05    15.999
    7699      Ob       1     SIL   O01Pi       1     -1.05    15.999
    7700      Ob       1     SIL   O01Pj       1     -1.05    15.999
    7701      Ob       1     SIL   O01Pk       1     -1.05    15.999
    7702      Ob       1     SIL   O01Pl       1     -1.05    15.999
    7703      Ob       1     SIL   O01Pm       1     -1.05    15.999
    7704      Si       1     SIL   Si0hu       1       2.1    28.086
    7705      Si       1     SIL   Si0hv       1       2.1    28.086
    7706      Si       1     SIL   Si0hw       1       2.1    28.086
    7707      Ob       1     SIL   O01Pn       1     -1.05    15.999
    7708      Ob       1     SIL   O01Po       1     -1.05    15.999
    7709      Ob       1     SIL   O01Pp       1     -1.05    15.999
    7710      Ob       1     SIL   O01Pq       1     -1.05    15.999
    7711      Ob       1     SIL   O01Pr       1     -1.05    15.999
    7712      Ob       1     SIL   O01Ps       1     -1.05    15.999
    7713      Si       1     SIL   Si0hx       1       2.1    28.086
    7714      Si       1     SIL   Si0hy       1       2.1    28.086
    7715      Si       1     SIL   Si0hz       1       2.1    28.086
    7716      Ob       1     SIL   O01Pt       1     -1.05    15.999
    7717      Ob       1     SIL   O01Pu       1     -1.05    15.999
    7718      Ob       1     SIL   O01Pv       1     -1.05    15.999
    7719      Ob       1     SIL   O01Pw       1     -1.05    15.999
    7720      Ob       1     SIL   O01Px       1     -1.05    15.999
    7721      Ob       1     SIL   O01Py       1     -1.05    15.999
    7722      Si       1     SIL   Si0i0       1       2.1    28.086
    7723      Si       1     SIL   Si0i1       1       2.1    28.086
    7724      Si       1     SIL   Si0i2       1       2.1    28.086
    7725      Ob       1     SIL   O01Pz       1     -1.05    15.999
    7726      Ob       1     SIL   O01Q0       1     -1.05    15.999
    7727      Ob       1     SIL   O01Q1       1     -1.05    15.999
    7728      Ob       1     SIL   O01Q2       1     -1.05    15.999
    7729      Ob       1     SIL   O01Q3       1     -1.05    15.999
    7730      Ob       1     SIL   O01Q4       1     -1.05    15.999
    7731      Si       1     SIL   Si0i3       1       2.1    28.086
    7732      Si       1     SIL   Si0i4       1       2.1    28.086
    7733      Si       1     SIL   Si0i5       1       2.1    28.086
    7734      Ob       1     SIL   O01Q5       1     -1.05    15.999
    7735      Ob       1     SIL   O01Q6       1     -1.05    15.999
    7736      Ob       1     SIL   O01Q7       1     -1.05    15.999
    7737      Ob       1     SIL   O01Q8       1     -1.05    15.999
    7738      Ob       1     SIL   O01Q9       1     -1.05    15.999
    7739      Ob       1     SIL   O01QA       1     -1.05    15.999
    7740      Si       1     SIL   Si0i6       1       2.1    28.086
    7741      Si       1     SIL   Si0i7       1       2.1    28.086
    7742      Si       1     SIL   Si0i8       1       2.1    28.086
    7743      Ob       1     SIL   O01QB       1     -1.05    15.999
    7744      Ob       1     SIL   O01QC       1     -1.05    15.999
    7745      Ob       1     SIL   O01QD       1     -1.05    15.999
    7746      Ob       1     SIL   O01QE       1     -1.05    15.999
    7747      Ob       1     SIL   O01QF       1     -1.05    15.999
    7748      Ob       1     SIL   O01QG       1     -1.05    15.999
    7749      Si       1     SIL   Si0i9       1       2.1    28.086
    7750      Si       1     SIL   Si0iA       1       2.1    28.086
    7751      Si       1     SIL   Si0iB       1       2.1    28.086
    7752      Ob       1     SIL   O01QH       1     -1.05    15.999
    7753      Ob       1     SIL   O01QI       1     -1.05    15.999
    7754      Ob       1     SIL   O01QJ       1     -1.05    15.999
    7755      Ob       1     SIL   O01QK       1     -1.05    15.999
    7756      Ob       1     SIL   O01QL       1     -1.05    15.999
    7757      Ob       1     SIL   O01QM       1     -1.05    15.999
    7758      Si       1     SIL   Si0iC       1       2.1    28.086
    7759      Si       1     SIL   Si0iD       1       2.1    28.086
    7760      Si       1     SIL   Si0iE       1       2.1    28.086
    7761      Ob       1     SIL   O01QN       1     -1.05    15.999
    7762      Ob       1     SIL   O01QO       1     -1.05    15.999
    7763      Ob       1     SIL   O01QP       1     -1.05    15.999
    7764      Ob       1     SIL   O01QQ       1     -1.05    15.999
    7765      Ob       1     SIL   O01QR       1     -1.05    15.999
    7766      Ob       1     SIL   O01QS       1     -1.05    15.999
    7767      Si       1     SIL   Si0iF       1       2.1    28.086
    7768      Si       1     SIL   Si0iG       1       2.1    28.086
    7769      Si       1     SIL   Si0iH       1       2.1    28.086
    7770      Ob       1     SIL   O01QT       1     -1.05    15.999
    7771      Ob       1     SIL   O01QU       1     -1.05    15.999
    7772      Ob       1     SIL   O01QV       1     -1.05    15.999
    7773      Ob       1     SIL   O01QW       1     -1.05    15.999
    7774      Ob       1     SIL   O01QX       1     -1.05    15.999
    7775      Ob       1     SIL   O01QY       1     -1.05    15.999
    7776      Si       1     SIL   Si0iI       1       2.1    28.086
    7777      Si       1     SIL   Si0iJ       1       2.1    28.086
    7778      Si       1     SIL   Si0iK       1       2.1    28.086
    7779      Ob       1     SIL   O01QZ       1     -1.05    15.999
    7780      Ob       1     SIL   O01Qa       1     -1.05    15.999
    7781      Ob       1     SIL   O01Qb       1     -1.05    15.999
    7782      Ob       1     SIL   O01Qc       1     -1.05    15.999
    7783      Ob       1     SIL   O01Qd       1     -1.05    15.999
    7784      Ob       1     SIL   O01Qe       1     -1.05    15.999
    7785      Si       1     SIL   Si0iL       1       2.1    28.086
    7786      Si       1     SIL   Si0iM       1       2.1    28.086
    7787      Si       1     SIL   Si0iN       1       2.1    28.086
    7788      Ob       1     SIL   O01Qf       1     -1.05    15.999
    7789      Ob       1     SIL   O01Qg       1     -1.05    15.999
    7790      Ob       1     SIL   O01Qh       1     -1.05    15.999
    7791      Ob       1     SIL   O01Qi       1     -1.05    15.999
    7792      Ob       1     SIL   O01Qj       1     -1.05    15.999
    7793      Ob       1     SIL   O01Qk       1     -1.05    15.999
    7794      Si       1     SIL   Si0iO       1       2.1    28.086
    7795      Si       1     SIL   Si0iP       1       2.1    28.086
    7796      Si       1     SIL   Si0iQ       1       2.1    28.086
    7797      Ob       1     SIL   O01Ql       1     -1.05    15.999
    7798      Ob       1     SIL   O01Qm       1     -1.05    15.999
    7799      Ob       1     SIL   O01Qn       1     -1.05    15.999
    7800      Ob       1     SIL   O01Qo       1     -1.05    15.999
    7801      Ob       1     SIL   O01Qp       1     -1.05    15.999
    7802      Ob       1     SIL   O01Qq       1     -1.05    15.999
    7803      Si       1     SIL   Si0iR       1       2.1    28.086
    7804      Si       1     SIL   Si0iS       1       2.1    28.086
    7805      Si       1     SIL   Si0iT       1       2.1    28.086
    7806      Ob       1     SIL   O01Qr       1     -1.05    15.999
    7807      Ob       1     SIL   O01Qs       1     -1.05    15.999
    7808      Ob       1     SIL   O01Qt       1     -1.05    15.999
    7809      Ob       1     SIL   O01Qu       1     -1.05    15.999
    7810      Ob       1     SIL   O01Qv       1     -1.05    15.999
    7811      Ob       1     SIL   O01Qw       1     -1.05    15.999
    7812      Si       1     SIL   Si0iU       1       2.1    28.086
    7813      Si       1     SIL   Si0iV       1       2.1    28.086
    7814      Si       1     SIL   Si0iW       1       2.1    28.086
    7815      Ob       1     SIL   O01Qx       1     -1.05    15.999
    7816       O       1     SIL   O01Qy       1    -0.525    15.999
    7817       O       1     SIL   O01Qz       1    -0.525    15.999
    7818      Ob       1     SIL   O01R0       1     -1.05    15.999
    7819      Ob       1     SIL   O01R1       1     -1.05    15.999
    7820      Ob       1     SIL   O01R2       1     -1.05    15.999
    7821      Si       1     SIL   Si0iX       1       2.1    28.086
    7822      Si       1     SIL   Si0iY       1       2.1    28.086
    7823      Si       1     SIL   Si0iZ       1       2.1    28.086
    7824      Ob       1     SIL   O01R3       1     -1.05    15.999
    7825      Ob       1     SIL   O01R4       1     -1.05    15.999
    7826      Ob       1     SIL   O01R5       1     -1.05    15.999
    7827      Ob       1     SIL   O01R6       1     -1.05    15.999
    7828      Ob       1     SIL   O01R7       1     -1.05    15.999
    7829      Ob       1     SIL   O01R8       1     -1.05    15.999
    7830      Si       1     SIL   Si0ia       1       2.1    28.086
    7831      Si       1     SIL   Si0ib       1       2.1    28.086
    7832      Si       1     SIL   Si0ic       1       2.1    28.086
    7833      Ob       1     SIL   O01R9       1     -1.05    15.999
    7834      Ob       1     SIL   O01RA       1     -1.05    15.999
    7835      Ob       1     SIL   O01RB       1     -1.05    15.999
    7836      Ob       1     SIL   O01RC       1     -1.05    15.999
    7837      Ob       1     SIL   O01RD       1     -1.05    15.999
    7838      Ob       1     SIL   O01RE       1     -1.05    15.999
    7839      Si       1     SIL   Si0id       1       2.1    28.086
    7840      Si       1     SIL   Si0ie       1       2.1    28.086
    7841      Si       1     SIL   Si0if       1       2.1    28.086
    7842      Ob       1     SIL   O01RF       1     -1.05    15.999
    7843      Ob       1     SIL   O01RG       1     -1.05    15.999
    7844      Ob       1     SIL   O01RH       1     -1.05    15.999
    7845      Ob       1     SIL   O01RI       1     -1.05    15.999
    7846      Ob       1     SIL   O01RJ       1     -1.05    15.999
    7847      Ob       1     SIL   O01RK       1     -1.05    15.999
    7848      Si       1     SIL   Si0ig       1       2.1    28.086
    7849      Si       1     SIL   Si0ih       1       2.1    28.086
    7850      Si       1     SIL   Si0ii       1       2.1    28.086
    7851      Ob       1     SIL   O01RL       1     -1.05    15.999
    7852      Ob       1     SIL   O01RM       1     -1.05    15.999
    7853      Ob       1     SIL   O01RN       1     -1.05    15.999
    7854      Ob       1     SIL   O01RO       1     -1.05    15.999
    7855      Ob       1     SIL   O01RP       1     -1.05    15.999
    7856      Ob       1     SIL   O01RQ       1     -1.05    15.999
    7857      Si       1     SIL   Si0ij       1       2.1    28.086
    7858      Si       1     SIL   Si0ik       1       2.1    28.086
    7859      Si       1     SIL   Si0il       1       2.1    28.086
    7860      Ob       1     SIL   O01RR       1     -1.05    15.999
    7861      Ob       1     SIL   O01RS       1     -1.05    15.999
    7862      Ob       1     SIL   O01RT       1     -1.05    15.999
    7863      Ob       1     SIL   O01RU       1     -1.05    15.999
    7864      Ob       1     SIL   O01RV       1     -1.05    15.999
    7865      Ob       1     SIL   O01RW       1     -1.05    15.999
    7866      Si       1     SIL   Si0im       1       2.1    28.086
    7867      Si       1     SIL   Si0in       1       2.1    28.086
    7868      Si       1     SIL   Si0io       1       2.1    28.086
    7869      Ob       1     SIL   O01RX       1     -1.05    15.999
    7870      Ob       1     SIL   O01RY       1     -1.05    15.999
    7871      Ob       1     SIL   O01RZ       1     -1.05    15.999
    7872      Ob       1     SIL   O01Ra       1     -1.05    15.999
    7873      Ob       1     SIL   O01Rb       1     -1.05    15.999
    7874      Ob       1     SIL   O01Rc       1     -1.05    15.999
    7875      Si       1     SIL   Si0ip       1       2.1    28.086
    7876      Si       1     SIL   Si0iq       1       2.1    28.086
    7877      Si       1     SIL   Si0ir       1       2.1    28.086
    7878      Ob       1     SIL   O01Rd       1     -1.05    15.999
    7879      Ob       1     SIL   O01Re       1     -1.05    15.999
    7880      Ob       1     SIL   O01Rf       1     -1.05    15.999
    7881      Ob       1     SIL   O01Rg       1     -1.05    15.999
    7882      Ob       1     SIL   O01Rh       1     -1.05    15.999
    7883      Ob       1     SIL   O01Ri       1     -1.05    15.999
    7884      Si       1     SIL   Si0is       1       2.1    28.086
    7885      Si       1     SIL   Si0it       1       2.1    28.086
    7886      Si       1     SIL   Si0iu       1       2.1    28.086
    7887      Ob       1     SIL   O01Rj       1     -1.05    15.999
    7888      Ob       1     SIL   O01Rk       1     -1.05    15.999
    7889      Ob       1     SIL   O01Rl       1     -1.05    15.999
    7890      Ob       1     SIL   O01Rm       1     -1.05    15.999
    7891      Ob       1     SIL   O01Rn       1     -1.05    15.999
    7892      Ob       1     SIL   O01Ro       1     -1.05    15.999
    7893      Si       1     SIL   Si0iv       1       2.1    28.086
    7894      Si       1     SIL   Si0iw       1       2.1    28.086
    7895      Si       1     SIL   Si0ix       1       2.1    28.086
    7896      Ob       1     SIL   O01Rp       1     -1.05    15.999
    7897      Ob       1     SIL   O01Rq       1     -1.05    15.999
    7898      Ob       1     SIL   O01Rr       1     -1.05    15.999
    7899      Ob       1     SIL   O01Rs       1     -1.05    15.999
    7900      Ob       1     SIL   O01Rt       1     -1.05    15.999
    7901      Ob       1     SIL   O01Ru       1     -1.05    15.999
    7902      Si       1     SIL   Si0iy       1       2.1    28.086
    7903      Si       1     SIL   Si0iz       1       2.1    28.086
    7904      Si       1     SIL   Si0j0       1       2.1    28.086
    7905      Ob       1     SIL   O01Rv       1     -1.05    15.999
    7906      Ob       1     SIL   O01Rw       1     -1.05    15.999
    7907      Ob       1     SIL   O01Rx       1     -1.05    15.999
    7908      Ob       1     SIL   O01Ry       1     -1.05    15.999
    7909      Ob       1     SIL   O01Rz       1     -1.05    15.999
    7910      Ob       1     SIL   O01S0       1     -1.05    15.999
    7911      Si       1     SIL   Si0j1       1       2.1    28.086
    7912      Si       1     SIL   Si0j2       1       2.1    28.086
    7913      Si       1     SIL   Si0j3       1       2.1    28.086
    7914      Ob       1     SIL   O01S1       1     -1.05    15.999
    7915      Ob       1     SIL   O01S2       1     -1.05    15.999
    7916      Ob       1     SIL   O01S3       1     -1.05    15.999
    7917      Ob       1     SIL   O01S4       1     -1.05    15.999
    7918      Ob       1     SIL   O01S5       1     -1.05    15.999
    7919      Ob       1     SIL   O01S6       1     -1.05    15.999
    7920      Si       1     SIL   Si0j4       1       2.1    28.086
    7921      Si       1     SIL   Si0j5       1       2.1    28.086
    7922      Si       1     SIL   Si0j6       1       2.1    28.086
    7923      Ob       1     SIL   O01S7       1     -1.05    15.999
    7924      Ob       1     SIL   O01S8       1     -1.05    15.999
    7925      Ob       1     SIL   O01S9       1     -1.05    15.999
    7926      Ob       1     SIL   O01SA       1     -1.05    15.999
    7927      Ob       1     SIL   O01SB       1     -1.05    15.999
    7928      Ob       1     SIL   O01SC       1     -1.05    15.999
    7929      Si       1     SIL   Si0j7       1       2.1    28.086
    7930      Si       1     SIL   Si0j8       1       2.1    28.086
    7931      Si       1     SIL   Si0j9       1       2.1    28.086
    7932      Ob       1     SIL   O01SD       1     -1.05    15.999
    7933      Ob       1     SIL   O01SE       1     -1.05    15.999
    7934      Ob       1     SIL   O01SF       1     -1.05    15.999
    7935      Ob       1     SIL   O01SG       1     -1.05    15.999
    7936      Ob       1     SIL   O01SH       1     -1.05    15.999
    7937      Ob       1     SIL   O01SI       1     -1.05    15.999
    7938      Si       1     SIL   Si0jA       1       2.1    28.086
    7939      Si       1     SIL   Si0jB       1       2.1    28.086
    7940      Si       1     SIL   Si0jC       1       2.1    28.086
    7941      Ob       1     SIL   O01SJ       1     -1.05    15.999
    7942      Ob       1     SIL   O01SK       1     -1.05    15.999
    7943      Ob       1     SIL   O01SL       1     -1.05    15.999
    7944      Ob       1     SIL   O01SM       1     -1.05    15.999
    7945      Ob       1     SIL   O01SN       1     -1.05    15.999
    7946      Ob       1     SIL   O01SO       1     -1.05    15.999
    7947      Si       1     SIL   Si0jD       1       2.1    28.086
    7948      Si       1     SIL   Si0jE       1       2.1    28.086
    7949      Si       1     SIL   Si0jF       1       2.1    28.086
    7950      Ob       1     SIL   O01SP       1     -1.05    15.999
    7951      Ob       1     SIL   O01SQ       1     -1.05    15.999
    7952      Ob       1     SIL   O01SR       1     -1.05    15.999
    7953      Ob       1     SIL   O01SS       1     -1.05    15.999
    7954      Ob       1     SIL   O01ST       1     -1.05    15.999
    7955      Ob       1     SIL   O01SU       1     -1.05    15.999
    7956      Si       1     SIL   Si0jG       1       2.1    28.086
    7957      Si       1     SIL   Si0jH       1       2.1    28.086
    7958      Si       1     SIL   Si0jI       1       2.1    28.086
    7959      Ob       1     SIL   O01SV       1     -1.05    15.999
    7960      Ob       1     SIL   O01SW       1     -1.05    15.999
    7961      Ob       1     SIL   O01SX       1     -1.05    15.999
    7962      Ob       1     SIL   O01SY       1     -1.05    15.999
    7963      Ob       1     SIL   O01SZ       1     -1.05    15.999
    7964      Ob       1     SIL   O01Sa       1     -1.05    15.999
    7965      Si       1     SIL   Si0jJ       1       2.1    28.086
    7966      Si       1     SIL   Si0jK       1       2.1    28.086
    7967      Si       1     SIL   Si0jL       1       2.1    28.086
    7968      Ob       1     SIL   O01Sb       1     -1.05    15.999
    7969      Ob       1     SIL   O01Sc       1     -1.05    15.999
    7970      Ob       1     SIL   O01Sd       1     -1.05    15.999
    7971      Ob       1     SIL   O01Se       1     -1.05    15.999
    7972      Ob       1     SIL   O01Sf       1     -1.05    15.999
    7973      Ob       1     SIL   O01Sg       1     -1.05    15.999
    7974      Si       1     SIL   Si0jM       1       2.1    28.086
    7975      Si       1     SIL   Si0jN       1       2.1    28.086
    7976      Si       1     SIL   Si0jO       1       2.1    28.086
    7977      Ob       1     SIL   O01Sh       1     -1.05    15.999
    7978      Ob       1     SIL   O01Si       1     -1.05    15.999
    7979      Ob       1     SIL   O01Sj       1     -1.05    15.999
    7980      Ob       1     SIL   O01Sk       1     -1.05    15.999
    7981      Ob       1     SIL   O01Sl       1     -1.05    15.999
    7982      Ob       1     SIL   O01Sm       1     -1.05    15.999
    7983      Si       1     SIL   Si0jP       1       2.1    28.086
    7984      Si       1     SIL   Si0jQ       1       2.1    28.086
    7985      Si       1     SIL   Si0jR       1       2.1    28.086
    7986      Ob       1     SIL   O01Sn       1     -1.05    15.999
    7987      Ob       1     SIL   O01So       1     -1.05    15.999
    7988      Ob       1     SIL   O01Sp       1     -1.05    15.999
    7989      Ob       1     SIL   O01Sq       1     -1.05    15.999
    7990      Ob       1     SIL   O01Sr       1     -1.05    15.999
    7991      Ob       1     SIL   O01Ss       1     -1.05    15.999
    7992      Si       1     SIL   Si0jS       1       2.1    28.086
    7993      Si       1     SIL   Si0jT       1       2.1    28.086
    7994      Si       1     SIL   Si0jU       1       2.1    28.086
    7995      Ob       1     SIL   O01St       1     -1.05    15.999
    7996      Ob       1     SIL   O01Su       1     -1.05    15.999
    7997      Ob       1     SIL   O01Sv       1     -1.05    15.999
    7998      Ob       1     SIL   O01Sw       1     -1.05    15.999
    7999      Ob       1     SIL   O01Sx       1     -1.05    15.999
    8000      Ob       1     SIL   O01Sy       1     -1.05    15.999
    8001      Si       1     SIL   Si0jV       1       2.1    28.086
    8002      Si       1     SIL   Si0jW       1       2.1    28.086
    8003      Si       1     SIL   Si0jX       1       2.1    28.086
    8004      Ob       1     SIL   O01Sz       1     -1.05    15.999
    8005      Ob       1     SIL   O01T0       1     -1.05    15.999
    8006      Ob       1     SIL   O01T1       1     -1.05    15.999
    8007      Ob       1     SIL   O01T2       1     -1.05    15.999
    8008      Ob       1     SIL   O01T3       1     -1.05    15.999
    8009      Ob       1     SIL   O01T4       1     -1.05    15.999
    8010      Si       1     SIL   Si0jY       1       2.1    28.086
    8011      Si       1     SIL   Si0jZ       1       2.1    28.086
    8012      Si       1     SIL   Si0ja       1       2.1    28.086
    8013      Ob       1     SIL   O01T5       1     -1.05    15.999
    8014      Ob       1     SIL   O01T6       1     -1.05    15.999
    8015      Ob       1     SIL   O01T7       1     -1.05    15.999
    8016      Ob       1     SIL   O01T8       1     -1.05    15.999
    8017      Ob       1     SIL   O01T9       1     -1.05    15.999
    8018      Ob       1     SIL   O01TA       1     -1.05    15.999
    8019      Si       1     SIL   Si0jb       1       2.1    28.086
    8020      Si       1     SIL   Si0jc       1       2.1    28.086
    8021      Si       1     SIL   Si0jd       1       2.1    28.086
    8022      Ob       1     SIL   O01TB       1     -1.05    15.999
    8023       O       1     SIL   O01TC       1    -0.525    15.999
    8024       O       1     SIL   O01TD       1    -0.525    15.999
    8025      Ob       1     SIL   O01TE       1     -1.05    15.999
    8026      Ob       1     SIL   O01TF       1     -1.05    15.999
    8027      Ob       1     SIL   O01TG       1     -1.05    15.999
    8028      Si       1     SIL   Si0je       1       2.1    28.086
    8029      Si       1     SIL   Si0jf       1       2.1    28.086
    8030      Si       1     SIL   Si0jg       1       2.1    28.086
    8031      Ob       1     SIL   O01TH       1     -1.05    15.999
    8032      Ob       1     SIL   O01TI       1     -1.05    15.999
    8033      Ob       1     SIL   O01TJ       1     -1.05    15.999
    8034      Ob       1     SIL   O01TK       1     -1.05    15.999
    8035      Ob       1     SIL   O01TL       1     -1.05    15.999
    8036      Ob       1     SIL   O01TM       1     -1.05    15.999
    8037      Si       1     SIL   Si0jh       1       2.1    28.086
    8038      Si       1     SIL   Si0ji       1       2.1    28.086
    8039      Si       1     SIL   Si0jj       1       2.1    28.086
    8040      Ob       1     SIL   O01TN       1     -1.05    15.999
    8041      Ob       1     SIL   O01TO       1     -1.05    15.999
    8042      Ob       1     SIL   O01TP       1     -1.05    15.999
    8043      Ob       1     SIL   O01TQ       1     -1.05    15.999
    8044      Ob       1     SIL   O01TR       1     -1.05    15.999
    8045      Ob       1     SIL   O01TS       1     -1.05    15.999
    8046      Si       1     SIL   Si0jk       1       2.1    28.086
    8047      Si       1     SIL   Si0jl       1       2.1    28.086
    8048      Si       1     SIL   Si0jm       1       2.1    28.086
    8049      Ob       1     SIL   O01TT       1     -1.05    15.999
    8050      Ob       1     SIL   O01TU       1     -1.05    15.999
    8051      Ob       1     SIL   O01TV       1     -1.05    15.999
    8052      Ob       1     SIL   O01TW       1     -1.05    15.999
    8053      Ob       1     SIL   O01TX       1     -1.05    15.999
    8054      Ob       1     SIL   O01TY       1     -1.05    15.999
    8055      Si       1     SIL   Si0jn       1       2.1    28.086
    8056      Si       1     SIL   Si0jo       1       2.1    28.086
    8057      Si       1     SIL   Si0jp       1       2.1    28.086
    8058      Ob       1     SIL   O01TZ       1     -1.05    15.999
    8059      Ob       1     SIL   O01Ta       1     -1.05    15.999
    8060      Ob       1     SIL   O01Tb       1     -1.05    15.999
    8061      Ob       1     SIL   O01Tc       1     -1.05    15.999
    8062      Ob       1     SIL   O01Td       1     -1.05    15.999
    8063      Ob       1     SIL   O01Te       1     -1.05    15.999
    8064      Si       1     SIL   Si0jq       1       2.1    28.086
    8065      Si       1     SIL   Si0jr       1       2.1    28.086
    8066      Si       1     SIL   Si0js       1       2.1    28.086
    8067      Ob       1     SIL   O01Tf       1     -1.05    15.999
    8068      Ob       1     SIL   O01Tg       1     -1.05    15.999
    8069      Ob       1     SIL   O01Th       1     -1.05    15.999
    8070      Ob       1     SIL   O01Ti       1     -1.05    15.999
    8071      Ob       1     SIL   O01Tj       1     -1.05    15.999
    8072      Ob       1     SIL   O01Tk       1     -1.05    15.999
    8073      Si       1     SIL   Si0jt       1       2.1    28.086
    8074      Si       1     SIL   Si0ju       1       2.1    28.086
    8075      Si       1     SIL   Si0jv       1       2.1    28.086
    8076      Ob       1     SIL   O01Tl       1     -1.05    15.999
    8077      Ob       1     SIL   O01Tm       1     -1.05    15.999
    8078      Ob       1     SIL   O01Tn       1     -1.05    15.999
    8079      Ob       1     SIL   O01To       1     -1.05    15.999
    8080      Ob       1     SIL   O01Tp       1     -1.05    15.999
    8081      Ob       1     SIL   O01Tq       1     -1.05    15.999
    8082      Si       1     SIL   Si0jw       1       2.1    28.086
    8083      Si       1     SIL   Si0jx       1       2.1    28.086
    8084      Si       1     SIL   Si0jy       1       2.1    28.086
    8085      Ob       1     SIL   O01Tr       1     -1.05    15.999
    8086      Ob       1     SIL   O01Ts       1     -1.05    15.999
    8087      Ob       1     SIL   O01Tt       1     -1.05    15.999
    8088      Ob       1     SIL   O01Tu       1     -1.05    15.999
    8089      Ob       1     SIL   O01Tv       1     -1.05    15.999
    8090      Ob       1     SIL   O01Tw       1     -1.05    15.999
    8091      Si       1     SIL   Si0jz       1       2.1    28.086
    8092      Si       1     SIL   Si0k0       1       2.1    28.086
    8093      Si       1     SIL   Si0k1       1       2.1    28.086
    8094      Ob       1     SIL   O01Tx       1     -1.05    15.999
    8095      Ob       1     SIL   O01Ty       1     -1.05    15.999
    8096      Ob       1     SIL   O01Tz       1     -1.05    15.999
    8097      Ob       1     SIL   O01U0       1     -1.05    15.999
    8098      Ob       1     SIL   O01U1       1     -1.05    15.999
    8099      Ob       1     SIL   O01U2       1     -1.05    15.999
    8100      Si       1     SIL   Si0k2       1       2.1    28.086
    8101      Si       1     SIL   Si0k3       1       2.1    28.086
    8102      Si       1     SIL   Si0k4       1       2.1    28.086
    8103      Ob       1     SIL   O01U3       1     -1.05    15.999
    8104      Ob       1     SIL   O01U4       1     -1.05    15.999
    8105      Ob       1     SIL   O01U5       1     -1.05    15.999
    8106      Ob       1     SIL   O01U6       1     -1.05    15.999
    8107      Ob       1     SIL   O01U7       1     -1.05    15.999
    8108      Ob       1     SIL   O01U8       1     -1.05    15.999
    8109      Si       1     SIL   Si0k5       1       2.1    28.086
    8110      Si       1     SIL   Si0k6       1       2.1    28.086
    8111      Si       1     SIL   Si0k7       1       2.1    28.086
    8112      Ob       1     SIL   O01U9       1     -1.05    15.999
    8113      Ob       1     SIL   O01UA       1     -1.05    15.999
    8114      Ob       1     SIL   O01UB       1     -1.05    15.999
    8115      Ob       1     SIL   O01UC       1     -1.05    15.999
    8116      Ob       1     SIL   O01UD       1     -1.05    15.999
    8117      Ob       1     SIL   O01UE       1     -1.05    15.999
    8118      Si       1     SIL   Si0k8       1       2.1    28.086
    8119      Si       1     SIL   Si0k9       1       2.1    28.086
    8120      Si       1     SIL   Si0kA       1       2.1    28.086
    8121      Ob       1     SIL   O01UF       1     -1.05    15.999
    8122      Ob       1     SIL   O01UG       1     -1.05    15.999
    8123      Ob       1     SIL   O01UH       1     -1.05    15.999
    8124      Ob       1     SIL   O01UI       1     -1.05    15.999
    8125      Ob       1     SIL   O01UJ       1     -1.05    15.999
    8126      Ob       1     SIL   O01UK       1     -1.05    15.999
    8127      Si       1     SIL   Si0kB       1       2.1    28.086
    8128      Si       1     SIL   Si0kC       1       2.1    28.086
    8129      Si       1     SIL   Si0kD       1       2.1    28.086
    8130      Ob       1     SIL   O01UL       1     -1.05    15.999
    8131      Ob       1     SIL   O01UM       1     -1.05    15.999
    8132      Ob       1     SIL   O01UN       1     -1.05    15.999
    8133      Ob       1     SIL   O01UO       1     -1.05    15.999
    8134      Ob       1     SIL   O01UP       1     -1.05    15.999
    8135      Ob       1     SIL   O01UQ       1     -1.05    15.999
    8136      Si       1     SIL   Si0kE       1       2.1    28.086
    8137      Si       1     SIL   Si0kF       1       2.1    28.086
    8138      Si       1     SIL   Si0kG       1       2.1    28.086
    8139      Ob       1     SIL   O01UR       1     -1.05    15.999
    8140      Ob       1     SIL   O01US       1     -1.05    15.999
    8141      Ob       1     SIL   O01UT       1     -1.05    15.999
    8142      Ob       1     SIL   O01UU       1     -1.05    15.999
    8143      Ob       1     SIL   O01UV       1     -1.05    15.999
    8144      Ob       1     SIL   O01UW       1     -1.05    15.999
    8145      Si       1     SIL   Si0kH       1       2.1    28.086
    8146      Si       1     SIL   Si0kI       1       2.1    28.086
    8147      Si       1     SIL   Si0kJ       1       2.1    28.086
    8148      Ob       1     SIL   O01UX       1     -1.05    15.999
    8149      Ob       1     SIL   O01UY       1     -1.05    15.999
    8150      Ob       1     SIL   O01UZ       1     -1.05    15.999
    8151      Ob       1     SIL   O01Ua       1     -1.05    15.999
    8152      Ob       1     SIL   O01Ub       1     -1.05    15.999
    8153      Ob       1     SIL   O01Uc       1     -1.05    15.999
    8154      Si       1     SIL   Si0kK       1       2.1    28.086
    8155      Si       1     SIL   Si0kL       1       2.1    28.086
    8156      Si       1     SIL   Si0kM       1       2.1    28.086
    8157      Ob       1     SIL   O01Ud       1     -1.05    15.999
    8158      Ob       1     SIL   O01Ue       1     -1.05    15.999
    8159      Ob       1     SIL   O01Uf       1     -1.05    15.999
    8160      Ob       1     SIL   O01Ug       1     -1.05    15.999
    8161      Ob       1     SIL   O01Uh       1     -1.05    15.999
    8162      Ob       1     SIL   O01Ui       1     -1.05    15.999
    8163      Si       1     SIL   Si0kN       1       2.1    28.086
    8164      Si       1     SIL   Si0kO       1       2.1    28.086
    8165      Si       1     SIL   Si0kP       1       2.1    28.086
    8166      Ob       1     SIL   O01Uj       1     -1.05    15.999
    8167      Ob       1     SIL   O01Uk       1     -1.05    15.999
    8168      Ob       1     SIL   O01Ul       1     -1.05    15.999
    8169      Ob       1     SIL   O01Um       1     -1.05    15.999
    8170      Ob       1     SIL   O01Un       1     -1.05    15.999
    8171      Ob       1     SIL   O01Uo       1     -1.05    15.999
    8172      Si       1     SIL   Si0kQ       1       2.1    28.086
    8173      Si       1     SIL   Si0kR       1       2.1    28.086
    8174      Si       1     SIL   Si0kS       1       2.1    28.086
    8175      Ob       1     SIL   O01Up       1     -1.05    15.999
    8176      Ob       1     SIL   O01Uq       1     -1.05    15.999
    8177      Ob       1     SIL   O01Ur       1     -1.05    15.999
    8178      Ob       1     SIL   O01Us       1     -1.05    15.999
    8179      Ob       1     SIL   O01Ut       1     -1.05    15.999
    8180      Ob       1     SIL   O01Uu       1     -1.05    15.999
    8181      Si       1     SIL   Si0kT       1       2.1    28.086
    8182      Si       1     SIL   Si0kU       1       2.1    28.086
    8183      Si       1     SIL   Si0kV       1       2.1    28.086
    8184      Ob       1     SIL   O01Uv       1     -1.05    15.999
    8185      Ob       1     SIL   O01Uw       1     -1.05    15.999
    8186      Ob       1     SIL   O01Ux       1     -1.05    15.999
    8187      Ob       1     SIL   O01Uy       1     -1.05    15.999
    8188      Ob       1     SIL   O01Uz       1     -1.05    15.999
    8189      Ob       1     SIL   O01V0       1     -1.05    15.999
    8190      Si       1     SIL   Si0kW       1       2.1    28.086
    8191      Si       1     SIL   Si0kX       1       2.1    28.086
    8192      Si       1     SIL   Si0kY       1       2.1    28.086
    8193      Ob       1     SIL   O01V1       1     -1.05    15.999
    8194      Ob       1     SIL   O01V2       1     -1.05    15.999
    8195      Ob       1     SIL   O01V3       1     -1.05    15.999
    8196      Ob       1     SIL   O01V4       1     -1.05    15.999
    8197      Ob       1     SIL   O01V5       1     -1.05    15.999
    8198      Ob       1     SIL   O01V6       1     -1.05    15.999
    8199      Si       1     SIL   Si0kZ       1       2.1    28.086
    8200      Si       1     SIL   Si0ka       1       2.1    28.086
    8201      Si       1     SIL   Si0kb       1       2.1    28.086
    8202      Ob       1     SIL   O01V7       1     -1.05    15.999
    8203      Ob       1     SIL   O01V8       1     -1.05    15.999
    8204      Ob       1     SIL   O01V9       1     -1.05    15.999
    8205      Ob       1     SIL   O01VA       1     -1.05    15.999
    8206      Ob       1     SIL   O01VB       1     -1.05    15.999
    8207      Ob       1     SIL   O01VC       1     -1.05    15.999
    8208      Si       1     SIL   Si0kc       1       2.1    28.086
    8209      Si       1     SIL   Si0kd       1       2.1    28.086
    8210      Si       1     SIL   Si0ke       1       2.1    28.086
    8211      Ob       1     SIL   O01VD       1     -1.05    15.999
    8212      Ob       1     SIL   O01VE       1     -1.05    15.999
    8213      Ob       1     SIL   O01VF       1     -1.05    15.999
    8214      Ob       1     SIL   O01VG       1     -1.05    15.999
    8215      Ob       1     SIL   O01VH       1     -1.05    15.999
    8216      Ob       1     SIL   O01VI       1     -1.05    15.999
    8217      Si       1     SIL   Si0kf       1       2.1    28.086
    8218      Si       1     SIL   Si0kg       1       2.1    28.086
    8219      Si       1     SIL   Si0kh       1       2.1    28.086
    8220      Ob       1     SIL   O01VJ       1     -1.05    15.999
    8221      Ob       1     SIL   O01VK       1     -1.05    15.999
    8222      Ob       1     SIL   O01VL       1     -1.05    15.999
    8223      Ob       1     SIL   O01VM       1     -1.05    15.999
    8224      Ob       1     SIL   O01VN       1     -1.05    15.999
    8225      Ob       1     SIL   O01VO       1     -1.05    15.999
    8226      Si       1     SIL   Si0ki       1       2.1    28.086
    8227      Si       1     SIL   Si0kj       1       2.1    28.086
    8228      Si       1     SIL   Si0kk       1       2.1    28.086
    8229      Ob       1     SIL   O01VP       1     -1.05    15.999
    8230       O       1     SIL   O01VQ       1    -0.525    15.999
    8231       O       1     SIL   O01VR       1    -0.525    15.999
    8232      Ob       1     SIL   O01VS       1     -1.05    15.999
    8233      Ob       1     SIL   O01VT       1     -1.05    15.999
    8234      Ob       1     SIL   O01VU       1     -1.05    15.999
    8235      Si       1     SIL   Si0kl       1       2.1    28.086
    8236      Si       1     SIL   Si0km       1       2.1    28.086
    8237      Si       1     SIL   Si0kn       1       2.1    28.086
    8238      Ob       1     SIL   O01VV       1     -1.05    15.999
    8239      Ob       1     SIL   O01VW       1     -1.05    15.999
    8240      Ob       1     SIL   O01VX       1     -1.05    15.999
    8241      Ob       1     SIL   O01VY       1     -1.05    15.999
    8242      Ob       1     SIL   O01VZ       1     -1.05    15.999
    8243      Ob       1     SIL   O01Va       1     -1.05    15.999
    8244      Si       1     SIL   Si0ko       1       2.1    28.086
    8245      Si       1     SIL   Si0kp       1       2.1    28.086
    8246      Si       1     SIL   Si0kq       1       2.1    28.086
    8247      Ob       1     SIL   O01Vb       1     -1.05    15.999
    8248      Ob       1     SIL   O01Vc       1     -1.05    15.999
    8249      Ob       1     SIL   O01Vd       1     -1.05    15.999
    8250      Ob       1     SIL   O01Ve       1     -1.05    15.999
    8251      Ob       1     SIL   O01Vf       1     -1.05    15.999
    8252      Ob       1     SIL   O01Vg       1     -1.05    15.999
    8253      Si       1     SIL   Si0kr       1       2.1    28.086
    8254      Si       1     SIL   Si0ks       1       2.1    28.086
    8255      Si       1     SIL   Si0kt       1       2.1    28.086
    8256      Ob       1     SIL   O01Vh       1     -1.05    15.999
    8257      Ob       1     SIL   O01Vi       1     -1.05    15.999
    8258      Ob       1     SIL   O01Vj       1     -1.05    15.999
    8259      Ob       1     SIL   O01Vk       1     -1.05    15.999
    8260      Ob       1     SIL   O01Vl       1     -1.05    15.999
    8261      Ob       1     SIL   O01Vm       1     -1.05    15.999
    8262      Si       1     SIL   Si0ku       1       2.1    28.086
    8263      Si       1     SIL   Si0kv       1       2.1    28.086
    8264      Si       1     SIL   Si0kw       1       2.1    28.086
    8265      Ob       1     SIL   O01Vn       1     -1.05    15.999
    8266      Ob       1     SIL   O01Vo       1     -1.05    15.999
    8267      Ob       1     SIL   O01Vp       1     -1.05    15.999
    8268      Ob       1     SIL   O01Vq       1     -1.05    15.999
    8269      Ob       1     SIL   O01Vr       1     -1.05    15.999
    8270      Ob       1     SIL   O01Vs       1     -1.05    15.999
    8271      Si       1     SIL   Si0kx       1       2.1    28.086
    8272      Si       1     SIL   Si0ky       1       2.1    28.086
    8273      Si       1     SIL   Si0kz       1       2.1    28.086
    8274      Ob       1     SIL   O01Vt       1     -1.05    15.999
    8275      Ob       1     SIL   O01Vu       1     -1.05    15.999
    8276      Ob       1     SIL   O01Vv       1     -1.05    15.999
    8277      Ob       1     SIL   O01Vw       1     -1.05    15.999
    8278      Ob       1     SIL   O01Vx       1     -1.05    15.999
    8279      Ob       1     SIL   O01Vy       1     -1.05    15.999
    8280      Si       1     SIL   Si0l0       1       2.1    28.086
    8281      Si       1     SIL   Si0l1       1       2.1    28.086
    8282      Si       1     SIL   Si0l2       1       2.1    28.086
    8283      Ob       1     SIL   O01Vz       1     -1.05    15.999
    8284      Ob       1     SIL   O01W0       1     -1.05    15.999
    8285      Ob       1     SIL   O01W1       1     -1.05    15.999
    8286      Ob       1     SIL   O01W2       1     -1.05    15.999
    8287      Ob       1     SIL   O01W3       1     -1.05    15.999
    8288      Ob       1     SIL   O01W4       1     -1.05    15.999
    8289      Si       1     SIL   Si0l3       1       2.1    28.086
    8290      Si       1     SIL   Si0l4       1       2.1    28.086
    8291      Si       1     SIL   Si0l5       1       2.1    28.086
    8292      Ob       1     SIL   O01W5       1     -1.05    15.999
    8293      Ob       1     SIL   O01W6       1     -1.05    15.999
    8294      Ob       1     SIL   O01W7       1     -1.05    15.999
    8295      Ob       1     SIL   O01W8       1     -1.05    15.999
    8296      Ob       1     SIL   O01W9       1     -1.05    15.999
    8297      Ob       1     SIL   O01WA       1     -1.05    15.999
    8298      Si       1     SIL   Si0l6       1       2.1    28.086
    8299      Si       1     SIL   Si0l7       1       2.1    28.086
    8300      Si       1     SIL   Si0l8       1       2.1    28.086
    8301      Ob       1     SIL   O01WB       1     -1.05    15.999
    8302      Ob       1     SIL   O01WC       1     -1.05    15.999
    8303      Ob       1     SIL   O01WD       1     -1.05    15.999
    8304      Ob       1     SIL   O01WE       1     -1.05    15.999
    8305      Ob       1     SIL   O01WF       1     -1.05    15.999
    8306      Ob       1     SIL   O01WG       1     -1.05    15.999
    8307      Si       1     SIL   Si0l9       1       2.1    28.086
    8308      Si       1     SIL   Si0lA       1       2.1    28.086
    8309      Si       1     SIL   Si0lB       1       2.1    28.086
    8310      Ob       1     SIL   O01WH       1     -1.05    15.999
    8311      Ob       1     SIL   O01WI       1     -1.05    15.999
    8312      Ob       1     SIL   O01WJ       1     -1.05    15.999
    8313      Ob       1     SIL   O01WK       1     -1.05    15.999
    8314      Ob       1     SIL   O01WL       1     -1.05    15.999
    8315      Ob       1     SIL   O01WM       1     -1.05    15.999
    8316      Si       1     SIL   Si0lC       1       2.1    28.086
    8317      Si       1     SIL   Si0lD       1       2.1    28.086
    8318      Si       1     SIL   Si0lE       1       2.1    28.086
    8319      Ob       1     SIL   O01WN       1     -1.05    15.999
    8320      Ob       1     SIL   O01WO       1     -1.05    15.999
    8321      Ob       1     SIL   O01WP       1     -1.05    15.999
    8322      Ob       1     SIL   O01WQ       1     -1.05    15.999
    8323      Ob       1     SIL   O01WR       1     -1.05    15.999
    8324      Ob       1     SIL   O01WS       1     -1.05    15.999
    8325      Si       1     SIL   Si0lF       1       2.1    28.086
    8326      Si       1     SIL   Si0lG       1       2.1    28.086
    8327      Si       1     SIL   Si0lH       1       2.1    28.086
    8328      Ob       1     SIL   O01WT       1     -1.05    15.999
    8329      Ob       1     SIL   O01WU       1     -1.05    15.999
    8330      Ob       1     SIL   O01WV       1     -1.05    15.999
    8331      Ob       1     SIL   O01WW       1     -1.05    15.999
    8332      Ob       1     SIL   O01WX       1     -1.05    15.999
    8333      Ob       1     SIL   O01WY       1     -1.05    15.999
    8334      Si       1     SIL   Si0lI       1       2.1    28.086
    8335      Si       1     SIL   Si0lJ       1       2.1    28.086
    8336      Si       1     SIL   Si0lK       1       2.1    28.086
    8337      Ob       1     SIL   O01WZ       1     -1.05    15.999
    8338      Ob       1     SIL   O01Wa       1     -1.05    15.999
    8339      Ob       1     SIL   O01Wb       1     -1.05    15.999
    8340      Ob       1     SIL   O01Wc       1     -1.05    15.999
    8341      Ob       1     SIL   O01Wd       1     -1.05    15.999
    8342      Ob       1     SIL   O01We       1     -1.05    15.999
    8343      Si       1     SIL   Si0lL       1       2.1    28.086
    8344      Si       1     SIL   Si0lM       1       2.1    28.086
    8345      Si       1     SIL   Si0lN       1       2.1    28.086
    8346      Ob       1     SIL   O01Wf       1     -1.05    15.999
    8347      Ob       1     SIL   O01Wg       1     -1.05    15.999
    8348      Ob       1     SIL   O01Wh       1     -1.05    15.999
    8349      Ob       1     SIL   O01Wi       1     -1.05    15.999
    8350      Ob       1     SIL   O01Wj       1     -1.05    15.999
    8351      Ob       1     SIL   O01Wk       1     -1.05    15.999
    8352      Si       1     SIL   Si0lO       1       2.1    28.086
    8353      Si       1     SIL   Si0lP       1       2.1    28.086
    8354      Si       1     SIL   Si0lQ       1       2.1    28.086
    8355      Ob       1     SIL   O01Wl       1     -1.05    15.999
    8356      Ob       1     SIL   O01Wm       1     -1.05    15.999
    8357      Ob       1     SIL   O01Wn       1     -1.05    15.999
    8358      Ob       1     SIL   O01Wo       1     -1.05    15.999
    8359      Ob       1     SIL   O01Wp       1     -1.05    15.999
    8360      Ob       1     SIL   O01Wq       1     -1.05    15.999
    8361      Si       1     SIL   Si0lR       1       2.1    28.086
    8362      Si       1     SIL   Si0lS       1       2.1    28.086
    8363      Si       1     SIL   Si0lT       1       2.1    28.086
    8364      Ob       1     SIL   O01Wr       1     -1.05    15.999
    8365      Ob       1     SIL   O01Ws       1     -1.05    15.999
    8366      Ob       1     SIL   O01Wt       1     -1.05    15.999
    8367      Ob       1     SIL   O01Wu       1     -1.05    15.999
    8368      Ob       1     SIL   O01Wv       1     -1.05    15.999
    8369      Ob       1     SIL   O01Ww       1     -1.05    15.999
    8370      Si       1     SIL   Si0lU       1       2.1    28.086
    8371      Si       1     SIL   Si0lV       1       2.1    28.086
    8372      Si       1     SIL   Si0lW       1       2.1    28.086
    8373      Ob       1     SIL   O01Wx       1     -1.05    15.999
    8374      Ob       1     SIL   O01Wy       1     -1.05    15.999
    8375      Ob       1     SIL   O01Wz       1     -1.05    15.999
    8376      Ob       1     SIL   O01X0       1     -1.05    15.999
    8377      Ob       1     SIL   O01X1       1     -1.05    15.999
    8378      Ob       1     SIL   O01X2       1     -1.05    15.999
    8379      Si       1     SIL   Si0lX       1       2.1    28.086
    8380      Si       1     SIL   Si0lY       1       2.1    28.086
    8381      Si       1     SIL   Si0lZ       1       2.1    28.086
    8382      Ob       1     SIL   O01X3       1     -1.05    15.999
    8383      Ob       1     SIL   O01X4       1     -1.05    15.999
    8384      Ob       1     SIL   O01X5       1     -1.05    15.999
    8385      Ob       1     SIL   O01X6       1     -1.05    15.999
    8386      Ob       1     SIL   O01X7       1     -1.05    15.999
    8387      Ob       1     SIL   O01X8       1     -1.05    15.999
    8388      Si       1     SIL   Si0la       1       2.1    28.086
    8389      Si       1     SIL   Si0lb       1       2.1    28.086
    8390      Si       1     SIL   Si0lc       1       2.1    28.086
    8391      Ob       1     SIL   O01X9       1     -1.05    15.999
    8392      Ob       1     SIL   O01XA       1     -1.05    15.999
    8393      Ob       1     SIL   O01XB       1     -1.05    15.999
    8394      Ob       1     SIL   O01XC       1     -1.05    15.999
    8395      Ob       1     SIL   O01XD       1     -1.05    15.999
    8396      Ob       1     SIL   O01XE       1     -1.05    15.999
    8397      Si       1     SIL   Si0ld       1       2.1    28.086
    8398      Si       1     SIL   Si0le       1       2.1    28.086
    8399      Si       1     SIL   Si0lf       1       2.1    28.086
    8400      Ob       1     SIL   O01XF       1     -1.05    15.999
    8401      Ob       1     SIL   O01XG       1     -1.05    15.999
    8402      Ob       1     SIL   O01XH       1     -1.05    15.999
    8403      Ob       1     SIL   O01XI       1     -1.05    15.999
    8404      Ob       1     SIL   O01XJ       1     -1.05    15.999
    8405      Ob       1     SIL   O01XK       1     -1.05    15.999
    8406      Si       1     SIL   Si0lg       1       2.1    28.086
    8407      Si       1     SIL   Si0lh       1       2.1    28.086
    8408      Si       1     SIL   Si0li       1       2.1    28.086
    8409      Ob       1     SIL   O01XL       1     -1.05    15.999
    8410      Ob       1     SIL   O01XM       1     -1.05    15.999
    8411      Ob       1     SIL   O01XN       1     -1.05    15.999
    8412      Ob       1     SIL   O01XO       1     -1.05    15.999
    8413      Ob       1     SIL   O01XP       1     -1.05    15.999
    8414      Ob       1     SIL   O01XQ       1     -1.05    15.999
    8415      Si       1     SIL   Si0lj       1       2.1    28.086
    8416      Si       1     SIL   Si0lk       1       2.1    28.086
    8417      Si       1     SIL   Si0ll       1       2.1    28.086
    8418      Ob       1     SIL   O01XR       1     -1.05    15.999
    8419      Ob       1     SIL   O01XS       1     -1.05    15.999
    8420      Ob       1     SIL   O01XT       1     -1.05    15.999
    8421      Ob       1     SIL   O01XU       1     -1.05    15.999
    8422      Ob       1     SIL   O01XV       1     -1.05    15.999
    8423      Ob       1     SIL   O01XW       1     -1.05    15.999
    8424      Si       1     SIL   Si0lm       1       2.1    28.086
    8425      Si       1     SIL   Si0ln       1       2.1    28.086
    8426      Si       1     SIL   Si0lo       1       2.1    28.086
    8427      Ob       1     SIL   O01XX       1     -1.05    15.999
    8428      Ob       1     SIL   O01XY       1     -1.05    15.999
    8429      Ob       1     SIL   O01XZ       1     -1.05    15.999
    8430      Ob       1     SIL   O01Xa       1     -1.05    15.999
    8431      Ob       1     SIL   O01Xb       1     -1.05    15.999
    8432      Ob       1     SIL   O01Xc       1     -1.05    15.999
    8433      Si       1     SIL   Si0lp       1       2.1    28.086
    8434      Si       1     SIL   Si0lq       1       2.1    28.086
    8435      Si       1     SIL   Si0lr       1       2.1    28.086
    8436      Ob       1     SIL   O01Xd       1     -1.05    15.999
    8437       O       1     SIL   O01Xe       1    -0.525    15.999
    8438       O       1     SIL   O01Xf       1    -0.525    15.999
    8439      Ob       1     SIL   O01Xg       1     -1.05    15.999
    8440      Ob       1     SIL   O01Xh       1     -1.05    15.999
    8441      Ob       1     SIL   O01Xi       1     -1.05    15.999
    8442      Si       1     SIL   Si0ls       1       2.1    28.086
    8443      Si       1     SIL   Si0lt       1       2.1    28.086
    8444      Si       1     SIL   Si0lu       1       2.1    28.086
    8445      Ob       1     SIL   O01Xj       1     -1.05    15.999
    8446      Ob       1     SIL   O01Xk       1     -1.05    15.999
    8447      Ob       1     SIL   O01Xl       1     -1.05    15.999
    8448      Ob       1     SIL   O01Xm       1     -1.05    15.999
    8449      Ob       1     SIL   O01Xn       1     -1.05    15.999
    8450      Ob       1     SIL   O01Xo       1     -1.05    15.999
    8451      Si       1     SIL   Si0lv       1       2.1    28.086
    8452      Si       1     SIL   Si0lw       1       2.1    28.086
    8453      Si       1     SIL   Si0lx       1       2.1    28.086
    8454      Ob       1     SIL   O01Xp       1     -1.05    15.999
    8455      Ob       1     SIL   O01Xq       1     -1.05    15.999
    8456      Ob       1     SIL   O01Xr       1     -1.05    15.999
    8457      Ob       1     SIL   O01Xs       1     -1.05    15.999
    8458      Ob       1     SIL   O01Xt       1     -1.05    15.999
    8459      Ob       1     SIL   O01Xu       1     -1.05    15.999
    8460      Si       1     SIL   Si0ly       1       2.1    28.086
    8461      Si       1     SIL   Si0lz       1       2.1    28.086
    8462      Si       1     SIL   Si0m0       1       2.1    28.086
    8463      Ob       1     SIL   O01Xv       1     -1.05    15.999
    8464      Ob       1     SIL   O01Xw       1     -1.05    15.999
    8465      Ob       1     SIL   O01Xx       1     -1.05    15.999
    8466      Ob       1     SIL   O01Xy       1     -1.05    15.999
    8467      Ob       1     SIL   O01Xz       1     -1.05    15.999
    8468      Ob       1     SIL   O01Y0       1     -1.05    15.999
    8469      Si       1     SIL   Si0m1       1       2.1    28.086
    8470      Si       1     SIL   Si0m2       1       2.1    28.086
    8471      Si       1     SIL   Si0m3       1       2.1    28.086
    8472      Ob       1     SIL   O01Y1       1     -1.05    15.999
    8473      Ob       1     SIL   O01Y2       1     -1.05    15.999
    8474      Ob       1     SIL   O01Y3       1     -1.05    15.999
    8475      Ob       1     SIL   O01Y4       1     -1.05    15.999
    8476      Ob       1     SIL   O01Y5       1     -1.05    15.999
    8477      Ob       1     SIL   O01Y6       1     -1.05    15.999
    8478      Si       1     SIL   Si0m4       1       2.1    28.086
    8479      Si       1     SIL   Si0m5       1       2.1    28.086
    8480      Si       1     SIL   Si0m6       1       2.1    28.086
    8481      Ob       1     SIL   O01Y7       1     -1.05    15.999
    8482      Ob       1     SIL   O01Y8       1     -1.05    15.999
    8483      Ob       1     SIL   O01Y9       1     -1.05    15.999
    8484      Ob       1     SIL   O01YA       1     -1.05    15.999
    8485      Ob       1     SIL   O01YB       1     -1.05    15.999
    8486      Ob       1     SIL   O01YC       1     -1.05    15.999
    8487      Si       1     SIL   Si0m7       1       2.1    28.086
    8488      Si       1     SIL   Si0m8       1       2.1    28.086
    8489      Si       1     SIL   Si0m9       1       2.1    28.086
    8490      Ob       1     SIL   O01YD       1     -1.05    15.999
    8491      Ob       1     SIL   O01YE       1     -1.05    15.999
    8492      Ob       1     SIL   O01YF       1     -1.05    15.999
    8493      Ob       1     SIL   O01YG       1     -1.05    15.999
    8494      Ob       1     SIL   O01YH       1     -1.05    15.999
    8495      Ob       1     SIL   O01YI       1     -1.05    15.999
    8496      Si       1     SIL   Si0mA       1       2.1    28.086
    8497      Si       1     SIL   Si0mB       1       2.1    28.086
    8498      Si       1     SIL   Si0mC       1       2.1    28.086
    8499      Ob       1     SIL   O01YJ       1     -1.05    15.999
    8500      Ob       1     SIL   O01YK       1     -1.05    15.999
    8501      Ob       1     SIL   O01YL       1     -1.05    15.999
    8502      Ob       1     SIL   O01YM       1     -1.05    15.999
    8503      Ob       1     SIL   O01YN       1     -1.05    15.999
    8504      Ob       1     SIL   O01YO       1     -1.05    15.999
    8505      Si       1     SIL   Si0mD       1       2.1    28.086
    8506      Si       1     SIL   Si0mE       1       2.1    28.086
    8507      Si       1     SIL   Si0mF       1       2.1    28.086
    8508      Ob       1     SIL   O01YP       1     -1.05    15.999
    8509      Ob       1     SIL   O01YQ       1     -1.05    15.999
    8510      Ob       1     SIL   O01YR       1     -1.05    15.999
    8511      Ob       1     SIL   O01YS       1     -1.05    15.999
    8512      Ob       1     SIL   O01YT       1     -1.05    15.999
    8513      Ob       1     SIL   O01YU       1     -1.05    15.999
    8514      Si       1     SIL   Si0mG       1       2.1    28.086
    8515      Si       1     SIL   Si0mH       1       2.1    28.086
    8516      Si       1     SIL   Si0mI       1       2.1    28.086
    8517      Ob       1     SIL   O01YV       1     -1.05    15.999
    8518      Ob       1     SIL   O01YW       1     -1.05    15.999
    8519      Ob       1     SIL   O01YX       1     -1.05    15.999
    8520      Ob       1     SIL   O01YY       1     -1.05    15.999
    8521      Ob       1     SIL   O01YZ       1     -1.05    15.999
    8522      Ob       1     SIL   O01Ya       1     -1.05    15.999
    8523      Si       1     SIL   Si0mJ       1       2.1    28.086
    8524      Si       1     SIL   Si0mK       1       2.1    28.086
    8525      Si       1     SIL   Si0mL       1       2.1    28.086
    8526      Ob       1     SIL   O01Yb       1     -1.05    15.999
    8527      Ob       1     SIL   O01Yc       1     -1.05    15.999
    8528      Ob       1     SIL   O01Yd       1     -1.05    15.999
    8529      Ob       1     SIL   O01Ye       1     -1.05    15.999
    8530      Ob       1     SIL   O01Yf       1     -1.05    15.999
    8531      Ob       1     SIL   O01Yg       1     -1.05    15.999
    8532      Si       1     SIL   Si0mM       1       2.1    28.086
    8533      Si       1     SIL   Si0mN       1       2.1    28.086
    8534      Si       1     SIL   Si0mO       1       2.1    28.086
    8535      Ob       1     SIL   O01Yh       1     -1.05    15.999
    8536      Ob       1     SIL   O01Yi       1     -1.05    15.999
    8537      Ob       1     SIL   O01Yj       1     -1.05    15.999
    8538      Ob       1     SIL   O01Yk       1     -1.05    15.999
    8539      Ob       1     SIL   O01Yl       1     -1.05    15.999
    8540      Ob       1     SIL   O01Ym       1     -1.05    15.999
    8541      Si       1     SIL   Si0mP       1       2.1    28.086
    8542      Si       1     SIL   Si0mQ       1       2.1    28.086
    8543      Si       1     SIL   Si0mR       1       2.1    28.086
    8544      Ob       1     SIL   O01Yn       1     -1.05    15.999
    8545      Ob       1     SIL   O01Yo       1     -1.05    15.999
    8546      Ob       1     SIL   O01Yp       1     -1.05    15.999
    8547      Ob       1     SIL   O01Yq       1     -1.05    15.999
    8548      Ob       1     SIL   O01Yr       1     -1.05    15.999
    8549      Ob       1     SIL   O01Ys       1     -1.05    15.999
    8550      Si       1     SIL   Si0mS       1       2.1    28.086
    8551      Si       1     SIL   Si0mT       1       2.1    28.086
    8552      Si       1     SIL   Si0mU       1       2.1    28.086
    8553      Ob       1     SIL   O01Yt       1     -1.05    15.999
    8554      Ob       1     SIL   O01Yu       1     -1.05    15.999
    8555      Ob       1     SIL   O01Yv       1     -1.05    15.999
    8556      Ob       1     SIL   O01Yw       1     -1.05    15.999
    8557      Ob       1     SIL   O01Yx       1     -1.05    15.999
    8558      Ob       1     SIL   O01Yy       1     -1.05    15.999
    8559      Si       1     SIL   Si0mV       1       2.1    28.086
    8560      Si       1     SIL   Si0mW       1       2.1    28.086
    8561      Si       1     SIL   Si0mX       1       2.1    28.086
    8562      Ob       1     SIL   O01Yz       1     -1.05    15.999
    8563      Ob       1     SIL   O01Z0       1     -1.05    15.999
    8564      Ob       1     SIL   O01Z1       1     -1.05    15.999
    8565      Ob       1     SIL   O01Z2       1     -1.05    15.999
    8566      Ob       1     SIL   O01Z3       1     -1.05    15.999
    8567      Ob       1     SIL   O01Z4       1     -1.05    15.999
    8568      Si       1     SIL   Si0mY       1       2.1    28.086
    8569      Si       1     SIL   Si0mZ       1       2.1    28.086
    8570      Si       1     SIL   Si0ma       1       2.1    28.086
    8571      Ob       1     SIL   O01Z5       1     -1.05    15.999
    8572      Ob       1     SIL   O01Z6       1     -1.05    15.999
    8573      Ob       1     SIL   O01Z7       1     -1.05    15.999
    8574      Ob       1     SIL   O01Z8       1     -1.05    15.999
    8575      Ob       1     SIL   O01Z9       1     -1.05    15.999
    8576      Ob       1     SIL   O01ZA       1     -1.05    15.999
    8577      Si       1     SIL   Si0mb       1       2.1    28.086
    8578      Si       1     SIL   Si0mc       1       2.1    28.086
    8579      Si       1     SIL   Si0md       1       2.1    28.086
    8580      Ob       1     SIL   O01ZB       1     -1.05    15.999
    8581      Ob       1     SIL   O01ZC       1     -1.05    15.999
    8582      Ob       1     SIL   O01ZD       1     -1.05    15.999
    8583      Ob       1     SIL   O01ZE       1     -1.05    15.999
    8584      Ob       1     SIL   O01ZF       1     -1.05    15.999
    8585      Ob       1     SIL   O01ZG       1     -1.05    15.999
    8586      Si       1     SIL   Si0me       1       2.1    28.086
    8587      Si       1     SIL   Si0mf       1       2.1    28.086
    8588      Si       1     SIL   Si0mg       1       2.1    28.086
    8589      Ob       1     SIL   O01ZH       1     -1.05    15.999
    8590      Ob       1     SIL   O01ZI       1     -1.05    15.999
    8591      Ob       1     SIL   O01ZJ       1     -1.05    15.999
    8592      Ob       1     SIL   O01ZK       1     -1.05    15.999
    8593      Ob       1     SIL   O01ZL       1     -1.05    15.999
    8594      Ob       1     SIL   O01ZM       1     -1.05    15.999
    8595      Si       1     SIL   Si0mh       1       2.1    28.086
    8596      Si       1     SIL   Si0mi       1       2.1    28.086
    8597      Si       1     SIL   Si0mj       1       2.1    28.086
    8598      Ob       1     SIL   O01ZN       1     -1.05    15.999
    8599      Ob       1     SIL   O01ZO       1     -1.05    15.999
    8600      Ob       1     SIL   O01ZP       1     -1.05    15.999
    8601      Ob       1     SIL   O01ZQ       1     -1.05    15.999
    8602      Ob       1     SIL   O01ZR       1     -1.05    15.999
    8603      Ob       1     SIL   O01ZS       1     -1.05    15.999
    8604      Si       1     SIL   Si0mk       1       2.1    28.086
    8605      Si       1     SIL   Si0ml       1       2.1    28.086
    8606      Si       1     SIL   Si0mm       1       2.1    28.086
    8607      Ob       1     SIL   O01ZT       1     -1.05    15.999
    8608      Ob       1     SIL   O01ZU       1     -1.05    15.999
    8609      Ob       1     SIL   O01ZV       1     -1.05    15.999
    8610      Ob       1     SIL   O01ZW       1     -1.05    15.999
    8611      Ob       1     SIL   O01ZX       1     -1.05    15.999
    8612      Ob       1     SIL   O01ZY       1     -1.05    15.999
    8613      Si       1     SIL   Si0mn       1       2.1    28.086
    8614      Si       1     SIL   Si0mo       1       2.1    28.086
    8615      Si       1     SIL   Si0mp       1       2.1    28.086
    8616      Ob       1     SIL   O01ZZ       1     -1.05    15.999
    8617      Ob       1     SIL   O01Za       1     -1.05    15.999
    8618      Ob       1     SIL   O01Zb       1     -1.05    15.999
    8619      Ob       1     SIL   O01Zc       1     -1.05    15.999
    8620      Ob       1     SIL   O01Zd       1     -1.05    15.999
    8621      Ob       1     SIL   O01Ze       1     -1.05    15.999
    8622      Si       1     SIL   Si0mq       1       2.1    28.086
    8623      Si       1     SIL   Si0mr       1       2.1    28.086
    8624      Si       1     SIL   Si0ms       1       2.1    28.086
    8625      Ob       1     SIL   O01Zf       1     -1.05    15.999
    8626      Ob       1     SIL   O01Zg       1     -1.05    15.999
    8627      Ob       1     SIL   O01Zh       1     -1.05    15.999
    8628      Ob       1     SIL   O01Zi       1     -1.05    15.999
    8629      Ob       1     SIL   O01Zj       1     -1.05    15.999
    8630      Ob       1     SIL   O01Zk       1     -1.05    15.999
    8631      Si       1     SIL   Si0mt       1       2.1    28.086
    8632      Si       1     SIL   Si0mu       1       2.1    28.086
    8633      Si       1     SIL   Si0mv       1       2.1    28.086
    8634      Ob       1     SIL   O01Zl       1     -1.05    15.999
    8635      Ob       1     SIL   O01Zm       1     -1.05    15.999
    8636      Ob       1     SIL   O01Zn       1     -1.05    15.999
    8637      Ob       1     SIL   O01Zo       1     -1.05    15.999
    8638      Ob       1     SIL   O01Zp       1     -1.05    15.999
    8639      Ob       1     SIL   O01Zq       1     -1.05    15.999
    8640      Si       1     SIL   Si0mw       1       2.1    28.086
    8641      Si       1     SIL   Si0mx       1       2.1    28.086
    8642      Si       1     SIL   Si0my       1       2.1    28.086
    8643      Ob       1     SIL   O01Zr       1     -1.05    15.999
    8644       O       1     SIL   O01Zs       1    -0.525    15.999
    8645       O       1     SIL   O01Zt       1    -0.525    15.999
    8646      Ob       1     SIL   O01Zu       1     -1.05    15.999
    8647      Ob       1     SIL   O01Zv       1     -1.05    15.999
    8648      Ob       1     SIL   O01Zw       1     -1.05    15.999
    8649      Si       1     SIL   Si0mz       1       2.1    28.086
    8650      Si       1     SIL   Si0n0       1       2.1    28.086
    8651      Si       1     SIL   Si0n1       1       2.1    28.086
    8652      Ob       1     SIL   O01Zx       1     -1.05    15.999
    8653      Ob       1     SIL   O01Zy       1     -1.05    15.999
    8654      Ob       1     SIL   O01Zz       1     -1.05    15.999
    8655      Ob       1     SIL   O01a0       1     -1.05    15.999
    8656      Ob       1     SIL   O01a1       1     -1.05    15.999
    8657      Ob       1     SIL   O01a2       1     -1.05    15.999
    8658      Si       1     SIL   Si0n2       1       2.1    28.086
    8659      Si       1     SIL   Si0n3       1       2.1    28.086
    8660      Si       1     SIL   Si0n4       1       2.1    28.086
    8661      Ob       1     SIL   O01a3       1     -1.05    15.999
    8662      Ob       1     SIL   O01a4       1     -1.05    15.999
    8663      Ob       1     SIL   O01a5       1     -1.05    15.999
    8664      Ob       1     SIL   O01a6       1     -1.05    15.999
    8665      Ob       1     SIL   O01a7       1     -1.05    15.999
    8666      Ob       1     SIL   O01a8       1     -1.05    15.999
    8667      Si       1     SIL   Si0n5       1       2.1    28.086
    8668      Si       1     SIL   Si0n6       1       2.1    28.086
    8669      Si       1     SIL   Si0n7       1       2.1    28.086
    8670      Ob       1     SIL   O01a9       1     -1.05    15.999
    8671      Ob       1     SIL   O01aA       1     -1.05    15.999
    8672      Ob       1     SIL   O01aB       1     -1.05    15.999
    8673      Ob       1     SIL   O01aC       1     -1.05    15.999
    8674      Ob       1     SIL   O01aD       1     -1.05    15.999
    8675      Ob       1     SIL   O01aE       1     -1.05    15.999
    8676      Si       1     SIL   Si0n8       1       2.1    28.086
    8677      Si       1     SIL   Si0n9       1       2.1    28.086
    8678      Si       1     SIL   Si0nA       1       2.1    28.086
    8679      Ob       1     SIL   O01aF       1     -1.05    15.999
    8680      Ob       1     SIL   O01aG       1     -1.05    15.999
    8681      Ob       1     SIL   O01aH       1     -1.05    15.999
    8682      Ob       1     SIL   O01aI       1     -1.05    15.999
    8683      Ob       1     SIL   O01aJ       1     -1.05    15.999
    8684      Ob       1     SIL   O01aK       1     -1.05    15.999
    8685      Si       1     SIL   Si0nB       1       2.1    28.086
    8686      Si       1     SIL   Si0nC       1       2.1    28.086
    8687      Si       1     SIL   Si0nD       1       2.1    28.086
    8688      Ob       1     SIL   O01aL       1     -1.05    15.999
    8689      Ob       1     SIL   O01aM       1     -1.05    15.999
    8690      Ob       1     SIL   O01aN       1     -1.05    15.999
    8691      Ob       1     SIL   O01aO       1     -1.05    15.999
    8692      Ob       1     SIL   O01aP       1     -1.05    15.999
    8693      Ob       1     SIL   O01aQ       1     -1.05    15.999
    8694      Si       1     SIL   Si0nE       1       2.1    28.086
    8695      Si       1     SIL   Si0nF       1       2.1    28.086
    8696      Si       1     SIL   Si0nG       1       2.1    28.086
    8697      Ob       1     SIL   O01aR       1     -1.05    15.999
    8698      Ob       1     SIL   O01aS       1     -1.05    15.999
    8699      Ob       1     SIL   O01aT       1     -1.05    15.999
    8700      Ob       1     SIL   O01aU       1     -1.05    15.999
    8701      Ob       1     SIL   O01aV       1     -1.05    15.999
    8702      Ob       1     SIL   O01aW       1     -1.05    15.999
    8703      Si       1     SIL   Si0nH       1       2.1    28.086
    8704      Si       1     SIL   Si0nI       1       2.1    28.086
    8705      Si       1     SIL   Si0nJ       1       2.1    28.086
    8706      Ob       1     SIL   O01aX       1     -1.05    15.999
    8707      Ob       1     SIL   O01aY       1     -1.05    15.999
    8708      Ob       1     SIL   O01aZ       1     -1.05    15.999
    8709      Ob       1     SIL   O01aa       1     -1.05    15.999
    8710      Ob       1     SIL   O01ab       1     -1.05    15.999
    8711      Ob       1     SIL   O01ac       1     -1.05    15.999
    8712      Si       1     SIL   Si0nK       1       2.1    28.086
    8713      Si       1     SIL   Si0nL       1       2.1    28.086
    8714      Si       1     SIL   Si0nM       1       2.1    28.086
    8715      Ob       1     SIL   O01ad       1     -1.05    15.999
    8716      Ob       1     SIL   O01ae       1     -1.05    15.999
    8717      Ob       1     SIL   O01af       1     -1.05    15.999
    8718      Ob       1     SIL   O01ag       1     -1.05    15.999
    8719      Ob       1     SIL   O01ah       1     -1.05    15.999
    8720      Ob       1     SIL   O01ai       1     -1.05    15.999
    8721      Si       1     SIL   Si0nN       1       2.1    28.086
    8722      Si       1     SIL   Si0nO       1       2.1    28.086
    8723      Si       1     SIL   Si0nP       1       2.1    28.086
    8724      Ob       1     SIL   O01aj       1     -1.05    15.999
    8725      Ob       1     SIL   O01ak       1     -1.05    15.999
    8726      Ob       1     SIL   O01al       1     -1.05    15.999
    8727      Ob       1     SIL   O01am       1     -1.05    15.999
    8728      Ob       1     SIL   O01an       1     -1.05    15.999
    8729      Ob       1     SIL   O01ao       1     -1.05    15.999
    8730      Si       1     SIL   Si0nQ       1       2.1    28.086
    8731      Si       1     SIL   Si0nR       1       2.1    28.086
    8732      Si       1     SIL   Si0nS       1       2.1    28.086
    8733      Ob       1     SIL   O01ap       1     -1.05    15.999
    8734      Ob       1     SIL   O01aq       1     -1.05    15.999
    8735      Ob       1     SIL   O01ar       1     -1.05    15.999
    8736      Ob       1     SIL   O01as       1     -1.05    15.999
    8737      Ob       1     SIL   O01at       1     -1.05    15.999
    8738      Ob       1     SIL   O01au       1     -1.05    15.999
    8739      Si       1     SIL   Si0nT       1       2.1    28.086
    8740      Si       1     SIL   Si0nU       1       2.1    28.086
    8741      Si       1     SIL   Si0nV       1       2.1    28.086
    8742      Ob       1     SIL   O01av       1     -1.05    15.999
    8743      Ob       1     SIL   O01aw       1     -1.05    15.999
    8744      Ob       1     SIL   O01ax       1     -1.05    15.999
    8745      Ob       1     SIL   O01ay       1     -1.05    15.999
    8746      Ob       1     SIL   O01az       1     -1.05    15.999
    8747      Ob       1     SIL   O01b0       1     -1.05    15.999
    8748      Si       1     SIL   Si0nW       1       2.1    28.086
    8749      Si       1     SIL   Si0nX       1       2.1    28.086
    8750      Si       1     SIL   Si0nY       1       2.1    28.086
    8751      Ob       1     SIL   O01b1       1     -1.05    15.999
    8752      Ob       1     SIL   O01b2       1     -1.05    15.999
    8753      Ob       1     SIL   O01b3       1     -1.05    15.999
    8754      Ob       1     SIL   O01b4       1     -1.05    15.999
    8755      Ob       1     SIL   O01b5       1     -1.05    15.999
    8756      Ob       1     SIL   O01b6       1     -1.05    15.999
    8757      Si       1     SIL   Si0nZ       1       2.1    28.086
    8758      Si       1     SIL   Si0na       1       2.1    28.086
    8759      Si       1     SIL   Si0nb       1       2.1    28.086
    8760      Ob       1     SIL   O01b7       1     -1.05    15.999
    8761      Ob       1     SIL   O01b8       1     -1.05    15.999
    8762      Ob       1     SIL   O01b9       1     -1.05    15.999
    8763      Ob       1     SIL   O01bA       1     -1.05    15.999
    8764      Ob       1     SIL   O01bB       1     -1.05    15.999
    8765      Ob       1     SIL   O01bC       1     -1.05    15.999
    8766      Si       1     SIL   Si0nc       1       2.1    28.086
    8767      Si       1     SIL   Si0nd       1       2.1    28.086
    8768      Si       1     SIL   Si0ne       1       2.1    28.086
    8769      Ob       1     SIL   O01bD       1     -1.05    15.999
    8770      Ob       1     SIL   O01bE       1     -1.05    15.999
    8771      Ob       1     SIL   O01bF       1     -1.05    15.999
    8772      Ob       1     SIL   O01bG       1     -1.05    15.999
    8773      Ob       1     SIL   O01bH       1     -1.05    15.999
    8774      Ob       1     SIL   O01bI       1     -1.05    15.999
    8775      Si       1     SIL   Si0nf       1       2.1    28.086
    8776      Si       1     SIL   Si0ng       1       2.1    28.086
    8777      Si       1     SIL   Si0nh       1       2.1    28.086
    8778      Ob       1     SIL   O01bJ       1     -1.05    15.999
    8779      Ob       1     SIL   O01bK       1     -1.05    15.999
    8780      Ob       1     SIL   O01bL       1     -1.05    15.999
    8781      Ob       1     SIL   O01bM       1     -1.05    15.999
    8782      Ob       1     SIL   O01bN       1     -1.05    15.999
    8783      Ob       1     SIL   O01bO       1     -1.05    15.999
    8784      Si       1     SIL   Si0ni       1       2.1    28.086
    8785      Si       1     SIL   Si0nj       1       2.1    28.086
    8786      Si       1     SIL   Si0nk       1       2.1    28.086
    8787      Ob       1     SIL   O01bP       1     -1.05    15.999
    8788      Ob       1     SIL   O01bQ       1     -1.05    15.999
    8789      Ob       1     SIL   O01bR       1     -1.05    15.999
    8790      Ob       1     SIL   O01bS       1     -1.05    15.999
    8791      Ob       1     SIL   O01bT       1     -1.05    15.999
    8792      Ob       1     SIL   O01bU       1     -1.05    15.999
    8793      Si       1     SIL   Si0nl       1       2.1    28.086
    8794      Si       1     SIL   Si0nm       1       2.1    28.086
    8795      Si       1     SIL   Si0nn       1       2.1    28.086
    8796      Ob       1     SIL   O01bV       1     -1.05    15.999
    8797      Ob       1     SIL   O01bW       1     -1.05    15.999
    8798      Ob       1     SIL   O01bX       1     -1.05    15.999
    8799      Ob       1     SIL   O01bY       1     -1.05    15.999
    8800      Ob       1     SIL   O01bZ       1     -1.05    15.999
    8801      Ob       1     SIL   O01ba       1     -1.05    15.999
    8802      Si       1     SIL   Si0no       1       2.1    28.086
    8803      Si       1     SIL   Si0np       1       2.1    28.086
    8804      Si       1     SIL   Si0nq       1       2.1    28.086
    8805      Ob       1     SIL   O01bb       1     -1.05    15.999
    8806      Ob       1     SIL   O01bc       1     -1.05    15.999
    8807      Ob       1     SIL   O01bd       1     -1.05    15.999
    8808      Ob       1     SIL   O01be       1     -1.05    15.999
    8809      Ob       1     SIL   O01bf       1     -1.05    15.999
    8810      Ob       1     SIL   O01bg       1     -1.05    15.999
    8811      Si       1     SIL   Si0nr       1       2.1    28.086
    8812      Si       1     SIL   Si0ns       1       2.1    28.086
    8813      Si       1     SIL   Si0nt       1       2.1    28.086
    8814      Ob       1     SIL   O01bh       1     -1.05    15.999
    8815      Ob       1     SIL   O01bi       1     -1.05    15.999
    8816      Ob       1     SIL   O01bj       1     -1.05    15.999
    8817      Ob       1     SIL   O01bk       1     -1.05    15.999
    8818      Ob       1     SIL   O01bl       1     -1.05    15.999
    8819      Ob       1     SIL   O01bm       1     -1.05    15.999
    8820      Si       1     SIL   Si0nu       1       2.1    28.086
    8821      Si       1     SIL   Si0nv       1       2.1    28.086
    8822      Si       1     SIL   Si0nw       1       2.1    28.086
    8823      Ob       1     SIL   O01bn       1     -1.05    15.999
    8824      Ob       1     SIL   O01bo       1     -1.05    15.999
    8825      Ob       1     SIL   O01bp       1     -1.05    15.999
    8826      Ob       1     SIL   O01bq       1     -1.05    15.999
    8827      Ob       1     SIL   O01br       1     -1.05    15.999
    8828      Ob       1     SIL   O01bs       1     -1.05    15.999
    8829      Si       1     SIL   Si0nx       1       2.1    28.086
    8830      Si       1     SIL   Si0ny       1       2.1    28.086
    8831      Si       1     SIL   Si0nz       1       2.1    28.086
    8832      Ob       1     SIL   O01bt       1     -1.05    15.999
    8833      Ob       1     SIL   O01bu       1     -1.05    15.999
    8834      Ob       1     SIL   O01bv       1     -1.05    15.999
    8835      Ob       1     SIL   O01bw       1     -1.05    15.999
    8836      Ob       1     SIL   O01bx       1     -1.05    15.999
    8837      Ob       1     SIL   O01by       1     -1.05    15.999
    8838      Si       1     SIL   Si0o0       1       2.1    28.086
    8839      Si       1     SIL   Si0o1       1       2.1    28.086
    8840      Si       1     SIL   Si0o2       1       2.1    28.086
    8841      Ob       1     SIL   O01bz       1     -1.05    15.999
    8842      Ob       1     SIL   O01c0       1     -1.05    15.999
    8843      Ob       1     SIL   O01c1       1     -1.05    15.999
    8844      Ob       1     SIL   O01c2       1     -1.05    15.999
    8845      Ob       1     SIL   O01c3       1     -1.05    15.999
    8846      Ob       1     SIL   O01c4       1     -1.05    15.999
    8847      Si       1     SIL   Si0o3       1       2.1    28.086
    8848      Si       1     SIL   Si0o4       1       2.1    28.086
    8849      Si       1     SIL   Si0o5       1       2.1    28.086
    8850      Ob       1     SIL   O01c5       1     -1.05    15.999
    8851       O       1     SIL   O01c6       1    -0.525    15.999
    8852       O       1     SIL   O01c7       1    -0.525    15.999
    8853      Ob       1     SIL   O01c8       1     -1.05    15.999
    8854      Ob       1     SIL   O01c9       1     -1.05    15.999
    8855      Ob       1     SIL   O01cA       1     -1.05    15.999
    8856      Si       1     SIL   Si0o6       1       2.1    28.086
    8857      Si       1     SIL   Si0o7       1       2.1    28.086
    8858      Si       1     SIL   Si0o8       1       2.1    28.086
    8859      Ob       1     SIL   O01cB       1     -1.05    15.999
    8860      Ob       1     SIL   O01cC       1     -1.05    15.999
    8861      Ob       1     SIL   O01cD       1     -1.05    15.999
    8862      Ob       1     SIL   O01cE       1     -1.05    15.999
    8863      Ob       1     SIL   O01cF       1     -1.05    15.999
    8864      Ob       1     SIL   O01cG       1     -1.05    15.999
    8865      Si       1     SIL   Si0o9       1       2.1    28.086
    8866      Si       1     SIL   Si0oA       1       2.1    28.086
    8867      Si       1     SIL   Si0oB       1       2.1    28.086
    8868      Ob       1     SIL   O01cH       1     -1.05    15.999
    8869      Ob       1     SIL   O01cI       1     -1.05    15.999
    8870      Ob       1     SIL   O01cJ       1     -1.05    15.999
    8871      Ob       1     SIL   O01cK       1     -1.05    15.999
    8872      Ob       1     SIL   O01cL       1     -1.05    15.999
    8873      Ob       1     SIL   O01cM       1     -1.05    15.999
    8874      Si       1     SIL   Si0oC       1       2.1    28.086
    8875      Si       1     SIL   Si0oD       1       2.1    28.086
    8876      Si       1     SIL   Si0oE       1       2.1    28.086
    8877      Ob       1     SIL   O01cN       1     -1.05    15.999
    8878      Ob       1     SIL   O01cO       1     -1.05    15.999
    8879      Ob       1     SIL   O01cP       1     -1.05    15.999
    8880      Ob       1     SIL   O01cQ       1     -1.05    15.999
    8881      Ob       1     SIL   O01cR       1     -1.05    15.999
    8882      Ob       1     SIL   O01cS       1     -1.05    15.999
    8883      Si       1     SIL   Si0oF       1       2.1    28.086
    8884      Si       1     SIL   Si0oG       1       2.1    28.086
    8885      Si       1     SIL   Si0oH       1       2.1    28.086
    8886      Ob       1     SIL   O01cT       1     -1.05    15.999
    8887      Ob       1     SIL   O01cU       1     -1.05    15.999
    8888      Ob       1     SIL   O01cV       1     -1.05    15.999
    8889      Ob       1     SIL   O01cW       1     -1.05    15.999
    8890      Ob       1     SIL   O01cX       1     -1.05    15.999
    8891      Ob       1     SIL   O01cY       1     -1.05    15.999
    8892      Si       1     SIL   Si0oI       1       2.1    28.086
    8893      Si       1     SIL   Si0oJ       1       2.1    28.086
    8894      Si       1     SIL   Si0oK       1       2.1    28.086
    8895      Ob       1     SIL   O01cZ       1     -1.05    15.999
    8896      Ob       1     SIL   O01ca       1     -1.05    15.999
    8897      Ob       1     SIL   O01cb       1     -1.05    15.999
    8898      Ob       1     SIL   O01cc       1     -1.05    15.999
    8899      Ob       1     SIL   O01cd       1     -1.05    15.999
    8900      Ob       1     SIL   O01ce       1     -1.05    15.999
    8901      Si       1     SIL   Si0oL       1       2.1    28.086
    8902      Si       1     SIL   Si0oM       1       2.1    28.086
    8903      Si       1     SIL   Si0oN       1       2.1    28.086
    8904      Ob       1     SIL   O01cf       1     -1.05    15.999
    8905      Ob       1     SIL   O01cg       1     -1.05    15.999
    8906      Ob       1     SIL   O01ch       1     -1.05    15.999
    8907      Ob       1     SIL   O01ci       1     -1.05    15.999
    8908      Ob       1     SIL   O01cj       1     -1.05    15.999
    8909      Ob       1     SIL   O01ck       1     -1.05    15.999
    8910      Si       1     SIL   Si0oO       1       2.1    28.086
    8911      Si       1     SIL   Si0oP       1       2.1    28.086
    8912      Si       1     SIL   Si0oQ       1       2.1    28.086
    8913      Ob       1     SIL   O01cl       1     -1.05    15.999
    8914      Ob       1     SIL   O01cm       1     -1.05    15.999
    8915      Ob       1     SIL   O01cn       1     -1.05    15.999
    8916      Ob       1     SIL   O01co       1     -1.05    15.999
    8917      Ob       1     SIL   O01cp       1     -1.05    15.999
    8918      Ob       1     SIL   O01cq       1     -1.05    15.999
    8919      Si       1     SIL   Si0oR       1       2.1    28.086
    8920      Si       1     SIL   Si0oS       1       2.1    28.086
    8921      Si       1     SIL   Si0oT       1       2.1    28.086
    8922      Ob       1     SIL   O01cr       1     -1.05    15.999
    8923      Ob       1     SIL   O01cs       1     -1.05    15.999
    8924      Ob       1     SIL   O01ct       1     -1.05    15.999
    8925      Ob       1     SIL   O01cu       1     -1.05    15.999
    8926      Ob       1     SIL   O01cv       1     -1.05    15.999
    8927      Ob       1     SIL   O01cw       1     -1.05    15.999
    8928      Si       1     SIL   Si0oU       1       2.1    28.086
    8929      Si       1     SIL   Si0oV       1       2.1    28.086
    8930      Si       1     SIL   Si0oW       1       2.1    28.086
    8931      Ob       1     SIL   O01cx       1     -1.05    15.999
    8932      Ob       1     SIL   O01cy       1     -1.05    15.999
    8933      Ob       1     SIL   O01cz       1     -1.05    15.999
    8934      Ob       1     SIL   O01d0       1     -1.05    15.999
    8935      Ob       1     SIL   O01d1       1     -1.05    15.999
    8936      Ob       1     SIL   O01d2       1     -1.05    15.999
    8937      Si       1     SIL   Si0oX       1       2.1    28.086
    8938      Si       1     SIL   Si0oY       1       2.1    28.086
    8939      Si       1     SIL   Si0oZ       1       2.1    28.086
    8940      Ob       1     SIL   O01d3       1     -1.05    15.999
    8941      Ob       1     SIL   O01d4       1     -1.05    15.999
    8942      Ob       1     SIL   O01d5       1     -1.05    15.999
    8943      Ob       1     SIL   O01d6       1     -1.05    15.999
    8944      Ob       1     SIL   O01d7       1     -1.05    15.999
    8945      Ob       1     SIL   O01d8       1     -1.05    15.999
    8946      Si       1     SIL   Si0oa       1       2.1    28.086
    8947      Si       1     SIL   Si0ob       1       2.1    28.086
    8948      Si       1     SIL   Si0oc       1       2.1    28.086
    8949      Ob       1     SIL   O01d9       1     -1.05    15.999
    8950      Ob       1     SIL   O01dA       1     -1.05    15.999
    8951      Ob       1     SIL   O01dB       1     -1.05    15.999
    8952      Ob       1     SIL   O01dC       1     -1.05    15.999
    8953      Ob       1     SIL   O01dD       1     -1.05    15.999
    8954      Ob       1     SIL   O01dE       1     -1.05    15.999
    8955      Si       1     SIL   Si0od       1       2.1    28.086
    8956      Si       1     SIL   Si0oe       1       2.1    28.086
    8957      Si       1     SIL   Si0of       1       2.1    28.086
    8958      Ob       1     SIL   O01dF       1     -1.05    15.999
    8959      Ob       1     SIL   O01dG       1     -1.05    15.999
    8960      Ob       1     SIL   O01dH       1     -1.05    15.999
    8961      Ob       1     SIL   O01dI       1     -1.05    15.999
    8962      Ob       1     SIL   O01dJ       1     -1.05    15.999
    8963      Ob       1     SIL   O01dK       1     -1.05    15.999
    8964      Si       1     SIL   Si0og       1       2.1    28.086
    8965      Si       1     SIL   Si0oh       1       2.1    28.086
    8966      Si       1     SIL   Si0oi       1       2.1    28.086
    8967      Ob       1     SIL   O01dL       1     -1.05    15.999
    8968      Ob       1     SIL   O01dM       1     -1.05    15.999
    8969      Ob       1     SIL   O01dN       1     -1.05    15.999
    8970      Ob       1     SIL   O01dO       1     -1.05    15.999
    8971      Ob       1     SIL   O01dP       1     -1.05    15.999
    8972      Ob       1     SIL   O01dQ       1     -1.05    15.999
    8973      Si       1     SIL   Si0oj       1       2.1    28.086
    8974      Si       1     SIL   Si0ok       1       2.1    28.086
    8975      Si       1     SIL   Si0ol       1       2.1    28.086
    8976      Ob       1     SIL   O01dR       1     -1.05    15.999
    8977      Ob       1     SIL   O01dS       1     -1.05    15.999
    8978      Ob       1     SIL   O01dT       1     -1.05    15.999
    8979      Ob       1     SIL   O01dU       1     -1.05    15.999
    8980      Ob       1     SIL   O01dV       1     -1.05    15.999
    8981      Ob       1     SIL   O01dW       1     -1.05    15.999
    8982      Si       1     SIL   Si0om       1       2.1    28.086
    8983      Si       1     SIL   Si0on       1       2.1    28.086
    8984      Si       1     SIL   Si0oo       1       2.1    28.086
    8985      Ob       1     SIL   O01dX       1     -1.05    15.999
    8986      Ob       1     SIL   O01dY       1     -1.05    15.999
    8987      Ob       1     SIL   O01dZ       1     -1.05    15.999
    8988      Ob       1     SIL   O01da       1     -1.05    15.999
    8989      Ob       1     SIL   O01db       1     -1.05    15.999
    8990      Ob       1     SIL   O01dc       1     -1.05    15.999
    8991      Si       1     SIL   Si0op       1       2.1    28.086
    8992      Si       1     SIL   Si0oq       1       2.1    28.086
    8993      Si       1     SIL   Si0or       1       2.1    28.086
    8994      Ob       1     SIL   O01dd       1     -1.05    15.999
    8995      Ob       1     SIL   O01de       1     -1.05    15.999
    8996      Ob       1     SIL   O01df       1     -1.05    15.999
    8997      Ob       1     SIL   O01dg       1     -1.05    15.999
    8998      Ob       1     SIL   O01dh       1     -1.05    15.999
    8999      Ob       1     SIL   O01di       1     -1.05    15.999
    9000      Si       1     SIL   Si0os       1       2.1    28.086
    9001      Si       1     SIL   Si0ot       1       2.1    28.086
    9002      Si       1     SIL   Si0ou       1       2.1    28.086
    9003      Ob       1     SIL   O01dj       1     -1.05    15.999
    9004      Ob       1     SIL   O01dk       1     -1.05    15.999
    9005      Ob       1     SIL   O01dl       1     -1.05    15.999
    9006      Ob       1     SIL   O01dm       1     -1.05    15.999
    9007      Ob       1     SIL   O01dn       1     -1.05    15.999
    9008      Ob       1     SIL   O01do       1     -1.05    15.999
    9009      Si       1     SIL   Si0ov       1       2.1    28.086
    9010      Si       1     SIL   Si0ow       1       2.1    28.086
    9011      Si       1     SIL   Si0ox       1       2.1    28.086
    9012      Ob       1     SIL   O01dp       1     -1.05    15.999
    9013      Ob       1     SIL   O01dq       1     -1.05    15.999
    9014      Ob       1     SIL   O01dr       1     -1.05    15.999
    9015      Ob       1     SIL   O01ds       1     -1.05    15.999
    9016      Ob       1     SIL   O01dt       1     -1.05    15.999
    9017      Ob       1     SIL   O01du       1     -1.05    15.999
    9018      Si       1     SIL   Si0oy       1       2.1    28.086
    9019      Si       1     SIL   Si0oz       1       2.1    28.086
    9020      Si       1     SIL   Si0p0       1       2.1    28.086
    9021      Ob       1     SIL   O01dv       1     -1.05    15.999
    9022      Ob       1     SIL   O01dw       1     -1.05    15.999
    9023      Ob       1     SIL   O01dx       1     -1.05    15.999
    9024      Ob       1     SIL   O01dy       1     -1.05    15.999
    9025      Ob       1     SIL   O01dz       1     -1.05    15.999
    9026      Ob       1     SIL   O01e0       1     -1.05    15.999
    9027      Si       1     SIL   Si0p1       1       2.1    28.086
    9028      Si       1     SIL   Si0p2       1       2.1    28.086
    9029      Si       1     SIL   Si0p3       1       2.1    28.086
    9030      Ob       1     SIL   O01e1       1     -1.05    15.999
    9031      Ob       1     SIL   O01e2       1     -1.05    15.999
    9032      Ob       1     SIL   O01e3       1     -1.05    15.999
    9033      Ob       1     SIL   O01e4       1     -1.05    15.999
    9034      Ob       1     SIL   O01e5       1     -1.05    15.999
    9035      Ob       1     SIL   O01e6       1     -1.05    15.999
    9036      Si       1     SIL   Si0p4       1       2.1    28.086
    9037      Si       1     SIL   Si0p5       1       2.1    28.086
    9038      Si       1     SIL   Si0p6       1       2.1    28.086
    9039      Ob       1     SIL   O01e7       1     -1.05    15.999
    9040      Ob       1     SIL   O01e8       1     -1.05    15.999
    9041      Ob       1     SIL   O01e9       1     -1.05    15.999
    9042      Ob       1     SIL   O01eA       1     -1.05    15.999
    9043      Ob       1     SIL   O01eB       1     -1.05    15.999
    9044      Ob       1     SIL   O01eC       1     -1.05    15.999
    9045      Si       1     SIL   Si0p7       1       2.1    28.086
    9046      Si       1     SIL   Si0p8       1       2.1    28.086
    9047      Si       1     SIL   Si0p9       1       2.1    28.086
    9048      Ob       1     SIL   O01eD       1     -1.05    15.999
    9049      Ob       1     SIL   O01eE       1     -1.05    15.999
    9050      Ob       1     SIL   O01eF       1     -1.05    15.999
    9051      Ob       1     SIL   O01eG       1     -1.05    15.999
    9052      Ob       1     SIL   O01eH       1     -1.05    15.999
    9053      Ob       1     SIL   O01eI       1     -1.05    15.999
    9054      Si       1     SIL   Si0pA       1       2.1    28.086
    9055      Si       1     SIL   Si0pB       1       2.1    28.086
    9056      Si       1     SIL   Si0pC       1       2.1    28.086
    9057      Ob       1     SIL   O01eJ       1     -1.05    15.999
    9058       O       1     SIL   O01eK       1    -0.525    15.999
    9059       O       1     SIL   O01eL       1    -0.525    15.999
    9060      Ob       1     SIL   O01eM       1     -1.05    15.999
    9061      Ob       1     SIL   O01eN       1     -1.05    15.999
    9062      Ob       1     SIL   O01eO       1     -1.05    15.999
    9063      Si       1     SIL   Si0pD       1       2.1    28.086
    9064      Si       1     SIL   Si0pE       1       2.1    28.086
    9065      Si       1     SIL   Si0pF       1       2.1    28.086
    9066      Ob       1     SIL   O01eP       1     -1.05    15.999
    9067      Ob       1     SIL   O01eQ       1     -1.05    15.999
    9068      Ob       1     SIL   O01eR       1     -1.05    15.999
    9069      Ob       1     SIL   O01eS       1     -1.05    15.999
    9070      Ob       1     SIL   O01eT       1     -1.05    15.999
    9071      Ob       1     SIL   O01eU       1     -1.05    15.999
    9072      Si       1     SIL   Si0pG       1       2.1    28.086
    9073      Si       1     SIL   Si0pH       1       2.1    28.086
    9074      Si       1     SIL   Si0pI       1       2.1    28.086
    9075      Ob       1     SIL   O01eV       1     -1.05    15.999
    9076      Ob       1     SIL   O01eW       1     -1.05    15.999
    9077      Ob       1     SIL   O01eX       1     -1.05    15.999
    9078      Ob       1     SIL   O01eY       1     -1.05    15.999
    9079      Ob       1     SIL   O01eZ       1     -1.05    15.999
    9080      Ob       1     SIL   O01ea       1     -1.05    15.999
    9081      Si       1     SIL   Si0pJ       1       2.1    28.086
    9082      Si       1     SIL   Si0pK       1       2.1    28.086
    9083      Si       1     SIL   Si0pL       1       2.1    28.086
    9084      Ob       1     SIL   O01eb       1     -1.05    15.999
    9085      Ob       1     SIL   O01ec       1     -1.05    15.999
    9086      Ob       1     SIL   O01ed       1     -1.05    15.999
    9087      Ob       1     SIL   O01ee       1     -1.05    15.999
    9088      Ob       1     SIL   O01ef       1     -1.05    15.999
    9089      Ob       1     SIL   O01eg       1     -1.05    15.999
    9090      Si       1     SIL   Si0pM       1       2.1    28.086
    9091      Si       1     SIL   Si0pN       1       2.1    28.086
    9092      Si       1     SIL   Si0pO       1       2.1    28.086
    9093      Ob       1     SIL   O01eh       1     -1.05    15.999
    9094      Ob       1     SIL   O01ei       1     -1.05    15.999
    9095      Ob       1     SIL   O01ej       1     -1.05    15.999
    9096      Ob       1     SIL   O01ek       1     -1.05    15.999
    9097      Ob       1     SIL   O01el       1     -1.05    15.999
    9098      Ob       1     SIL   O01em       1     -1.05    15.999
    9099      Si       1     SIL   Si0pP       1       2.1    28.086
    9100      Si       1     SIL   Si0pQ       1       2.1    28.086
    9101      Si       1     SIL   Si0pR       1       2.1    28.086
    9102      Ob       1     SIL   O01en       1     -1.05    15.999
    9103      Ob       1     SIL   O01eo       1     -1.05    15.999
    9104      Ob       1     SIL   O01ep       1     -1.05    15.999
    9105      Ob       1     SIL   O01eq       1     -1.05    15.999
    9106      Ob       1     SIL   O01er       1     -1.05    15.999
    9107      Ob       1     SIL   O01es       1     -1.05    15.999
    9108      Si       1     SIL   Si0pS       1       2.1    28.086
    9109      Si       1     SIL   Si0pT       1       2.1    28.086
    9110      Si       1     SIL   Si0pU       1       2.1    28.086
    9111      Ob       1     SIL   O01et       1     -1.05    15.999
    9112      Ob       1     SIL   O01eu       1     -1.05    15.999
    9113      Ob       1     SIL   O01ev       1     -1.05    15.999
    9114      Ob       1     SIL   O01ew       1     -1.05    15.999
    9115      Ob       1     SIL   O01ex       1     -1.05    15.999
    9116      Ob       1     SIL   O01ey       1     -1.05    15.999
    9117      Si       1     SIL   Si0pV       1       2.1    28.086
    9118      Si       1     SIL   Si0pW       1       2.1    28.086
    9119      Si       1     SIL   Si0pX       1       2.1    28.086
    9120      Ob       1     SIL   O01ez       1     -1.05    15.999
    9121      Ob       1     SIL   O01f0       1     -1.05    15.999
    9122      Ob       1     SIL   O01f1       1     -1.05    15.999
    9123      Ob       1     SIL   O01f2       1     -1.05    15.999
    9124      Ob       1     SIL   O01f3       1     -1.05    15.999
    9125      Ob       1     SIL   O01f4       1     -1.05    15.999
    9126      Si       1     SIL   Si0pY       1       2.1    28.086
    9127      Si       1     SIL   Si0pZ       1       2.1    28.086
    9128      Si       1     SIL   Si0pa       1       2.1    28.086
    9129      Ob       1     SIL   O01f5       1     -1.05    15.999
    9130      Ob       1     SIL   O01f6       1     -1.05    15.999
    9131      Ob       1     SIL   O01f7       1     -1.05    15.999
    9132      Ob       1     SIL   O01f8       1     -1.05    15.999
    9133      Ob       1     SIL   O01f9       1     -1.05    15.999
    9134      Ob       1     SIL   O01fA       1     -1.05    15.999
    9135      Si       1     SIL   Si0pb       1       2.1    28.086
    9136      Si       1     SIL   Si0pc       1       2.1    28.086
    9137      Si       1     SIL   Si0pd       1       2.1    28.086
    9138      Ob       1     SIL   O01fB       1     -1.05    15.999
    9139      Ob       1     SIL   O01fC       1     -1.05    15.999
    9140      Ob       1     SIL   O01fD       1     -1.05    15.999
    9141      Ob       1     SIL   O01fE       1     -1.05    15.999
    9142      Ob       1     SIL   O01fF       1     -1.05    15.999
    9143      Ob       1     SIL   O01fG       1     -1.05    15.999
    9144      Si       1     SIL   Si0pe       1       2.1    28.086
    9145      Si       1     SIL   Si0pf       1       2.1    28.086
    9146      Si       1     SIL   Si0pg       1       2.1    28.086
    9147      Ob       1     SIL   O01fH       1     -1.05    15.999
    9148      Ob       1     SIL   O01fI       1     -1.05    15.999
    9149      Ob       1     SIL   O01fJ       1     -1.05    15.999
    9150      Ob       1     SIL   O01fK       1     -1.05    15.999
    9151      Ob       1     SIL   O01fL       1     -1.05    15.999
    9152      Ob       1     SIL   O01fM       1     -1.05    15.999
    9153      Si       1     SIL   Si0ph       1       2.1    28.086
    9154      Si       1     SIL   Si0pi       1       2.1    28.086
    9155      Si       1     SIL   Si0pj       1       2.1    28.086
    9156      Ob       1     SIL   O01fN       1     -1.05    15.999
    9157      Ob       1     SIL   O01fO       1     -1.05    15.999
    9158      Ob       1     SIL   O01fP       1     -1.05    15.999
    9159      Ob       1     SIL   O01fQ       1     -1.05    15.999
    9160      Ob       1     SIL   O01fR       1     -1.05    15.999
    9161      Ob       1     SIL   O01fS       1     -1.05    15.999
    9162      Si       1     SIL   Si0pk       1       2.1    28.086
    9163      Si       1     SIL   Si0pl       1       2.1    28.086
    9164      Si       1     SIL   Si0pm       1       2.1    28.086
    9165      Ob       1     SIL   O01fT       1     -1.05    15.999
    9166      Ob       1     SIL   O01fU       1     -1.05    15.999
    9167      Ob       1     SIL   O01fV       1     -1.05    15.999
    9168      Ob       1     SIL   O01fW       1     -1.05    15.999
    9169      Ob       1     SIL   O01fX       1     -1.05    15.999
    9170      Ob       1     SIL   O01fY       1     -1.05    15.999
    9171      Si       1     SIL   Si0pn       1       2.1    28.086
    9172      Si       1     SIL   Si0po       1       2.1    28.086
    9173      Si       1     SIL   Si0pp       1       2.1    28.086
    9174      Ob       1     SIL   O01fZ       1     -1.05    15.999
    9175      Ob       1     SIL   O01fa       1     -1.05    15.999
    9176      Ob       1     SIL   O01fb       1     -1.05    15.999
    9177      Ob       1     SIL   O01fc       1     -1.05    15.999
    9178      Ob       1     SIL   O01fd       1     -1.05    15.999
    9179      Ob       1     SIL   O01fe       1     -1.05    15.999
    9180      Si       1     SIL   Si0pq       1       2.1    28.086
    9181      Si       1     SIL   Si0pr       1       2.1    28.086
    9182      Si       1     SIL   Si0ps       1       2.1    28.086
    9183      Ob       1     SIL   O01ff       1     -1.05    15.999
    9184      Ob       1     SIL   O01fg       1     -1.05    15.999
    9185      Ob       1     SIL   O01fh       1     -1.05    15.999
    9186      Ob       1     SIL   O01fi       1     -1.05    15.999
    9187      Ob       1     SIL   O01fj       1     -1.05    15.999
    9188      Ob       1     SIL   O01fk       1     -1.05    15.999
    9189      Si       1     SIL   Si0pt       1       2.1    28.086
    9190      Si       1     SIL   Si0pu       1       2.1    28.086
    9191      Si       1     SIL   Si0pv       1       2.1    28.086
    9192      Ob       1     SIL   O01fl       1     -1.05    15.999
    9193      Ob       1     SIL   O01fm       1     -1.05    15.999
    9194      Ob       1     SIL   O01fn       1     -1.05    15.999
    9195      Ob       1     SIL   O01fo       1     -1.05    15.999
    9196      Ob       1     SIL   O01fp       1     -1.05    15.999
    9197      Ob       1     SIL   O01fq       1     -1.05    15.999
    9198      Si       1     SIL   Si0pw       1       2.1    28.086
    9199      Si       1     SIL   Si0px       1       2.1    28.086
    9200      Si       1     SIL   Si0py       1       2.1    28.086
    9201      Ob       1     SIL   O01fr       1     -1.05    15.999
    9202      Ob       1     SIL   O01fs       1     -1.05    15.999
    9203      Ob       1     SIL   O01ft       1     -1.05    15.999
    9204      Ob       1     SIL   O01fu       1     -1.05    15.999
    9205      Ob       1     SIL   O01fv       1     -1.05    15.999
    9206      Ob       1     SIL   O01fw       1     -1.05    15.999
    9207      Si       1     SIL   Si0pz       1       2.1    28.086
    9208      Si       1     SIL   Si0q0       1       2.1    28.086
    9209      Si       1     SIL   Si0q1       1       2.1    28.086
    9210      Ob       1     SIL   O01fx       1     -1.05    15.999
    9211      Ob       1     SIL   O01fy       1     -1.05    15.999
    9212      Ob       1     SIL   O01fz       1     -1.05    15.999
    9213      Ob       1     SIL   O01g0       1     -1.05    15.999
    9214      Ob       1     SIL   O01g1       1     -1.05    15.999
    9215      Ob       1     SIL   O01g2       1     -1.05    15.999
    9216      Si       1     SIL   Si0q2       1       2.1    28.086
    9217      Si       1     SIL   Si0q3       1       2.1    28.086
    9218      Si       1     SIL   Si0q4       1       2.1    28.086
    9219      Ob       1     SIL   O01g3       1     -1.05    15.999
    9220      Ob       1     SIL   O01g4       1     -1.05    15.999
    9221      Ob       1     SIL   O01g5       1     -1.05    15.999
    9222      Ob       1     SIL   O01g6       1     -1.05    15.999
    9223      Ob       1     SIL   O01g7       1     -1.05    15.999
    9224      Ob       1     SIL   O01g8       1     -1.05    15.999
    9225      Si       1     SIL   Si0q5       1       2.1    28.086
    9226      Si       1     SIL   Si0q6       1       2.1    28.086
    9227      Si       1     SIL   Si0q7       1       2.1    28.086
    9228      Ob       1     SIL   O01g9       1     -1.05    15.999
    9229      Ob       1     SIL   O01gA       1     -1.05    15.999
    9230      Ob       1     SIL   O01gB       1     -1.05    15.999
    9231      Ob       1     SIL   O01gC       1     -1.05    15.999
    9232      Ob       1     SIL   O01gD       1     -1.05    15.999
    9233      Ob       1     SIL   O01gE       1     -1.05    15.999
    9234      Si       1     SIL   Si0q8       1       2.1    28.086
    9235      Si       1     SIL   Si0q9       1       2.1    28.086
    9236      Si       1     SIL   Si0qA       1       2.1    28.086
    9237      Ob       1     SIL   O01gF       1     -1.05    15.999
    9238      Ob       1     SIL   O01gG       1     -1.05    15.999
    9239      Ob       1     SIL   O01gH       1     -1.05    15.999
    9240      Ob       1     SIL   O01gI       1     -1.05    15.999
    9241      Ob       1     SIL   O01gJ       1     -1.05    15.999
    9242      Ob       1     SIL   O01gK       1     -1.05    15.999
    9243      Si       1     SIL   Si0qB       1       2.1    28.086
    9244      Si       1     SIL   Si0qC       1       2.1    28.086
    9245      Si       1     SIL   Si0qD       1       2.1    28.086
    9246      Ob       1     SIL   O01gL       1     -1.05    15.999
    9247      Ob       1     SIL   O01gM       1     -1.05    15.999
    9248      Ob       1     SIL   O01gN       1     -1.05    15.999
    9249      Ob       1     SIL   O01gO       1     -1.05    15.999
    9250      Ob       1     SIL   O01gP       1     -1.05    15.999
    9251      Ob       1     SIL   O01gQ       1     -1.05    15.999
    9252      Si       1     SIL   Si0qE       1       2.1    28.086
    9253      Si       1     SIL   Si0qF       1       2.1    28.086
    9254      Si       1     SIL   Si0qG       1       2.1    28.086
    9255      Ob       1     SIL   O01gR       1     -1.05    15.999
    9256      Ob       1     SIL   O01gS       1     -1.05    15.999
    9257      Ob       1     SIL   O01gT       1     -1.05    15.999
    9258      Ob       1     SIL   O01gU       1     -1.05    15.999
    9259      Ob       1     SIL   O01gV       1     -1.05    15.999
    9260      Ob       1     SIL   O01gW       1     -1.05    15.999
    9261      Si       1     SIL   Si0qH       1       2.1    28.086
    9262      Si       1     SIL   Si0qI       1       2.1    28.086
    9263      Si       1     SIL   Si0qJ       1       2.1    28.086
    9264      Ob       1     SIL   O01gX       1     -1.05    15.999
    9265       O       1     SIL   O01gY       1    -0.525    15.999
    9266       O       1     SIL   O01gZ       1    -0.525    15.999
    9267      Ob       1     SIL   O01ga       1     -1.05    15.999
    9268      Ob       1     SIL   O01gb       1     -1.05    15.999
    9269      Ob       1     SIL   O01gc       1     -1.05    15.999
    9270      Si       1     SIL   Si0qK       1       2.1    28.086
    9271      Si       1     SIL   Si0qL       1       2.1    28.086
    9272      Si       1     SIL   Si0qM       1       2.1    28.086
    9273      Ob       1     SIL   O01gd       1     -1.05    15.999
    9274      Ob       1     SIL   O01ge       1     -1.05    15.999
    9275      Ob       1     SIL   O01gf       1     -1.05    15.999
    9276      Ob       1     SIL   O01gg       1     -1.05    15.999
    9277      Ob       1     SIL   O01gh       1     -1.05    15.999
    9278      Ob       1     SIL   O01gi       1     -1.05    15.999
    9279      Si       1     SIL   Si0qN       1       2.1    28.086
    9280      Si       1     SIL   Si0qO       1       2.1    28.086
    9281      Si       1     SIL   Si0qP       1       2.1    28.086
    9282      Ob       1     SIL   O01gj       1     -1.05    15.999
    9283      Ob       1     SIL   O01gk       1     -1.05    15.999
    9284      Ob       1     SIL   O01gl       1     -1.05    15.999
    9285      Ob       1     SIL   O01gm       1     -1.05    15.999
    9286      Ob       1     SIL   O01gn       1     -1.05    15.999
    9287      Ob       1     SIL   O01go       1     -1.05    15.999
    9288      Si       1     SIL   Si0qQ       1       2.1    28.086
    9289      Si       1     SIL   Si0qR       1       2.1    28.086
    9290      Si       1     SIL   Si0qS       1       2.1    28.086
    9291      Ob       1     SIL   O01gp       1     -1.05    15.999
    9292      Ob       1     SIL   O01gq       1     -1.05    15.999
    9293      Ob       1     SIL   O01gr       1     -1.05    15.999
    9294      Ob       1     SIL   O01gs       1     -1.05    15.999
    9295      Ob       1     SIL   O01gt       1     -1.05    15.999
    9296      Ob       1     SIL   O01gu       1     -1.05    15.999
    9297      Si       1     SIL   Si0qT       1       2.1    28.086
    9298      Si       1     SIL   Si0qU       1       2.1    28.086
    9299      Si       1     SIL   Si0qV       1       2.1    28.086
    9300      Ob       1     SIL   O01gv       1     -1.05    15.999
    9301      Ob       1     SIL   O01gw       1     -1.05    15.999
    9302      Ob       1     SIL   O01gx       1     -1.05    15.999
    9303      Ob       1     SIL   O01gy       1     -1.05    15.999
    9304      Ob       1     SIL   O01gz       1     -1.05    15.999
    9305      Ob       1     SIL   O01h0       1     -1.05    15.999
    9306      Si       1     SIL   Si0qW       1       2.1    28.086
    9307      Si       1     SIL   Si0qX       1       2.1    28.086
    9308      Si       1     SIL   Si0qY       1       2.1    28.086
    9309      Ob       1     SIL   O01h1       1     -1.05    15.999
    9310      Ob       1     SIL   O01h2       1     -1.05    15.999
    9311      Ob       1     SIL   O01h3       1     -1.05    15.999
    9312      Ob       1     SIL   O01h4       1     -1.05    15.999
    9313      Ob       1     SIL   O01h5       1     -1.05    15.999
    9314      Ob       1     SIL   O01h6       1     -1.05    15.999
    9315      Si       1     SIL   Si0qZ       1       2.1    28.086
    9316      Si       1     SIL   Si0qa       1       2.1    28.086
    9317      Si       1     SIL   Si0qb       1       2.1    28.086
    9318      Ob       1     SIL   O01h7       1     -1.05    15.999
    9319      Ob       1     SIL   O01h8       1     -1.05    15.999
    9320      Ob       1     SIL   O01h9       1     -1.05    15.999
    9321      Ob       1     SIL   O01hA       1     -1.05    15.999
    9322      Ob       1     SIL   O01hB       1     -1.05    15.999
    9323      Ob       1     SIL   O01hC       1     -1.05    15.999
    9324      Si       1     SIL   Si0qc       1       2.1    28.086
    9325      Si       1     SIL   Si0qd       1       2.1    28.086
    9326      Si       1     SIL   Si0qe       1       2.1    28.086
    9327      Ob       1     SIL   O01hD       1     -1.05    15.999
    9328      Ob       1     SIL   O01hE       1     -1.05    15.999
    9329      Ob       1     SIL   O01hF       1     -1.05    15.999
    9330      Ob       1     SIL   O01hG       1     -1.05    15.999
    9331      Ob       1     SIL   O01hH       1     -1.05    15.999
    9332      Ob       1     SIL   O01hI       1     -1.05    15.999
    9333      Si       1     SIL   Si0qf       1       2.1    28.086
    9334      Si       1     SIL   Si0qg       1       2.1    28.086
    9335      Si       1     SIL   Si0qh       1       2.1    28.086
    9336      Ob       1     SIL   O01hJ       1     -1.05    15.999
    9337      Ob       1     SIL   O01hK       1     -1.05    15.999
    9338      Ob       1     SIL   O01hL       1     -1.05    15.999
    9339      Ob       1     SIL   O01hM       1     -1.05    15.999
    9340      Ob       1     SIL   O01hN       1     -1.05    15.999
    9341      Ob       1     SIL   O01hO       1     -1.05    15.999
    9342      Si       1     SIL   Si0qi       1       2.1    28.086
    9343      Si       1     SIL   Si0qj       1       2.1    28.086
    9344      Si       1     SIL   Si0qk       1       2.1    28.086
    9345      Ob       1     SIL   O01hP       1     -1.05    15.999
    9346      Ob       1     SIL   O01hQ       1     -1.05    15.999
    9347      Ob       1     SIL   O01hR       1     -1.05    15.999
    9348      Ob       1     SIL   O01hS       1     -1.05    15.999
    9349      Ob       1     SIL   O01hT       1     -1.05    15.999
    9350      Ob       1     SIL   O01hU       1     -1.05    15.999
    9351      Si       1     SIL   Si0ql       1       2.1    28.086
    9352      Si       1     SIL   Si0qm       1       2.1    28.086
    9353      Si       1     SIL   Si0qn       1       2.1    28.086
    9354      Ob       1     SIL   O01hV       1     -1.05    15.999
    9355      Ob       1     SIL   O01hW       1     -1.05    15.999
    9356      Ob       1     SIL   O01hX       1     -1.05    15.999
    9357      Ob       1     SIL   O01hY       1     -1.05    15.999
    9358      Ob       1     SIL   O01hZ       1     -1.05    15.999
    9359      Ob       1     SIL   O01ha       1     -1.05    15.999
    9360      Si       1     SIL   Si0qo       1       2.1    28.086
    9361      Si       1     SIL   Si0qp       1       2.1    28.086
    9362      Si       1     SIL   Si0qq       1       2.1    28.086
    9363      Ob       1     SIL   O01hb       1     -1.05    15.999
    9364      Ob       1     SIL   O01hc       1     -1.05    15.999
    9365      Ob       1     SIL   O01hd       1     -1.05    15.999
    9366      Ob       1     SIL   O01he       1     -1.05    15.999
    9367      Ob       1     SIL   O01hf       1     -1.05    15.999
    9368      Ob       1     SIL   O01hg       1     -1.05    15.999
    9369      Si       1     SIL   Si0qr       1       2.1    28.086
    9370      Si       1     SIL   Si0qs       1       2.1    28.086
    9371      Si       1     SIL   Si0qt       1       2.1    28.086
    9372      Ob       1     SIL   O01hh       1     -1.05    15.999
    9373      Ob       1     SIL   O01hi       1     -1.05    15.999
    9374      Ob       1     SIL   O01hj       1     -1.05    15.999
    9375      Ob       1     SIL   O01hk       1     -1.05    15.999
    9376      Ob       1     SIL   O01hl       1     -1.05    15.999
    9377      Ob       1     SIL   O01hm       1     -1.05    15.999
    9378      Si       1     SIL   Si0qu       1       2.1    28.086
    9379      Si       1     SIL   Si0qv       1       2.1    28.086
    9380      Si       1     SIL   Si0qw       1       2.1    28.086
    9381      Ob       1     SIL   O01hn       1     -1.05    15.999
    9382      Ob       1     SIL   O01ho       1     -1.05    15.999
    9383      Ob       1     SIL   O01hp       1     -1.05    15.999
    9384      Ob       1     SIL   O01hq       1     -1.05    15.999
    9385      Ob       1     SIL   O01hr       1     -1.05    15.999
    9386      Ob       1     SIL   O01hs       1     -1.05    15.999
    9387      Si       1     SIL   Si0qx       1       2.1    28.086
    9388      Si       1     SIL   Si0qy       1       2.1    28.086
    9389      Si       1     SIL   Si0qz       1       2.1    28.086
    9390      Ob       1     SIL   O01ht       1     -1.05    15.999
    9391      Ob       1     SIL   O01hu       1     -1.05    15.999
    9392      Ob       1     SIL   O01hv       1     -1.05    15.999
    9393      Ob       1     SIL   O01hw       1     -1.05    15.999
    9394      Ob       1     SIL   O01hx       1     -1.05    15.999
    9395      Ob       1     SIL   O01hy       1     -1.05    15.999
    9396      Si       1     SIL   Si0r0       1       2.1    28.086
    9397      Si       1     SIL   Si0r1       1       2.1    28.086
    9398      Si       1     SIL   Si0r2       1       2.1    28.086
    9399      Ob       1     SIL   O01hz       1     -1.05    15.999
    9400      Ob       1     SIL   O01i0       1     -1.05    15.999
    9401      Ob       1     SIL   O01i1       1     -1.05    15.999
    9402      Ob       1     SIL   O01i2       1     -1.05    15.999
    9403      Ob       1     SIL   O01i3       1     -1.05    15.999
    9404      Ob       1     SIL   O01i4       1     -1.05    15.999
    9405      Si       1     SIL   Si0r3       1       2.1    28.086
    9406      Si       1     SIL   Si0r4       1       2.1    28.086
    9407      Si       1     SIL   Si0r5       1       2.1    28.086
    9408      Ob       1     SIL   O01i5       1     -1.05    15.999
    9409      Ob       1     SIL   O01i6       1     -1.05    15.999
    9410      Ob       1     SIL   O01i7       1     -1.05    15.999
    9411      Ob       1     SIL   O01i8       1     -1.05    15.999
    9412      Ob       1     SIL   O01i9       1     -1.05    15.999
    9413      Ob       1     SIL   O01iA       1     -1.05    15.999
    9414      Si       1     SIL   Si0r6       1       2.1    28.086
    9415      Si       1     SIL   Si0r7       1       2.1    28.086
    9416      Si       1     SIL   Si0r8       1       2.1    28.086
    9417      Ob       1     SIL   O01iB       1     -1.05    15.999
    9418      Ob       1     SIL   O01iC       1     -1.05    15.999
    9419      Ob       1     SIL   O01iD       1     -1.05    15.999
    9420      Ob       1     SIL   O01iE       1     -1.05    15.999
    9421      Ob       1     SIL   O01iF       1     -1.05    15.999
    9422      Ob       1     SIL   O01iG       1     -1.05    15.999
    9423      Si       1     SIL   Si0r9       1       2.1    28.086
    9424      Si       1     SIL   Si0rA       1       2.1    28.086
    9425      Si       1     SIL   Si0rB       1       2.1    28.086
    9426      Ob       1     SIL   O01iH       1     -1.05    15.999
    9427      Ob       1     SIL   O01iI       1     -1.05    15.999
    9428      Ob       1     SIL   O01iJ       1     -1.05    15.999
    9429      Ob       1     SIL   O01iK       1     -1.05    15.999
    9430      Ob       1     SIL   O01iL       1     -1.05    15.999
    9431      Ob       1     SIL   O01iM       1     -1.05    15.999
    9432      Si       1     SIL   Si0rC       1       2.1    28.086
    9433      Si       1     SIL   Si0rD       1       2.1    28.086
    9434      Si       1     SIL   Si0rE       1       2.1    28.086
    9435      Ob       1     SIL   O01iN       1     -1.05    15.999
    9436      Ob       1     SIL   O01iO       1     -1.05    15.999
    9437      Ob       1     SIL   O01iP       1     -1.05    15.999
    9438      Ob       1     SIL   O01iQ       1     -1.05    15.999
    9439      Ob       1     SIL   O01iR       1     -1.05    15.999
    9440      Ob       1     SIL   O01iS       1     -1.05    15.999
    9441      Si       1     SIL   Si0rF       1       2.1    28.086
    9442      Si       1     SIL   Si0rG       1       2.1    28.086
    9443      Si       1     SIL   Si0rH       1       2.1    28.086
    9444      Ob       1     SIL   O01iT       1     -1.05    15.999
    9445      Ob       1     SIL   O01iU       1     -1.05    15.999
    9446      Ob       1     SIL   O01iV       1     -1.05    15.999
    9447      Ob       1     SIL   O01iW       1     -1.05    15.999
    9448      Ob       1     SIL   O01iX       1     -1.05    15.999
    9449      Ob       1     SIL   O01iY       1     -1.05    15.999
    9450      Si       1     SIL   Si0rI       1       2.1    28.086
    9451      Si       1     SIL   Si0rJ       1       2.1    28.086
    9452      Si       1     SIL   Si0rK       1       2.1    28.086
    9453      Ob       1     SIL   O01iZ       1     -1.05    15.999
    9454      Ob       1     SIL   O01ia       1     -1.05    15.999
    9455      Ob       1     SIL   O01ib       1     -1.05    15.999
    9456      Ob       1     SIL   O01ic       1     -1.05    15.999
    9457      Ob       1     SIL   O01id       1     -1.05    15.999
    9458      Ob       1     SIL   O01ie       1     -1.05    15.999
    9459      Si       1     SIL   Si0rL       1       2.1    28.086
    9460      Si       1     SIL   Si0rM       1       2.1    28.086
    9461      Si       1     SIL   Si0rN       1       2.1    28.086
    9462      Ob       1     SIL   O01if       1     -1.05    15.999
    9463      Ob       1     SIL   O01ig       1     -1.05    15.999
    9464      Ob       1     SIL   O01ih       1     -1.05    15.999
    9465      Ob       1     SIL   O01ii       1     -1.05    15.999
    9466      Ob       1     SIL   O01ij       1     -1.05    15.999
    9467      Ob       1     SIL   O01ik       1     -1.05    15.999
    9468      Si       1     SIL   Si0rO       1       2.1    28.086
    9469      Si       1     SIL   Si0rP       1       2.1    28.086
    9470      Si       1     SIL   Si0rQ       1       2.1    28.086
    9471      Ob       1     SIL   O01il       1     -1.05    15.999
    9472       O       1     SIL   O01im       1    -0.525    15.999
    9473       O       1     SIL   O01in       1    -0.525    15.999
    9474      Ob       1     SIL   O01io       1     -1.05    15.999
    9475      Ob       1     SIL   O01ip       1     -1.05    15.999
    9476      Ob       1     SIL   O01iq       1     -1.05    15.999
    9477      Si       1     SIL   Si0rR       1       2.1    28.086
    9478      Si       1     SIL   Si0rS       1       2.1    28.086
    9479      Si       1     SIL   Si0rT       1       2.1    28.086
    9480      Ob       1     SIL   O01ir       1     -1.05    15.999
    9481      Ob       1     SIL   O01is       1     -1.05    15.999
    9482      Ob       1     SIL   O01it       1     -1.05    15.999
    9483      Ob       1     SIL   O01iu       1     -1.05    15.999
    9484      Ob       1     SIL   O01iv       1     -1.05    15.999
    9485      Ob       1     SIL   O01iw       1     -1.05    15.999
    9486      Si       1     SIL   Si0rU       1       2.1    28.086
    9487      Si       1     SIL   Si0rV       1       2.1    28.086
    9488      Si       1     SIL   Si0rW       1       2.1    28.086
    9489      Ob       1     SIL   O01ix       1     -1.05    15.999
    9490      Ob       1     SIL   O01iy       1     -1.05    15.999
    9491      Ob       1     SIL   O01iz       1     -1.05    15.999
    9492      Ob       1     SIL   O01j0       1     -1.05    15.999
    9493      Ob       1     SIL   O01j1       1     -1.05    15.999
    9494      Ob       1     SIL   O01j2       1     -1.05    15.999
    9495      Si       1     SIL   Si0rX       1       2.1    28.086
    9496      Si       1     SIL   Si0rY       1       2.1    28.086
    9497      Si       1     SIL   Si0rZ       1       2.1    28.086
    9498      Ob       1     SIL   O01j3       1     -1.05    15.999
    9499      Ob       1     SIL   O01j4       1     -1.05    15.999
    9500      Ob       1     SIL   O01j5       1     -1.05    15.999
    9501      Ob       1     SIL   O01j6       1     -1.05    15.999
    9502      Ob       1     SIL   O01j7       1     -1.05    15.999
    9503      Ob       1     SIL   O01j8       1     -1.05    15.999
    9504      Si       1     SIL   Si0ra       1       2.1    28.086
    9505      Si       1     SIL   Si0rb       1       2.1    28.086
    9506      Si       1     SIL   Si0rc       1       2.1    28.086
    9507      Ob       1     SIL   O01j9       1     -1.05    15.999
    9508      Ob       1     SIL   O01jA       1     -1.05    15.999
    9509      Ob       1     SIL   O01jB       1     -1.05    15.999
    9510      Ob       1     SIL   O01jC       1     -1.05    15.999
    9511      Ob       1     SIL   O01jD       1     -1.05    15.999
    9512      Ob       1     SIL   O01jE       1     -1.05    15.999
    9513      Si       1     SIL   Si0rd       1       2.1    28.086
    9514      Si       1     SIL   Si0re       1       2.1    28.086
    9515      Si       1     SIL   Si0rf       1       2.1    28.086
    9516      Ob       1     SIL   O01jF       1     -1.05    15.999
    9517      Ob       1     SIL   O01jG       1     -1.05    15.999
    9518      Ob       1     SIL   O01jH       1     -1.05    15.999
    9519      Ob       1     SIL   O01jI       1     -1.05    15.999
    9520      Ob       1     SIL   O01jJ       1     -1.05    15.999
    9521      Ob       1     SIL   O01jK       1     -1.05    15.999
    9522      Si       1     SIL   Si0rg       1       2.1    28.086
    9523      Si       1     SIL   Si0rh       1       2.1    28.086
    9524      Si       1     SIL   Si0ri       1       2.1    28.086
    9525      Ob       1     SIL   O01jL       1     -1.05    15.999
    9526      Ob       1     SIL   O01jM       1     -1.05    15.999
    9527      Ob       1     SIL   O01jN       1     -1.05    15.999
    9528      Ob       1     SIL   O01jO       1     -1.05    15.999
    9529      Ob       1     SIL   O01jP       1     -1.05    15.999
    9530      Ob       1     SIL   O01jQ       1     -1.05    15.999
    9531      Si       1     SIL   Si0rj       1       2.1    28.086
    9532      Si       1     SIL   Si0rk       1       2.1    28.086
    9533      Si       1     SIL   Si0rl       1       2.1    28.086
    9534      Ob       1     SIL   O01jR       1     -1.05    15.999
    9535      Ob       1     SIL   O01jS       1     -1.05    15.999
    9536      Ob       1     SIL   O01jT       1     -1.05    15.999
    9537      Ob       1     SIL   O01jU       1     -1.05    15.999
    9538      Ob       1     SIL   O01jV       1     -1.05    15.999
    9539      Ob       1     SIL   O01jW       1     -1.05    15.999
    9540      Si       1     SIL   Si0rm       1       2.1    28.086
    9541      Si       1     SIL   Si0rn       1       2.1    28.086
    9542      Si       1     SIL   Si0ro       1       2.1    28.086
    9543      Ob       1     SIL   O01jX       1     -1.05    15.999
    9544      Ob       1     SIL   O01jY       1     -1.05    15.999
    9545      Ob       1     SIL   O01jZ       1     -1.05    15.999
    9546      Ob       1     SIL   O01ja       1     -1.05    15.999
    9547      Ob       1     SIL   O01jb       1     -1.05    15.999
    9548      Ob       1     SIL   O01jc       1     -1.05    15.999
    9549      Si       1     SIL   Si0rp       1       2.1    28.086
    9550      Si       1     SIL   Si0rq       1       2.1    28.086
    9551      Si       1     SIL   Si0rr       1       2.1    28.086
    9552      Ob       1     SIL   O01jd       1     -1.05    15.999
    9553      Ob       1     SIL   O01je       1     -1.05    15.999
    9554      Ob       1     SIL   O01jf       1     -1.05    15.999
    9555      Ob       1     SIL   O01jg       1     -1.05    15.999
    9556      Ob       1     SIL   O01jh       1     -1.05    15.999
    9557      Ob       1     SIL   O01ji       1     -1.05    15.999
    9558      Si       1     SIL   Si0rs       1       2.1    28.086
    9559      Si       1     SIL   Si0rt       1       2.1    28.086
    9560      Si       1     SIL   Si0ru       1       2.1    28.086
    9561      Ob       1     SIL   O01jj       1     -1.05    15.999
    9562      Ob       1     SIL   O01jk       1     -1.05    15.999
    9563      Ob       1     SIL   O01jl       1     -1.05    15.999
    9564      Ob       1     SIL   O01jm       1     -1.05    15.999
    9565      Ob       1     SIL   O01jn       1     -1.05    15.999
    9566      Ob       1     SIL   O01jo       1     -1.05    15.999
    9567      Si       1     SIL   Si0rv       1       2.1    28.086
    9568      Si       1     SIL   Si0rw       1       2.1    28.086
    9569      Si       1     SIL   Si0rx       1       2.1    28.086
    9570      Ob       1     SIL   O01jp       1     -1.05    15.999
    9571      Ob       1     SIL   O01jq       1     -1.05    15.999
    9572      Ob       1     SIL   O01jr       1     -1.05    15.999
    9573      Ob       1     SIL   O01js       1     -1.05    15.999
    9574      Ob       1     SIL   O01jt       1     -1.05    15.999
    9575      Ob       1     SIL   O01ju       1     -1.05    15.999
    9576      Si       1     SIL   Si0ry       1       2.1    28.086
    9577      Si       1     SIL   Si0rz       1       2.1    28.086
    9578      Si       1     SIL   Si0s0       1       2.1    28.086
    9579      Ob       1     SIL   O01jv       1     -1.05    15.999
    9580      Ob       1     SIL   O01jw       1     -1.05    15.999
    9581      Ob       1     SIL   O01jx       1     -1.05    15.999
    9582      Ob       1     SIL   O01jy       1     -1.05    15.999
    9583      Ob       1     SIL   O01jz       1     -1.05    15.999
    9584      Ob       1     SIL   O01k0       1     -1.05    15.999
    9585      Si       1     SIL   Si0s1       1       2.1    28.086
    9586      Si       1     SIL   Si0s2       1       2.1    28.086
    9587      Si       1     SIL   Si0s3       1       2.1    28.086
    9588      Ob       1     SIL   O01k1       1     -1.05    15.999
    9589      Ob       1     SIL   O01k2       1     -1.05    15.999
    9590      Ob       1     SIL   O01k3       1     -1.05    15.999
    9591      Ob       1     SIL   O01k4       1     -1.05    15.999
    9592      Ob       1     SIL   O01k5       1     -1.05    15.999
    9593      Ob       1     SIL   O01k6       1     -1.05    15.999
    9594      Si       1     SIL   Si0s4       1       2.1    28.086
    9595      Si       1     SIL   Si0s5       1       2.1    28.086
    9596      Si       1     SIL   Si0s6       1       2.1    28.086
    9597      Ob       1     SIL   O01k7       1     -1.05    15.999
    9598      Ob       1     SIL   O01k8       1     -1.05    15.999
    9599      Ob       1     SIL   O01k9       1     -1.05    15.999
    9600      Ob       1     SIL   O01kA       1     -1.05    15.999
    9601      Ob       1     SIL   O01kB       1     -1.05    15.999
    9602      Ob       1     SIL   O01kC       1     -1.05    15.999
    9603      Si       1     SIL   Si0s7       1       2.1    28.086
    9604      Si       1     SIL   Si0s8       1       2.1    28.086
    9605      Si       1     SIL   Si0s9       1       2.1    28.086
    9606      Ob       1     SIL   O01kD       1     -1.05    15.999
    9607      Ob       1     SIL   O01kE       1     -1.05    15.999
    9608      Ob       1     SIL   O01kF       1     -1.05    15.999
    9609      Ob       1     SIL   O01kG       1     -1.05    15.999
    9610      Ob       1     SIL   O01kH       1     -1.05    15.999
    9611      Ob       1     SIL   O01kI       1     -1.05    15.999
    9612      Si       1     SIL   Si0sA       1       2.1    28.086
    9613      Si       1     SIL   Si0sB       1       2.1    28.086
    9614      Si       1     SIL   Si0sC       1       2.1    28.086
    9615      Ob       1     SIL   O01kJ       1     -1.05    15.999
    9616      Ob       1     SIL   O01kK       1     -1.05    15.999
    9617      Ob       1     SIL   O01kL       1     -1.05    15.999
    9618      Ob       1     SIL   O01kM       1     -1.05    15.999
    9619      Ob       1     SIL   O01kN       1     -1.05    15.999
    9620      Ob       1     SIL   O01kO       1     -1.05    15.999
    9621      Si       1     SIL   Si0sD       1       2.1    28.086
    9622      Si       1     SIL   Si0sE       1       2.1    28.086
    9623      Si       1     SIL   Si0sF       1       2.1    28.086
    9624      Ob       1     SIL   O01kP       1     -1.05    15.999
    9625      Ob       1     SIL   O01kQ       1     -1.05    15.999
    9626      Ob       1     SIL   O01kR       1     -1.05    15.999
    9627      Ob       1     SIL   O01kS       1     -1.05    15.999
    9628      Ob       1     SIL   O01kT       1     -1.05    15.999
    9629      Ob       1     SIL   O01kU       1     -1.05    15.999
    9630      Si       1     SIL   Si0sG       1       2.1    28.086
    9631      Si       1     SIL   Si0sH       1       2.1    28.086
    9632      Si       1     SIL   Si0sI       1       2.1    28.086
    9633      Ob       1     SIL   O01kV       1     -1.05    15.999
    9634      Ob       1     SIL   O01kW       1     -1.05    15.999
    9635      Ob       1     SIL   O01kX       1     -1.05    15.999
    9636      Ob       1     SIL   O01kY       1     -1.05    15.999
    9637      Ob       1     SIL   O01kZ       1     -1.05    15.999
    9638      Ob       1     SIL   O01ka       1     -1.05    15.999
    9639      Si       1     SIL   Si0sJ       1       2.1    28.086
    9640      Si       1     SIL   Si0sK       1       2.1    28.086
    9641      Si       1     SIL   Si0sL       1       2.1    28.086
    9642      Ob       1     SIL   O01kb       1     -1.05    15.999
    9643      Ob       1     SIL   O01kc       1     -1.05    15.999
    9644      Ob       1     SIL   O01kd       1     -1.05    15.999
    9645      Ob       1     SIL   O01ke       1     -1.05    15.999
    9646      Ob       1     SIL   O01kf       1     -1.05    15.999
    9647      Ob       1     SIL   O01kg       1     -1.05    15.999
    9648      Si       1     SIL   Si0sM       1       2.1    28.086
    9649      Si       1     SIL   Si0sN       1       2.1    28.086
    9650      Si       1     SIL   Si0sO       1       2.1    28.086
    9651      Ob       1     SIL   O01kh       1     -1.05    15.999
    9652      Ob       1     SIL   O01ki       1     -1.05    15.999
    9653      Ob       1     SIL   O01kj       1     -1.05    15.999
    9654      Ob       1     SIL   O01kk       1     -1.05    15.999
    9655      Ob       1     SIL   O01kl       1     -1.05    15.999
    9656      Ob       1     SIL   O01km       1     -1.05    15.999
    9657      Si       1     SIL   Si0sP       1       2.1    28.086
    9658      Si       1     SIL   Si0sQ       1       2.1    28.086
    9659      Si       1     SIL   Si0sR       1       2.1    28.086
    9660      Ob       1     SIL   O01kn       1     -1.05    15.999
    9661      Ob       1     SIL   O01ko       1     -1.05    15.999
    9662      Ob       1     SIL   O01kp       1     -1.05    15.999
    9663      Ob       1     SIL   O01kq       1     -1.05    15.999
    9664      Ob       1     SIL   O01kr       1     -1.05    15.999
    9665      Ob       1     SIL   O01ks       1     -1.05    15.999
    9666      Si       1     SIL   Si0sS       1       2.1    28.086
    9667      Si       1     SIL   Si0sT       1       2.1    28.086
    9668      Si       1     SIL   Si0sU       1       2.1    28.086
    9669      Ob       1     SIL   O01kt       1     -1.05    15.999
    9670      Ob       1     SIL   O01ku       1     -1.05    15.999
    9671      Ob       1     SIL   O01kv       1     -1.05    15.999
    9672      Ob       1     SIL   O01kw       1     -1.05    15.999
    9673      Ob       1     SIL   O01kx       1     -1.05    15.999
    9674      Ob       1     SIL   O01ky       1     -1.05    15.999
    9675      Si       1     SIL   Si0sV       1       2.1    28.086
    9676      Si       1     SIL   Si0sW       1       2.1    28.086
    9677      Si       1     SIL   Si0sX       1       2.1    28.086
    9678      Ob       1     SIL   O01kz       1     -1.05    15.999
    9679       O       1     SIL   O01l0       1    -0.525    15.999
    9680       O       1     SIL   O01l1       1    -0.525    15.999
    9681      Ob       1     SIL   O01l2       1     -1.05    15.999
    9682      Ob       1     SIL   O01l3       1     -1.05    15.999
    9683      Ob       1     SIL   O01l4       1     -1.05    15.999
    9684      Si       1     SIL   Si0sY       1       2.1    28.086
    9685      Si       1     SIL   Si0sZ       1       2.1    28.086
    9686      Si       1     SIL   Si0sa       1       2.1    28.086
    9687      Ob       1     SIL   O01l5       1     -1.05    15.999
    9688      Ob       1     SIL   O01l6       1     -1.05    15.999
    9689      Ob       1     SIL   O01l7       1     -1.05    15.999
    9690      Ob       1     SIL   O01l8       1     -1.05    15.999
    9691      Ob       1     SIL   O01l9       1     -1.05    15.999
    9692      Ob       1     SIL   O01lA       1     -1.05    15.999
    9693      Si       1     SIL   Si0sb       1       2.1    28.086
    9694      Si       1     SIL   Si0sc       1       2.1    28.086
    9695      Si       1     SIL   Si0sd       1       2.1    28.086
    9696      Ob       1     SIL   O01lB       1     -1.05    15.999
    9697      Ob       1     SIL   O01lC       1     -1.05    15.999
    9698      Ob       1     SIL   O01lD       1     -1.05    15.999
    9699      Ob       1     SIL   O01lE       1     -1.05    15.999
    9700      Ob       1     SIL   O01lF       1     -1.05    15.999
    9701      Ob       1     SIL   O01lG       1     -1.05    15.999
    9702      Si       1     SIL   Si0se       1       2.1    28.086
    9703      Si       1     SIL   Si0sf       1       2.1    28.086
    9704      Si       1     SIL   Si0sg       1       2.1    28.086
    9705      Ob       1     SIL   O01lH       1     -1.05    15.999
    9706      Ob       1     SIL   O01lI       1     -1.05    15.999
    9707      Ob       1     SIL   O01lJ       1     -1.05    15.999
    9708      Ob       1     SIL   O01lK       1     -1.05    15.999
    9709      Ob       1     SIL   O01lL       1     -1.05    15.999
    9710      Ob       1     SIL   O01lM       1     -1.05    15.999
    9711      Si       1     SIL   Si0sh       1       2.1    28.086
    9712      Si       1     SIL   Si0si       1       2.1    28.086
    9713      Si       1     SIL   Si0sj       1       2.1    28.086
    9714      Ob       1     SIL   O01lN       1     -1.05    15.999
    9715      Ob       1     SIL   O01lO       1     -1.05    15.999
    9716      Ob       1     SIL   O01lP       1     -1.05    15.999
    9717      Ob       1     SIL   O01lQ       1     -1.05    15.999
    9718      Ob       1     SIL   O01lR       1     -1.05    15.999
    9719      Ob       1     SIL   O01lS       1     -1.05    15.999
    9720      Si       1     SIL   Si0sk       1       2.1    28.086
    9721      Si       1     SIL   Si0sl       1       2.1    28.086
    9722      Si       1     SIL   Si0sm       1       2.1    28.086
    9723      Ob       1     SIL   O01lT       1     -1.05    15.999
    9724      Ob       1     SIL   O01lU       1     -1.05    15.999
    9725      Ob       1     SIL   O01lV       1     -1.05    15.999
    9726      Ob       1     SIL   O01lW       1     -1.05    15.999
    9727      Ob       1     SIL   O01lX       1     -1.05    15.999
    9728      Ob       1     SIL   O01lY       1     -1.05    15.999
    9729      Si       1     SIL   Si0sn       1       2.1    28.086
    9730      Si       1     SIL   Si0so       1       2.1    28.086
    9731      Si       1     SIL   Si0sp       1       2.1    28.086
    9732      Ob       1     SIL   O01lZ       1     -1.05    15.999
    9733      Ob       1     SIL   O01la       1     -1.05    15.999
    9734      Ob       1     SIL   O01lb       1     -1.05    15.999
    9735      Ob       1     SIL   O01lc       1     -1.05    15.999
    9736      Ob       1     SIL   O01ld       1     -1.05    15.999
    9737      Ob       1     SIL   O01le       1     -1.05    15.999
    9738      Si       1     SIL   Si0sq       1       2.1    28.086
    9739      Si       1     SIL   Si0sr       1       2.1    28.086
    9740      Si       1     SIL   Si0ss       1       2.1    28.086
    9741      Ob       1     SIL   O01lf       1     -1.05    15.999
    9742      Ob       1     SIL   O01lg       1     -1.05    15.999
    9743      Ob       1     SIL   O01lh       1     -1.05    15.999
    9744      Ob       1     SIL   O01li       1     -1.05    15.999
    9745      Ob       1     SIL   O01lj       1     -1.05    15.999
    9746      Ob       1     SIL   O01lk       1     -1.05    15.999
    9747      Si       1     SIL   Si0st       1       2.1    28.086
    9748      Si       1     SIL   Si0su       1       2.1    28.086
    9749      Si       1     SIL   Si0sv       1       2.1    28.086
    9750      Ob       1     SIL   O01ll       1     -1.05    15.999
    9751      Ob       1     SIL   O01lm       1     -1.05    15.999
    9752      Ob       1     SIL   O01ln       1     -1.05    15.999
    9753      Ob       1     SIL   O01lo       1     -1.05    15.999
    9754      Ob       1     SIL   O01lp       1     -1.05    15.999
    9755      Ob       1     SIL   O01lq       1     -1.05    15.999
    9756      Si       1     SIL   Si0sw       1       2.1    28.086
    9757      Si       1     SIL   Si0sx       1       2.1    28.086
    9758      Si       1     SIL   Si0sy       1       2.1    28.086
    9759      Ob       1     SIL   O01lr       1     -1.05    15.999
    9760      Ob       1     SIL   O01ls       1     -1.05    15.999
    9761      Ob       1     SIL   O01lt       1     -1.05    15.999
    9762      Ob       1     SIL   O01lu       1     -1.05    15.999
    9763      Ob       1     SIL   O01lv       1     -1.05    15.999
    9764      Ob       1     SIL   O01lw       1     -1.05    15.999
    9765      Si       1     SIL   Si0sz       1       2.1    28.086
    9766      Si       1     SIL   Si0t0       1       2.1    28.086
    9767      Si       1     SIL   Si0t1       1       2.1    28.086
    9768      Ob       1     SIL   O01lx       1     -1.05    15.999
    9769      Ob       1     SIL   O01ly       1     -1.05    15.999
    9770      Ob       1     SIL   O01lz       1     -1.05    15.999
    9771      Ob       1     SIL   O01m0       1     -1.05    15.999
    9772      Ob       1     SIL   O01m1       1     -1.05    15.999
    9773      Ob       1     SIL   O01m2       1     -1.05    15.999
    9774      Si       1     SIL   Si0t2       1       2.1    28.086
    9775      Si       1     SIL   Si0t3       1       2.1    28.086
    9776      Si       1     SIL   Si0t4       1       2.1    28.086
    9777      Ob       1     SIL   O01m3       1     -1.05    15.999
    9778      Ob       1     SIL   O01m4       1     -1.05    15.999
    9779      Ob       1     SIL   O01m5       1     -1.05    15.999
    9780      Ob       1     SIL   O01m6       1     -1.05    15.999
    9781      Ob       1     SIL   O01m7       1     -1.05    15.999
    9782      Ob       1     SIL   O01m8       1     -1.05    15.999
    9783      Si       1     SIL   Si0t5       1       2.1    28.086
    9784      Si       1     SIL   Si0t6       1       2.1    28.086
    9785      Si       1     SIL   Si0t7       1       2.1    28.086
    9786      Ob       1     SIL   O01m9       1     -1.05    15.999
    9787      Ob       1     SIL   O01mA       1     -1.05    15.999
    9788      Ob       1     SIL   O01mB       1     -1.05    15.999
    9789      Ob       1     SIL   O01mC       1     -1.05    15.999
    9790      Ob       1     SIL   O01mD       1     -1.05    15.999
    9791      Ob       1     SIL   O01mE       1     -1.05    15.999
    9792      Si       1     SIL   Si0t8       1       2.1    28.086
    9793      Si       1     SIL   Si0t9       1       2.1    28.086
    9794      Si       1     SIL   Si0tA       1       2.1    28.086
    9795      Ob       1     SIL   O01mF       1     -1.05    15.999
    9796      Ob       1     SIL   O01mG       1     -1.05    15.999
    9797      Ob       1     SIL   O01mH       1     -1.05    15.999
    9798      Ob       1     SIL   O01mI       1     -1.05    15.999
    9799      Ob       1     SIL   O01mJ       1     -1.05    15.999
    9800      Ob       1     SIL   O01mK       1     -1.05    15.999
    9801      Si       1     SIL   Si0tB       1       2.1    28.086
    9802      Si       1     SIL   Si0tC       1       2.1    28.086
    9803      Si       1     SIL   Si0tD       1       2.1    28.086
    9804      Ob       1     SIL   O01mL       1     -1.05    15.999
    9805      Ob       1     SIL   O01mM       1     -1.05    15.999
    9806      Ob       1     SIL   O01mN       1     -1.05    15.999
    9807      Ob       1     SIL   O01mO       1     -1.05    15.999
    9808      Ob       1     SIL   O01mP       1     -1.05    15.999
    9809      Ob       1     SIL   O01mQ       1     -1.05    15.999
    9810      Si       1     SIL   Si0tE       1       2.1    28.086
    9811      Si       1     SIL   Si0tF       1       2.1    28.086
    9812      Si       1     SIL   Si0tG       1       2.1    28.086
    9813      Ob       1     SIL   O01mR       1     -1.05    15.999
    9814      Ob       1     SIL   O01mS       1     -1.05    15.999
    9815      Ob       1     SIL   O01mT       1     -1.05    15.999
    9816      Ob       1     SIL   O01mU       1     -1.05    15.999
    9817      Ob       1     SIL   O01mV       1     -1.05    15.999
    9818      Ob       1     SIL   O01mW       1     -1.05    15.999
    9819      Si       1     SIL   Si0tH       1       2.1    28.086
    9820      Si       1     SIL   Si0tI       1       2.1    28.086
    9821      Si       1     SIL   Si0tJ       1       2.1    28.086
    9822      Ob       1     SIL   O01mX       1     -1.05    15.999
    9823      Ob       1     SIL   O01mY       1     -1.05    15.999
    9824      Ob       1     SIL   O01mZ       1     -1.05    15.999
    9825      Ob       1     SIL   O01ma       1     -1.05    15.999
    9826      Ob       1     SIL   O01mb       1     -1.05    15.999
    9827      Ob       1     SIL   O01mc       1     -1.05    15.999
    9828      Si       1     SIL   Si0tK       1       2.1    28.086
    9829      Si       1     SIL   Si0tL       1       2.1    28.086
    9830      Si       1     SIL   Si0tM       1       2.1    28.086
    9831      Ob       1     SIL   O01md       1     -1.05    15.999
    9832      Ob       1     SIL   O01me       1     -1.05    15.999
    9833      Ob       1     SIL   O01mf       1     -1.05    15.999
    9834      Ob       1     SIL   O01mg       1     -1.05    15.999
    9835      Ob       1     SIL   O01mh       1     -1.05    15.999
    9836      Ob       1     SIL   O01mi       1     -1.05    15.999
    9837      Si       1     SIL   Si0tN       1       2.1    28.086
    9838      Si       1     SIL   Si0tO       1       2.1    28.086
    9839      Si       1     SIL   Si0tP       1       2.1    28.086
    9840      Ob       1     SIL   O01mj       1     -1.05    15.999
    9841      Ob       1     SIL   O01mk       1     -1.05    15.999
    9842      Ob       1     SIL   O01ml       1     -1.05    15.999
    9843      Ob       1     SIL   O01mm       1     -1.05    15.999
    9844      Ob       1     SIL   O01mn       1     -1.05    15.999
    9845      Ob       1     SIL   O01mo       1     -1.05    15.999
    9846      Si       1     SIL   Si0tQ       1       2.1    28.086
    9847      Si       1     SIL   Si0tR       1       2.1    28.086
    9848      Si       1     SIL   Si0tS       1       2.1    28.086
    9849      Ob       1     SIL   O01mp       1     -1.05    15.999
    9850      Ob       1     SIL   O01mq       1     -1.05    15.999
    9851      Ob       1     SIL   O01mr       1     -1.05    15.999
    9852      Ob       1     SIL   O01ms       1     -1.05    15.999
    9853      Ob       1     SIL   O01mt       1     -1.05    15.999
    9854      Ob       1     SIL   O01mu       1     -1.05    15.999
    9855      Si       1     SIL   Si0tT       1       2.1    28.086
    9856      Si       1     SIL   Si0tU       1       2.1    28.086
    9857      Si       1     SIL   Si0tV       1       2.1    28.086
    9858      Ob       1     SIL   O01mv       1     -1.05    15.999
    9859      Ob       1     SIL   O01mw       1     -1.05    15.999
    9860      Ob       1     SIL   O01mx       1     -1.05    15.999
    9861      Ob       1     SIL   O01my       1     -1.05    15.999
    9862      Ob       1     SIL   O01mz       1     -1.05    15.999
    9863      Ob       1     SIL   O01n0       1     -1.05    15.999
    9864      Si       1     SIL   Si0tW       1       2.1    28.086
    9865      Si       1     SIL   Si0tX       1       2.1    28.086
    9866      Si       1     SIL   Si0tY       1       2.1    28.086
    9867      Ob       1     SIL   O01n1       1     -1.05    15.999
    9868      Ob       1     SIL   O01n2       1     -1.05    15.999
    9869      Ob       1     SIL   O01n3       1     -1.05    15.999
    9870      Ob       1     SIL   O01n4       1     -1.05    15.999
    9871      Ob       1     SIL   O01n5       1     -1.05    15.999
    9872      Ob       1     SIL   O01n6       1     -1.05    15.999
    9873      Si       1     SIL   Si0tZ       1       2.1    28.086
    9874      Si       1     SIL   Si0ta       1       2.1    28.086
    9875      Si       1     SIL   Si0tb       1       2.1    28.086
    9876      Ob       1     SIL   O01n7       1     -1.05    15.999
    9877      Ob       1     SIL   O01n8       1     -1.05    15.999
    9878      Ob       1     SIL   O01n9       1     -1.05    15.999
    9879      Ob       1     SIL   O01nA       1     -1.05    15.999
    9880      Ob       1     SIL   O01nB       1     -1.05    15.999
    9881      Ob       1     SIL   O01nC       1     -1.05    15.999
    9882      Si       1     SIL   Si0tc       1       2.1    28.086
    9883      Si       1     SIL   Si0td       1       2.1    28.086
    9884      Si       1     SIL   Si0te       1       2.1    28.086
    9885      Ob       1     SIL   O01nD       1     -1.05    15.999
    9886       O       1     SIL   O01nE       1    -0.525    15.999
    9887       O       1     SIL   O01nF       1    -0.525    15.999
    9888      Ob       1     SIL   O01nG       1     -1.05    15.999
    9889      Ob       1     SIL   O01nH       1     -1.05    15.999
    9890      Ob       1     SIL   O01nI       1     -1.05    15.999
    9891      Si       1     SIL   Si0tf       1       2.1    28.086
    9892      Si       1     SIL   Si0tg       1       2.1    28.086
    9893      Si       1     SIL   Si0th       1       2.1    28.086
    9894      Ob       1     SIL   O01nJ       1     -1.05    15.999
    9895      Ob       1     SIL   O01nK       1     -1.05    15.999
    9896      Ob       1     SIL   O01nL       1     -1.05    15.999
    9897      Ob       1     SIL   O01nM       1     -1.05    15.999
    9898      Ob       1     SIL   O01nN       1     -1.05    15.999
    9899      Ob       1     SIL   O01nO       1     -1.05    15.999
    9900      Si       1     SIL   Si0ti       1       2.1    28.086
    9901      Si       1     SIL   Si0tj       1       2.1    28.086
    9902      Si       1     SIL   Si0tk       1       2.1    28.086
    9903      Ob       1     SIL   O01nP       1     -1.05    15.999
    9904      Ob       1     SIL   O01nQ       1     -1.05    15.999
    9905      Ob       1     SIL   O01nR       1     -1.05    15.999
    9906      Ob       1     SIL   O01nS       1     -1.05    15.999
    9907      Ob       1     SIL   O01nT       1     -1.05    15.999
    9908      Ob       1     SIL   O01nU       1     -1.05    15.999
    9909      Si       1     SIL   Si0tl       1       2.1    28.086
    9910      Si       1     SIL   Si0tm       1       2.1    28.086
    9911      Si       1     SIL   Si0tn       1       2.1    28.086
    9912      Ob       1     SIL   O01nV       1     -1.05    15.999
    9913      Ob       1     SIL   O01nW       1     -1.05    15.999
    9914      Ob       1     SIL   O01nX       1     -1.05    15.999
    9915      Ob       1     SIL   O01nY       1     -1.05    15.999
    9916      Ob       1     SIL   O01nZ       1     -1.05    15.999
    9917      Ob       1     SIL   O01na       1     -1.05    15.999
    9918      Si       1     SIL   Si0to       1       2.1    28.086
    9919      Si       1     SIL   Si0tp       1       2.1    28.086
    9920      Si       1     SIL   Si0tq       1       2.1    28.086
    9921      Ob       1     SIL   O01nb       1     -1.05    15.999
    9922      Ob       1     SIL   O01nc       1     -1.05    15.999
    9923      Ob       1     SIL   O01nd       1     -1.05    15.999
    9924      Ob       1     SIL   O01ne       1     -1.05    15.999
    9925      Ob       1     SIL   O01nf       1     -1.05    15.999
    9926      Ob       1     SIL   O01ng       1     -1.05    15.999
    9927      Si       1     SIL   Si0tr       1       2.1    28.086
    9928      Si       1     SIL   Si0ts       1       2.1    28.086
    9929      Si       1     SIL   Si0tt       1       2.1    28.086
    9930      Ob       1     SIL   O01nh       1     -1.05    15.999
    9931      Ob       1     SIL   O01ni       1     -1.05    15.999
    9932      Ob       1     SIL   O01nj       1     -1.05    15.999
    9933      Ob       1     SIL   O01nk       1     -1.05    15.999
    9934      Ob       1     SIL   O01nl       1     -1.05    15.999
    9935      Ob       1     SIL   O01nm       1     -1.05    15.999
    9936      Si       1     SIL   Si0tu       1       2.1    28.086
    9937      Si       1     SIL   Si0tv       1       2.1    28.086
    9938      Si       1     SIL   Si0tw       1       2.1    28.086
    9939      Ob       1     SIL   O01nn       1     -1.05    15.999
    9940      Ob       1     SIL   O01no       1     -1.05    15.999
    9941      Ob       1     SIL   O01np       1     -1.05    15.999
    9942      Ob       1     SIL   O01nq       1     -1.05    15.999
    9943      Ob       1     SIL   O01nr       1     -1.05    15.999
    9944      Ob       1     SIL   O01ns       1     -1.05    15.999
    9945      Si       1     SIL   Si0tx       1       2.1    28.086
    9946      Si       1     SIL   Si0ty       1       2.1    28.086
    9947      Si       1     SIL   Si0tz       1       2.1    28.086
    9948      Ob       1     SIL   O01nt       1     -1.05    15.999
    9949      Ob       1     SIL   O01nu       1     -1.05    15.999
    9950      Ob       1     SIL   O01nv       1     -1.05    15.999
    9951      Ob       1     SIL   O01nw       1     -1.05    15.999
    9952      Ob       1     SIL   O01nx       1     -1.05    15.999
    9953      Ob       1     SIL   O01ny       1     -1.05    15.999
    9954      Si       1     SIL   Si0u0       1       2.1    28.086
    9955      Si       1     SIL   Si0u1       1       2.1    28.086
    9956      Si       1     SIL   Si0u2       1       2.1    28.086
    9957      Ob       1     SIL   O01nz       1     -1.05    15.999
    9958      Ob       1     SIL   O01o0       1     -1.05    15.999
    9959      Ob       1     SIL   O01o1       1     -1.05    15.999
    9960      Ob       1     SIL   O01o2       1     -1.05    15.999
    9961      Ob       1     SIL   O01o3       1     -1.05    15.999
    9962      Ob       1     SIL   O01o4       1     -1.05    15.999
    9963      Si       1     SIL   Si0u3       1       2.1    28.086
    9964      Si       1     SIL   Si0u4       1       2.1    28.086
    9965      Si       1     SIL   Si0u5       1       2.1    28.086
    9966      Ob       1     SIL   O01o5       1     -1.05    15.999
    9967      Ob       1     SIL   O01o6       1     -1.05    15.999
    9968      Ob       1     SIL   O01o7       1     -1.05    15.999
    9969      Ob       1     SIL   O01o8       1     -1.05    15.999
    9970      Ob       1     SIL   O01o9       1     -1.05    15.999
    9971      Ob       1     SIL   O01oA       1     -1.05    15.999
    9972      Si       1     SIL   Si0u6       1       2.1    28.086
    9973      Si       1     SIL   Si0u7       1       2.1    28.086
    9974      Si       1     SIL   Si0u8       1       2.1    28.086
    9975      Ob       1     SIL   O01oB       1     -1.05    15.999
    9976      Ob       1     SIL   O01oC       1     -1.05    15.999
    9977      Ob       1     SIL   O01oD       1     -1.05    15.999
    9978      Ob       1     SIL   O01oE       1     -1.05    15.999
    9979      Ob       1     SIL   O01oF       1     -1.05    15.999
    9980      Ob       1     SIL   O01oG       1     -1.05    15.999
    9981      Si       1     SIL   Si0u9       1       2.1    28.086
    9982      Si       1     SIL   Si0uA       1       2.1    28.086
    9983      Si       1     SIL   Si0uB       1       2.1    28.086
    9984      Ob       1     SIL   O01oH       1     -1.05    15.999
    9985      Ob       1     SIL   O01oI       1     -1.05    15.999
    9986      Ob       1     SIL   O01oJ       1     -1.05    15.999
    9987      Ob       1     SIL   O01oK       1     -1.05    15.999
    9988      Ob       1     SIL   O01oL       1     -1.05    15.999
    9989      Ob       1     SIL   O01oM       1     -1.05    15.999
    9990      Si       1     SIL   Si0uC       1       2.1    28.086
    9991      Si       1     SIL   Si0uD       1       2.1    28.086
    9992      Si       1     SIL   Si0uE       1       2.1    28.086
    9993      Ob       1     SIL   O01oN       1     -1.05    15.999
    9994      Ob       1     SIL   O01oO       1     -1.05    15.999
    9995      Ob       1     SIL   O01oP       1     -1.05    15.999
    9996      Ob       1     SIL   O01oQ       1     -1.05    15.999
    9997      Ob       1     SIL   O01oR       1     -1.05    15.999
    9998      Ob       1     SIL   O01oS       1     -1.05    15.999
    9999      Si       1     SIL   Si0uF       1       2.1    28.086
   10000      Si       1     SIL   Si0uG       1       2.1    28.086
   10001      Si       1     SIL   Si0uH       1       2.1    28.086
   10002      Ob       1     SIL   O01oT       1     -1.05    15.999
   10003      Ob       1     SIL   O01oU       1     -1.05    15.999
   10004      Ob       1     SIL   O01oV       1     -1.05    15.999
   10005      Ob       1     SIL   O01oW       1     -1.05    15.999
   10006      Ob       1     SIL   O01oX       1     -1.05    15.999
   10007      Ob       1     SIL   O01oY       1     -1.05    15.999
   10008      Si       1     SIL   Si0uI       1       2.1    28.086
   10009      Si       1     SIL   Si0uJ       1       2.1    28.086
   10010      Si       1     SIL   Si0uK       1       2.1    28.086
   10011      Ob       1     SIL   O01oZ       1     -1.05    15.999
   10012      Ob       1     SIL   O01oa       1     -1.05    15.999
   10013      Ob       1     SIL   O01ob       1     -1.05    15.999
   10014      Ob       1     SIL   O01oc       1     -1.05    15.999
   10015      Ob       1     SIL   O01od       1     -1.05    15.999
   10016      Ob       1     SIL   O01oe       1     -1.05    15.999
   10017      Si       1     SIL   Si0uL       1       2.1    28.086
   10018      Si       1     SIL   Si0uM       1       2.1    28.086
   10019      Si       1     SIL   Si0uN       1       2.1    28.086
   10020      Ob       1     SIL   O01of       1     -1.05    15.999
   10021      Ob       1     SIL   O01og       1     -1.05    15.999
   10022      Ob       1     SIL   O01oh       1     -1.05    15.999
   10023      Ob       1     SIL   O01oi       1     -1.05    15.999
   10024      Ob       1     SIL   O01oj       1     -1.05    15.999
   10025      Ob       1     SIL   O01ok       1     -1.05    15.999
   10026      Si       1     SIL   Si0uO       1       2.1    28.086
   10027      Si       1     SIL   Si0uP       1       2.1    28.086
   10028      Si       1     SIL   Si0uQ       1       2.1    28.086
   10029      Ob       1     SIL   O01ol       1     -1.05    15.999
   10030      Ob       1     SIL   O01om       1     -1.05    15.999
   10031      Ob       1     SIL   O01on       1     -1.05    15.999
   10032      Ob       1     SIL   O01oo       1     -1.05    15.999
   10033      Ob       1     SIL   O01op       1     -1.05    15.999
   10034      Ob       1     SIL   O01oq       1     -1.05    15.999
   10035      Si       1     SIL   Si0uR       1       2.1    28.086
   10036      Si       1     SIL   Si0uS       1       2.1    28.086
   10037      Si       1     SIL   Si0uT       1       2.1    28.086
   10038      Ob       1     SIL   O01or       1     -1.05    15.999
   10039      Ob       1     SIL   O01os       1     -1.05    15.999
   10040      Ob       1     SIL   O01ot       1     -1.05    15.999
   10041      Ob       1     SIL   O01ou       1     -1.05    15.999
   10042      Ob       1     SIL   O01ov       1     -1.05    15.999
   10043      Ob       1     SIL   O01ow       1     -1.05    15.999
   10044      Si       1     SIL   Si0uU       1       2.1    28.086
   10045      Si       1     SIL   Si0uV       1       2.1    28.086
   10046      Si       1     SIL   Si0uW       1       2.1    28.086
   10047      Ob       1     SIL   O01ox       1     -1.05    15.999
   10048      Ob       1     SIL   O01oy       1     -1.05    15.999
   10049      Ob       1     SIL   O01oz       1     -1.05    15.999
   10050      Ob       1     SIL   O01p0       1     -1.05    15.999
   10051      Ob       1     SIL   O01p1       1     -1.05    15.999
   10052      Ob       1     SIL   O01p2       1     -1.05    15.999
   10053      Si       1     SIL   Si0uX       1       2.1    28.086
   10054      Si       1     SIL   Si0uY       1       2.1    28.086
   10055      Si       1     SIL   Si0uZ       1       2.1    28.086
   10056      Ob       1     SIL   O01p3       1     -1.05    15.999
   10057      Ob       1     SIL   O01p4       1     -1.05    15.999
   10058      Ob       1     SIL   O01p5       1     -1.05    15.999
   10059      Ob       1     SIL   O01p6       1     -1.05    15.999
   10060      Ob       1     SIL   O01p7       1     -1.05    15.999
   10061      Ob       1     SIL   O01p8       1     -1.05    15.999
   10062      Si       1     SIL   Si0ua       1       2.1    28.086
   10063      Si       1     SIL   Si0ub       1       2.1    28.086
   10064      Si       1     SIL   Si0uc       1       2.1    28.086
   10065      Ob       1     SIL   O01p9       1     -1.05    15.999
   10066      Ob       1     SIL   O01pA       1     -1.05    15.999
   10067      Ob       1     SIL   O01pB       1     -1.05    15.999
   10068      Ob       1     SIL   O01pC       1     -1.05    15.999
   10069      Ob       1     SIL   O01pD       1     -1.05    15.999
   10070      Ob       1     SIL   O01pE       1     -1.05    15.999
   10071      Si       1     SIL   Si0ud       1       2.1    28.086
   10072      Si       1     SIL   Si0ue       1       2.1    28.086
   10073      Si       1     SIL   Si0uf       1       2.1    28.086
   10074      Ob       1     SIL   O01pF       1     -1.05    15.999
   10075      Ob       1     SIL   O01pG       1     -1.05    15.999
   10076      Ob       1     SIL   O01pH       1     -1.05    15.999
   10077      Ob       1     SIL   O01pI       1     -1.05    15.999
   10078      Ob       1     SIL   O01pJ       1     -1.05    15.999
   10079      Ob       1     SIL   O01pK       1     -1.05    15.999
   10080      Si       1     SIL   Si0ug       1       2.1    28.086
   10081      Si       1     SIL   Si0uh       1       2.1    28.086
   10082      Si       1     SIL   Si0ui       1       2.1    28.086
   10083      Ob       1     SIL   O01pL       1     -1.05    15.999
   10084      Ob       1     SIL   O01pM       1     -1.05    15.999
   10085      Ob       1     SIL   O01pN       1     -1.05    15.999
   10086      Ob       1     SIL   O01pO       1     -1.05    15.999
   10087      Ob       1     SIL   O01pP       1     -1.05    15.999
   10088      Ob       1     SIL   O01pQ       1     -1.05    15.999
   10089      Si       1     SIL   Si0uj       1       2.1    28.086
   10090      Si       1     SIL   Si0uk       1       2.1    28.086
   10091      Si       1     SIL   Si0ul       1       2.1    28.086
   10092      Ob       1     SIL   O01pR       1     -1.05    15.999
   10093       O       1     SIL   O01pS       1    -0.525    15.999
   10094       O       1     SIL   O01pT       1    -0.525    15.999
   10095      Ob       1     SIL   O01pU       1     -1.05    15.999
   10096      Ob       1     SIL   O01pV       1     -1.05    15.999
   10097      Ob       1     SIL   O01pW       1     -1.05    15.999
   10098      Si       1     SIL   Si0um       1       2.1    28.086
   10099      Si       1     SIL   Si0un       1       2.1    28.086
   10100      Si       1     SIL   Si0uo       1       2.1    28.086
   10101      Ob       1     SIL   O01pX       1     -1.05    15.999
   10102      Ob       1     SIL   O01pY       1     -1.05    15.999
   10103      Ob       1     SIL   O01pZ       1     -1.05    15.999
   10104      Ob       1     SIL   O01pa       1     -1.05    15.999
   10105      Ob       1     SIL   O01pb       1     -1.05    15.999
   10106      Ob       1     SIL   O01pc       1     -1.05    15.999
   10107      Si       1     SIL   Si0up       1       2.1    28.086
   10108      Si       1     SIL   Si0uq       1       2.1    28.086
   10109      Si       1     SIL   Si0ur       1       2.1    28.086
   10110      Ob       1     SIL   O01pd       1     -1.05    15.999
   10111      Ob       1     SIL   O01pe       1     -1.05    15.999
   10112      Ob       1     SIL   O01pf       1     -1.05    15.999
   10113      Ob       1     SIL   O01pg       1     -1.05    15.999
   10114      Ob       1     SIL   O01ph       1     -1.05    15.999
   10115      Ob       1     SIL   O01pi       1     -1.05    15.999
   10116      Si       1     SIL   Si0us       1       2.1    28.086
   10117      Si       1     SIL   Si0ut       1       2.1    28.086
   10118      Si       1     SIL   Si0uu       1       2.1    28.086
   10119      Ob       1     SIL   O01pj       1     -1.05    15.999
   10120      Ob       1     SIL   O01pk       1     -1.05    15.999
   10121      Ob       1     SIL   O01pl       1     -1.05    15.999
   10122      Ob       1     SIL   O01pm       1     -1.05    15.999
   10123      Ob       1     SIL   O01pn       1     -1.05    15.999
   10124      Ob       1     SIL   O01po       1     -1.05    15.999
   10125      Si       1     SIL   Si0uv       1       2.1    28.086
   10126      Si       1     SIL   Si0uw       1       2.1    28.086
   10127      Si       1     SIL   Si0ux       1       2.1    28.086
   10128      Ob       1     SIL   O01pp       1     -1.05    15.999
   10129      Ob       1     SIL   O01pq       1     -1.05    15.999
   10130      Ob       1     SIL   O01pr       1     -1.05    15.999
   10131      Ob       1     SIL   O01ps       1     -1.05    15.999
   10132      Ob       1     SIL   O01pt       1     -1.05    15.999
   10133      Ob       1     SIL   O01pu       1     -1.05    15.999
   10134      Si       1     SIL   Si0uy       1       2.1    28.086
   10135      Si       1     SIL   Si0uz       1       2.1    28.086
   10136      Si       1     SIL   Si0v0       1       2.1    28.086
   10137      Ob       1     SIL   O01pv       1     -1.05    15.999
   10138      Ob       1     SIL   O01pw       1     -1.05    15.999
   10139      Ob       1     SIL   O01px       1     -1.05    15.999
   10140      Ob       1     SIL   O01py       1     -1.05    15.999
   10141      Ob       1     SIL   O01pz       1     -1.05    15.999
   10142      Ob       1     SIL   O01q0       1     -1.05    15.999
   10143      Si       1     SIL   Si0v1       1       2.1    28.086
   10144      Si       1     SIL   Si0v2       1       2.1    28.086
   10145      Si       1     SIL   Si0v3       1       2.1    28.086
   10146      Ob       1     SIL   O01q1       1     -1.05    15.999
   10147      Ob       1     SIL   O01q2       1     -1.05    15.999
   10148      Ob       1     SIL   O01q3       1     -1.05    15.999
   10149      Ob       1     SIL   O01q4       1     -1.05    15.999
   10150      Ob       1     SIL   O01q5       1     -1.05    15.999
   10151      Ob       1     SIL   O01q6       1     -1.05    15.999
   10152      Si       1     SIL   Si0v4       1       2.1    28.086
   10153      Si       1     SIL   Si0v5       1       2.1    28.086
   10154      Si       1     SIL   Si0v6       1       2.1    28.086
   10155      Ob       1     SIL   O01q7       1     -1.05    15.999
   10156      Ob       1     SIL   O01q8       1     -1.05    15.999
   10157      Ob       1     SIL   O01q9       1     -1.05    15.999
   10158      Ob       1     SIL   O01qA       1     -1.05    15.999
   10159      Ob       1     SIL   O01qB       1     -1.05    15.999
   10160      Ob       1     SIL   O01qC       1     -1.05    15.999
   10161      Si       1     SIL   Si0v7       1       2.1    28.086
   10162      Si       1     SIL   Si0v8       1       2.1    28.086
   10163      Si       1     SIL   Si0v9       1       2.1    28.086
   10164      Ob       1     SIL   O01qD       1     -1.05    15.999
   10165      Ob       1     SIL   O01qE       1     -1.05    15.999
   10166      Ob       1     SIL   O01qF       1     -1.05    15.999
   10167      Ob       1     SIL   O01qG       1     -1.05    15.999
   10168      Ob       1     SIL   O01qH       1     -1.05    15.999
   10169      Ob       1     SIL   O01qI       1     -1.05    15.999
   10170      Si       1     SIL   Si0vA       1       2.1    28.086
   10171      Si       1     SIL   Si0vB       1       2.1    28.086
   10172      Si       1     SIL   Si0vC       1       2.1    28.086
   10173      Ob       1     SIL   O01qJ       1     -1.05    15.999
   10174      Ob       1     SIL   O01qK       1     -1.05    15.999
   10175      Ob       1     SIL   O01qL       1     -1.05    15.999
   10176      Ob       1     SIL   O01qM       1     -1.05    15.999
   10177      Ob       1     SIL   O01qN       1     -1.05    15.999
   10178      Ob       1     SIL   O01qO       1     -1.05    15.999
   10179      Si       1     SIL   Si0vD       1       2.1    28.086
   10180      Si       1     SIL   Si0vE       1       2.1    28.086
   10181      Si       1     SIL   Si0vF       1       2.1    28.086
   10182      Ob       1     SIL   O01qP       1     -1.05    15.999
   10183      Ob       1     SIL   O01qQ       1     -1.05    15.999
   10184      Ob       1     SIL   O01qR       1     -1.05    15.999
   10185      Ob       1     SIL   O01qS       1     -1.05    15.999
   10186      Ob       1     SIL   O01qT       1     -1.05    15.999
   10187      Ob       1     SIL   O01qU       1     -1.05    15.999
   10188      Si       1     SIL   Si0vG       1       2.1    28.086
   10189      Si       1     SIL   Si0vH       1       2.1    28.086
   10190      Si       1     SIL   Si0vI       1       2.1    28.086
   10191      Ob       1     SIL   O01qV       1     -1.05    15.999
   10192      Ob       1     SIL   O01qW       1     -1.05    15.999
   10193      Ob       1     SIL   O01qX       1     -1.05    15.999
   10194      Ob       1     SIL   O01qY       1     -1.05    15.999
   10195      Ob       1     SIL   O01qZ       1     -1.05    15.999
   10196      Ob       1     SIL   O01qa       1     -1.05    15.999
   10197      Si       1     SIL   Si0vJ       1       2.1    28.086
   10198      Si       1     SIL   Si0vK       1       2.1    28.086
   10199      Si       1     SIL   Si0vL       1       2.1    28.086
   10200      Ob       1     SIL   O01qb       1     -1.05    15.999
   10201      Ob       1     SIL   O01qc       1     -1.05    15.999
   10202      Ob       1     SIL   O01qd       1     -1.05    15.999
   10203      Ob       1     SIL   O01qe       1     -1.05    15.999
   10204      Ob       1     SIL   O01qf       1     -1.05    15.999
   10205      Ob       1     SIL   O01qg       1     -1.05    15.999
   10206      Si       1     SIL   Si0vM       1       2.1    28.086
   10207      Si       1     SIL   Si0vN       1       2.1    28.086
   10208      Si       1     SIL   Si0vO       1       2.1    28.086
   10209      Ob       1     SIL   O01qh       1     -1.05    15.999
   10210      Ob       1     SIL   O01qi       1     -1.05    15.999
   10211      Ob       1     SIL   O01qj       1     -1.05    15.999
   10212      Ob       1     SIL   O01qk       1     -1.05    15.999
   10213      Ob       1     SIL   O01ql       1     -1.05    15.999
   10214      Ob       1     SIL   O01qm       1     -1.05    15.999
   10215      Si       1     SIL   Si0vP       1       2.1    28.086
   10216      Si       1     SIL   Si0vQ       1       2.1    28.086
   10217      Si       1     SIL   Si0vR       1       2.1    28.086
   10218      Ob       1     SIL   O01qn       1     -1.05    15.999
   10219      Ob       1     SIL   O01qo       1     -1.05    15.999
   10220      Ob       1     SIL   O01qp       1     -1.05    15.999
   10221      Ob       1     SIL   O01qq       1     -1.05    15.999
   10222      Ob       1     SIL   O01qr       1     -1.05    15.999
   10223      Ob       1     SIL   O01qs       1     -1.05    15.999
   10224      Si       1     SIL   Si0vS       1       2.1    28.086
   10225      Si       1     SIL   Si0vT       1       2.1    28.086
   10226      Si       1     SIL   Si0vU       1       2.1    28.086
   10227      Ob       1     SIL   O01qt       1     -1.05    15.999
   10228      Ob       1     SIL   O01qu       1     -1.05    15.999
   10229      Ob       1     SIL   O01qv       1     -1.05    15.999
   10230      Ob       1     SIL   O01qw       1     -1.05    15.999
   10231      Ob       1     SIL   O01qx       1     -1.05    15.999
   10232      Ob       1     SIL   O01qy       1     -1.05    15.999
   10233      Si       1     SIL   Si0vV       1       2.1    28.086
   10234      Si       1     SIL   Si0vW       1       2.1    28.086
   10235      Si       1     SIL   Si0vX       1       2.1    28.086
   10236      Ob       1     SIL   O01qz       1     -1.05    15.999
   10237      Ob       1     SIL   O01r0       1     -1.05    15.999
   10238      Ob       1     SIL   O01r1       1     -1.05    15.999
   10239      Ob       1     SIL   O01r2       1     -1.05    15.999
   10240      Ob       1     SIL   O01r3       1     -1.05    15.999
   10241      Ob       1     SIL   O01r4       1     -1.05    15.999
   10242      Si       1     SIL   Si0vY       1       2.1    28.086
   10243      Si       1     SIL   Si0vZ       1       2.1    28.086
   10244      Si       1     SIL   Si0va       1       2.1    28.086
   10245      Ob       1     SIL   O01r5       1     -1.05    15.999
   10246      Ob       1     SIL   O01r6       1     -1.05    15.999
   10247      Ob       1     SIL   O01r7       1     -1.05    15.999
   10248      Ob       1     SIL   O01r8       1     -1.05    15.999
   10249      Ob       1     SIL   O01r9       1     -1.05    15.999
   10250      Ob       1     SIL   O01rA       1     -1.05    15.999
   10251      Si       1     SIL   Si0vb       1       2.1    28.086
   10252      Si       1     SIL   Si0vc       1       2.1    28.086
   10253      Si       1     SIL   Si0vd       1       2.1    28.086
   10254      Ob       1     SIL   O01rB       1     -1.05    15.999
   10255      Ob       1     SIL   O01rC       1     -1.05    15.999
   10256      Ob       1     SIL   O01rD       1     -1.05    15.999
   10257      Ob       1     SIL   O01rE       1     -1.05    15.999
   10258      Ob       1     SIL   O01rF       1     -1.05    15.999
   10259      Ob       1     SIL   O01rG       1     -1.05    15.999
   10260      Si       1     SIL   Si0ve       1       2.1    28.086
   10261      Si       1     SIL   Si0vf       1       2.1    28.086
   10262      Si       1     SIL   Si0vg       1       2.1    28.086
   10263      Ob       1     SIL   O01rH       1     -1.05    15.999
   10264      Ob       1     SIL   O01rI       1     -1.05    15.999
   10265      Ob       1     SIL   O01rJ       1     -1.05    15.999
   10266      Ob       1     SIL   O01rK       1     -1.05    15.999
   10267      Ob       1     SIL   O01rL       1     -1.05    15.999
   10268      Ob       1     SIL   O01rM       1     -1.05    15.999
   10269      Si       1     SIL   Si0vh       1       2.1    28.086
   10270      Si       1     SIL   Si0vi       1       2.1    28.086
   10271      Si       1     SIL   Si0vj       1       2.1    28.086
   10272      Ob       1     SIL   O01rN       1     -1.05    15.999
   10273      Ob       1     SIL   O01rO       1     -1.05    15.999
   10274      Ob       1     SIL   O01rP       1     -1.05    15.999
   10275      Ob       1     SIL   O01rQ       1     -1.05    15.999
   10276      Ob       1     SIL   O01rR       1     -1.05    15.999
   10277      Ob       1     SIL   O01rS       1     -1.05    15.999
   10278      Si       1     SIL   Si0vk       1       2.1    28.086
   10279      Si       1     SIL   Si0vl       1       2.1    28.086
   10280      Si       1     SIL   Si0vm       1       2.1    28.086
   10281      Ob       1     SIL   O01rT       1     -1.05    15.999
   10282      Ob       1     SIL   O01rU       1     -1.05    15.999
   10283      Ob       1     SIL   O01rV       1     -1.05    15.999
   10284      Ob       1     SIL   O01rW       1     -1.05    15.999
   10285      Ob       1     SIL   O01rX       1     -1.05    15.999
   10286      Ob       1     SIL   O01rY       1     -1.05    15.999
   10287      Si       1     SIL   Si0vn       1       2.1    28.086
   10288      Si       1     SIL   Si0vo       1       2.1    28.086
   10289      Si       1     SIL   Si0vp       1       2.1    28.086
   10290      Ob       1     SIL   O01rZ       1     -1.05    15.999
   10291      Ob       1     SIL   O01ra       1     -1.05    15.999
   10292      Ob       1     SIL   O01rb       1     -1.05    15.999
   10293      Ob       1     SIL   O01rc       1     -1.05    15.999
   10294      Ob       1     SIL   O01rd       1     -1.05    15.999
   10295      Ob       1     SIL   O01re       1     -1.05    15.999
   10296      Si       1     SIL   Si0vq       1       2.1    28.086
   10297      Si       1     SIL   Si0vr       1       2.1    28.086
   10298      Si       1     SIL   Si0vs       1       2.1    28.086
   10299      Ob       1     SIL   O01rf       1     -1.05    15.999
   10300       O       1     SIL   O01rg       1    -0.525    15.999
   10301       O       1     SIL   O01rh       1    -0.525    15.999
   10302      Ob       1     SIL   O01ri       1     -1.05    15.999
   10303      Ob       1     SIL   O01rj       1     -1.05    15.999
   10304      Ob       1     SIL   O01rk       1     -1.05    15.999
   10305      Si       1     SIL   Si0vt       1       2.1    28.086
   10306      Si       1     SIL   Si0vu       1       2.1    28.086
   10307      Si       1     SIL   Si0vv       1       2.1    28.086
   10308      Ob       1     SIL   O01rl       1     -1.05    15.999
   10309      Ob       1     SIL   O01rm       1     -1.05    15.999
   10310      Ob       1     SIL   O01rn       1     -1.05    15.999
   10311      Ob       1     SIL   O01ro       1     -1.05    15.999
   10312      Ob       1     SIL   O01rp       1     -1.05    15.999
   10313      Ob       1     SIL   O01rq       1     -1.05    15.999
   10314      Si       1     SIL   Si0vw       1       2.1    28.086
   10315      Si       1     SIL   Si0vx       1       2.1    28.086
   10316      Si       1     SIL   Si0vy       1       2.1    28.086
   10317      Ob       1     SIL   O01rr       1     -1.05    15.999
   10318      Ob       1     SIL   O01rs       1     -1.05    15.999
   10319      Ob       1     SIL   O01rt       1     -1.05    15.999
   10320      Ob       1     SIL   O01ru       1     -1.05    15.999
   10321      Ob       1     SIL   O01rv       1     -1.05    15.999
   10322      Ob       1     SIL   O01rw       1     -1.05    15.999
   10323      Si       1     SIL   Si0vz       1       2.1    28.086
   10324      Si       1     SIL   Si0w0       1       2.1    28.086
   10325      Si       1     SIL   Si0w1       1       2.1    28.086
   10326      Ob       1     SIL   O01rx       1     -1.05    15.999
   10327      Ob       1     SIL   O01ry       1     -1.05    15.999
   10328      Ob       1     SIL   O01rz       1     -1.05    15.999
   10329      Ob       1     SIL   O01s0       1     -1.05    15.999
   10330      Ob       1     SIL   O01s1       1     -1.05    15.999
   10331      Ob       1     SIL   O01s2       1     -1.05    15.999
   10332      Si       1     SIL   Si0w2       1       2.1    28.086
   10333      Si       1     SIL   Si0w3       1       2.1    28.086
   10334      Si       1     SIL   Si0w4       1       2.1    28.086
   10335      Ob       1     SIL   O01s3       1     -1.05    15.999
   10336      Ob       1     SIL   O01s4       1     -1.05    15.999
   10337      Ob       1     SIL   O01s5       1     -1.05    15.999
   10338      Ob       1     SIL   O01s6       1     -1.05    15.999
   10339      Ob       1     SIL   O01s7       1     -1.05    15.999
   10340      Ob       1     SIL   O01s8       1     -1.05    15.999
   10341      Si       1     SIL   Si0w5       1       2.1    28.086
   10342      Si       1     SIL   Si0w6       1       2.1    28.086
   10343      Si       1     SIL   Si0w7       1       2.1    28.086
   10344      Ob       1     SIL   O01s9       1     -1.05    15.999
   10345      Ob       1     SIL   O01sA       1     -1.05    15.999
   10346      Ob       1     SIL   O01sB       1     -1.05    15.999
   10347      Ob       1     SIL   O01sC       1     -1.05    15.999
   10348      Ob       1     SIL   O01sD       1     -1.05    15.999
   10349      Ob       1     SIL   O01sE       1     -1.05    15.999
   10350      Si       1     SIL   Si0w8       1       2.1    28.086
   10351      Si       1     SIL   Si0w9       1       2.1    28.086
   10352      Si       1     SIL   Si0wA       1       2.1    28.086
   10353      Ob       1     SIL   O01sF       1     -1.05    15.999
   10354      Ob       1     SIL   O01sG       1     -1.05    15.999
   10355      Ob       1     SIL   O01sH       1     -1.05    15.999
   10356      Ob       1     SIL   O01sI       1     -1.05    15.999
   10357      Ob       1     SIL   O01sJ       1     -1.05    15.999
   10358      Ob       1     SIL   O01sK       1     -1.05    15.999
   10359      Si       1     SIL   Si0wB       1       2.1    28.086
   10360      Si       1     SIL   Si0wC       1       2.1    28.086
   10361      Si       1     SIL   Si0wD       1       2.1    28.086
   10362      Ob       1     SIL   O01sL       1     -1.05    15.999
   10363      Ob       1     SIL   O01sM       1     -1.05    15.999
   10364      Ob       1     SIL   O01sN       1     -1.05    15.999
   10365      Ob       1     SIL   O01sO       1     -1.05    15.999
   10366      Ob       1     SIL   O01sP       1     -1.05    15.999
   10367      Ob       1     SIL   O01sQ       1     -1.05    15.999
   10368      Si       1     SIL   Si0wE       1       2.1    28.086
   10369      Si       1     SIL   Si0wF       1       2.1    28.086
   10370      Si       1     SIL   Si0wG       1       2.1    28.086
   10371      Ob       1     SIL   O01sR       1     -1.05    15.999
   10372      Ob       1     SIL   O01sS       1     -1.05    15.999
   10373      Ob       1     SIL   O01sT       1     -1.05    15.999
   10374      Ob       1     SIL   O01sU       1     -1.05    15.999
   10375      Ob       1     SIL   O01sV       1     -1.05    15.999
   10376      Ob       1     SIL   O01sW       1     -1.05    15.999
   10377      Si       1     SIL   Si0wH       1       2.1    28.086
   10378      Si       1     SIL   Si0wI       1       2.1    28.086
   10379      Si       1     SIL   Si0wJ       1       2.1    28.086
   10380      Ob       1     SIL   O01sX       1     -1.05    15.999
   10381      Ob       1     SIL   O01sY       1     -1.05    15.999
   10382      Ob       1     SIL   O01sZ       1     -1.05    15.999
   10383      Ob       1     SIL   O01sa       1     -1.05    15.999
   10384      Ob       1     SIL   O01sb       1     -1.05    15.999
   10385      Ob       1     SIL   O01sc       1     -1.05    15.999
   10386      Si       1     SIL   Si0wK       1       2.1    28.086
   10387      Si       1     SIL   Si0wL       1       2.1    28.086
   10388      Si       1     SIL   Si0wM       1       2.1    28.086
   10389      Ob       1     SIL   O01sd       1     -1.05    15.999
   10390      Ob       1     SIL   O01se       1     -1.05    15.999
   10391      Ob       1     SIL   O01sf       1     -1.05    15.999
   10392      Ob       1     SIL   O01sg       1     -1.05    15.999
   10393      Ob       1     SIL   O01sh       1     -1.05    15.999
   10394      Ob       1     SIL   O01si       1     -1.05    15.999
   10395      Si       1     SIL   Si0wN       1       2.1    28.086
   10396      Si       1     SIL   Si0wO       1       2.1    28.086
   10397      Si       1     SIL   Si0wP       1       2.1    28.086
   10398      Ob       1     SIL   O01sj       1     -1.05    15.999
   10399      Ob       1     SIL   O01sk       1     -1.05    15.999
   10400      Ob       1     SIL   O01sl       1     -1.05    15.999
   10401      Ob       1     SIL   O01sm       1     -1.05    15.999
   10402      Ob       1     SIL   O01sn       1     -1.05    15.999
   10403      Ob       1     SIL   O01so       1     -1.05    15.999
   10404      Si       1     SIL   Si0wQ       1       2.1    28.086
   10405      Si       1     SIL   Si0wR       1       2.1    28.086
   10406      Si       1     SIL   Si0wS       1       2.1    28.086
   10407      Ob       1     SIL   O01sp       1     -1.05    15.999
   10408      Ob       1     SIL   O01sq       1     -1.05    15.999
   10409      Ob       1     SIL   O01sr       1     -1.05    15.999
   10410      Ob       1     SIL   O01ss       1     -1.05    15.999
   10411      Ob       1     SIL   O01st       1     -1.05    15.999
   10412      Ob       1     SIL   O01su       1     -1.05    15.999
   10413      Si       1     SIL   Si0wT       1       2.1    28.086
   10414      Si       1     SIL   Si0wU       1       2.1    28.086
   10415      Si       1     SIL   Si0wV       1       2.1    28.086
   10416      Ob       1     SIL   O01sv       1     -1.05    15.999
   10417      Ob       1     SIL   O01sw       1     -1.05    15.999
   10418      Ob       1     SIL   O01sx       1     -1.05    15.999
   10419      Ob       1     SIL   O01sy       1     -1.05    15.999
   10420      Ob       1     SIL   O01sz       1     -1.05    15.999
   10421      Ob       1     SIL   O01t0       1     -1.05    15.999
   10422      Si       1     SIL   Si0wW       1       2.1    28.086
   10423      Si       1     SIL   Si0wX       1       2.1    28.086
   10424      Si       1     SIL   Si0wY       1       2.1    28.086
   10425      Ob       1     SIL   O01t1       1     -1.05    15.999
   10426      Ob       1     SIL   O01t2       1     -1.05    15.999
   10427      Ob       1     SIL   O01t3       1     -1.05    15.999
   10428      Ob       1     SIL   O01t4       1     -1.05    15.999
   10429      Ob       1     SIL   O01t5       1     -1.05    15.999
   10430      Ob       1     SIL   O01t6       1     -1.05    15.999
   10431      Si       1     SIL   Si0wZ       1       2.1    28.086
   10432      Si       1     SIL   Si0wa       1       2.1    28.086
   10433      Si       1     SIL   Si0wb       1       2.1    28.086
   10434      Ob       1     SIL   O01t7       1     -1.05    15.999
   10435      Ob       1     SIL   O01t8       1     -1.05    15.999
   10436      Ob       1     SIL   O01t9       1     -1.05    15.999
   10437      Ob       1     SIL   O01tA       1     -1.05    15.999
   10438      Ob       1     SIL   O01tB       1     -1.05    15.999
   10439      Ob       1     SIL   O01tC       1     -1.05    15.999
   10440      Si       1     SIL   Si0wc       1       2.1    28.086
   10441      Si       1     SIL   Si0wd       1       2.1    28.086
   10442      Si       1     SIL   Si0we       1       2.1    28.086
   10443      Ob       1     SIL   O01tD       1     -1.05    15.999
   10444      Ob       1     SIL   O01tE       1     -1.05    15.999
   10445      Ob       1     SIL   O01tF       1     -1.05    15.999
   10446      Ob       1     SIL   O01tG       1     -1.05    15.999
   10447      Ob       1     SIL   O01tH       1     -1.05    15.999
   10448      Ob       1     SIL   O01tI       1     -1.05    15.999
   10449      Si       1     SIL   Si0wf       1       2.1    28.086
   10450      Si       1     SIL   Si0wg       1       2.1    28.086
   10451      Si       1     SIL   Si0wh       1       2.1    28.086
   10452      Ob       1     SIL   O01tJ       1     -1.05    15.999
   10453      Ob       1     SIL   O01tK       1     -1.05    15.999
   10454      Ob       1     SIL   O01tL       1     -1.05    15.999
   10455      Ob       1     SIL   O01tM       1     -1.05    15.999
   10456      Ob       1     SIL   O01tN       1     -1.05    15.999
   10457      Ob       1     SIL   O01tO       1     -1.05    15.999
   10458      Si       1     SIL   Si0wi       1       2.1    28.086
   10459      Si       1     SIL   Si0wj       1       2.1    28.086
   10460      Si       1     SIL   Si0wk       1       2.1    28.086
   10461      Ob       1     SIL   O01tP       1     -1.05    15.999
   10462      Ob       1     SIL   O01tQ       1     -1.05    15.999
   10463      Ob       1     SIL   O01tR       1     -1.05    15.999
   10464      Ob       1     SIL   O01tS       1     -1.05    15.999
   10465      Ob       1     SIL   O01tT       1     -1.05    15.999
   10466      Ob       1     SIL   O01tU       1     -1.05    15.999
   10467      Si       1     SIL   Si0wl       1       2.1    28.086
   10468      Si       1     SIL   Si0wm       1       2.1    28.086
   10469      Si       1     SIL   Si0wn       1       2.1    28.086
   10470      Ob       1     SIL   O01tV       1     -1.05    15.999
   10471      Ob       1     SIL   O01tW       1     -1.05    15.999
   10472      Ob       1     SIL   O01tX       1     -1.05    15.999
   10473      Ob       1     SIL   O01tY       1     -1.05    15.999
   10474      Ob       1     SIL   O01tZ       1     -1.05    15.999
   10475      Ob       1     SIL   O01ta       1     -1.05    15.999
   10476      Si       1     SIL   Si0wo       1       2.1    28.086
   10477      Si       1     SIL   Si0wp       1       2.1    28.086
   10478      Si       1     SIL   Si0wq       1       2.1    28.086
   10479      Ob       1     SIL   O01tb       1     -1.05    15.999
   10480      Ob       1     SIL   O01tc       1     -1.05    15.999
   10481      Ob       1     SIL   O01td       1     -1.05    15.999
   10482      Ob       1     SIL   O01te       1     -1.05    15.999
   10483      Ob       1     SIL   O01tf       1     -1.05    15.999
   10484      Ob       1     SIL   O01tg       1     -1.05    15.999
   10485      Si       1     SIL   Si0wr       1       2.1    28.086
   10486      Si       1     SIL   Si0ws       1       2.1    28.086
   10487      Si       1     SIL   Si0wt       1       2.1    28.086
   10488      Ob       1     SIL   O01th       1     -1.05    15.999
   10489      Ob       1     SIL   O01ti       1     -1.05    15.999
   10490      Ob       1     SIL   O01tj       1     -1.05    15.999
   10491      Ob       1     SIL   O01tk       1     -1.05    15.999
   10492      Ob       1     SIL   O01tl       1     -1.05    15.999
   10493      Ob       1     SIL   O01tm       1     -1.05    15.999
   10494      Si       1     SIL   Si0wu       1       2.1    28.086
   10495      Si       1     SIL   Si0wv       1       2.1    28.086
   10496      Si       1     SIL   Si0ww       1       2.1    28.086
   10497      Ob       1     SIL   O01tn       1     -1.05    15.999
   10498      Ob       1     SIL   O01to       1     -1.05    15.999
   10499      Ob       1     SIL   O01tp       1     -1.05    15.999
   10500      Ob       1     SIL   O01tq       1     -1.05    15.999
   10501      Ob       1     SIL   O01tr       1     -1.05    15.999
   10502      Ob       1     SIL   O01ts       1     -1.05    15.999
   10503      Si       1     SIL   Si0wx       1       2.1    28.086
   10504      Si       1     SIL   Si0wy       1       2.1    28.086
   10505      Si       1     SIL   Si0wz       1       2.1    28.086
   10506      Ob       1     SIL   O01tt       1     -1.05    15.999
   10507       O       1     SIL   O01tu       1    -0.525    15.999
   10508       O       1     SIL   O01tv       1    -0.525    15.999
   10509      Ob       1     SIL   O01tw       1     -1.05    15.999
   10510      Ob       1     SIL   O01tx       1     -1.05    15.999
   10511      Ob       1     SIL   O01ty       1     -1.05    15.999
   10512      Si       1     SIL   Si0x0       1       2.1    28.086
   10513      Si       1     SIL   Si0x1       1       2.1    28.086
   10514      Si       1     SIL   Si0x2       1       2.1    28.086
   10515      Ob       1     SIL   O01tz       1     -1.05    15.999
   10516      Ob       1     SIL   O01u0       1     -1.05    15.999
   10517      Ob       1     SIL   O01u1       1     -1.05    15.999
   10518      Ob       1     SIL   O01u2       1     -1.05    15.999
   10519      Ob       1     SIL   O01u3       1     -1.05    15.999
   10520      Ob       1     SIL   O01u4       1     -1.05    15.999
   10521      Si       1     SIL   Si0x3       1       2.1    28.086
   10522      Si       1     SIL   Si0x4       1       2.1    28.086
   10523      Si       1     SIL   Si0x5       1       2.1    28.086
   10524      Ob       1     SIL   O01u5       1     -1.05    15.999
   10525      Ob       1     SIL   O01u6       1     -1.05    15.999
   10526      Ob       1     SIL   O01u7       1     -1.05    15.999
   10527      Ob       1     SIL   O01u8       1     -1.05    15.999
   10528      Ob       1     SIL   O01u9       1     -1.05    15.999
   10529      Ob       1     SIL   O01uA       1     -1.05    15.999
   10530      Si       1     SIL   Si0x6       1       2.1    28.086
   10531      Si       1     SIL   Si0x7       1       2.1    28.086
   10532      Si       1     SIL   Si0x8       1       2.1    28.086
   10533      Ob       1     SIL   O01uB       1     -1.05    15.999
   10534      Ob       1     SIL   O01uC       1     -1.05    15.999
   10535      Ob       1     SIL   O01uD       1     -1.05    15.999
   10536      Ob       1     SIL   O01uE       1     -1.05    15.999
   10537      Ob       1     SIL   O01uF       1     -1.05    15.999
   10538      Ob       1     SIL   O01uG       1     -1.05    15.999
   10539      Si       1     SIL   Si0x9       1       2.1    28.086
   10540      Si       1     SIL   Si0xA       1       2.1    28.086
   10541      Si       1     SIL   Si0xB       1       2.1    28.086
   10542      Ob       1     SIL   O01uH       1     -1.05    15.999
   10543      Ob       1     SIL   O01uI       1     -1.05    15.999
   10544      Ob       1     SIL   O01uJ       1     -1.05    15.999
   10545      Ob       1     SIL   O01uK       1     -1.05    15.999
   10546      Ob       1     SIL   O01uL       1     -1.05    15.999
   10547      Ob       1     SIL   O01uM       1     -1.05    15.999
   10548      Si       1     SIL   Si0xC       1       2.1    28.086
   10549      Si       1     SIL   Si0xD       1       2.1    28.086
   10550      Si       1     SIL   Si0xE       1       2.1    28.086
   10551      Ob       1     SIL   O01uN       1     -1.05    15.999
   10552      Ob       1     SIL   O01uO       1     -1.05    15.999
   10553      Ob       1     SIL   O01uP       1     -1.05    15.999
   10554      Ob       1     SIL   O01uQ       1     -1.05    15.999
   10555      Ob       1     SIL   O01uR       1     -1.05    15.999
   10556      Ob       1     SIL   O01uS       1     -1.05    15.999
   10557      Si       1     SIL   Si0xF       1       2.1    28.086
   10558      Si       1     SIL   Si0xG       1       2.1    28.086
   10559      Si       1     SIL   Si0xH       1       2.1    28.086
   10560      Ob       1     SIL   O01uT       1     -1.05    15.999
   10561      Ob       1     SIL   O01uU       1     -1.05    15.999
   10562      Ob       1     SIL   O01uV       1     -1.05    15.999
   10563      Ob       1     SIL   O01uW       1     -1.05    15.999
   10564      Ob       1     SIL   O01uX       1     -1.05    15.999
   10565      Ob       1     SIL   O01uY       1     -1.05    15.999
   10566      Si       1     SIL   Si0xI       1       2.1    28.086
   10567      Si       1     SIL   Si0xJ       1       2.1    28.086
   10568      Si       1     SIL   Si0xK       1       2.1    28.086
   10569      Ob       1     SIL   O01uZ       1     -1.05    15.999
   10570      Ob       1     SIL   O01ua       1     -1.05    15.999
   10571      Ob       1     SIL   O01ub       1     -1.05    15.999
   10572      Ob       1     SIL   O01uc       1     -1.05    15.999
   10573      Ob       1     SIL   O01ud       1     -1.05    15.999
   10574      Ob       1     SIL   O01ue       1     -1.05    15.999
   10575      Si       1     SIL   Si0xL       1       2.1    28.086
   10576      Si       1     SIL   Si0xM       1       2.1    28.086
   10577      Si       1     SIL   Si0xN       1       2.1    28.086
   10578      Ob       1     SIL   O01uf       1     -1.05    15.999
   10579      Ob       1     SIL   O01ug       1     -1.05    15.999
   10580      Ob       1     SIL   O01uh       1     -1.05    15.999
   10581      Ob       1     SIL   O01ui       1     -1.05    15.999
   10582      Ob       1     SIL   O01uj       1     -1.05    15.999
   10583      Ob       1     SIL   O01uk       1     -1.05    15.999
   10584      Si       1     SIL   Si0xO       1       2.1    28.086
   10585      Si       1     SIL   Si0xP       1       2.1    28.086
   10586      Si       1     SIL   Si0xQ       1       2.1    28.086
   10587      Ob       1     SIL   O01ul       1     -1.05    15.999
   10588      Ob       1     SIL   O01um       1     -1.05    15.999
   10589      Ob       1     SIL   O01un       1     -1.05    15.999
   10590      Ob       1     SIL   O01uo       1     -1.05    15.999
   10591      Ob       1     SIL   O01up       1     -1.05    15.999
   10592      Ob       1     SIL   O01uq       1     -1.05    15.999
   10593      Si       1     SIL   Si0xR       1       2.1    28.086
   10594      Si       1     SIL   Si0xS       1       2.1    28.086
   10595      Si       1     SIL   Si0xT       1       2.1    28.086
   10596      Ob       1     SIL   O01ur       1     -1.05    15.999
   10597      Ob       1     SIL   O01us       1     -1.05    15.999
   10598      Ob       1     SIL   O01ut       1     -1.05    15.999
   10599      Ob       1     SIL   O01uu       1     -1.05    15.999
   10600      Ob       1     SIL   O01uv       1     -1.05    15.999
   10601      Ob       1     SIL   O01uw       1     -1.05    15.999
   10602      Si       1     SIL   Si0xU       1       2.1    28.086
   10603      Si       1     SIL   Si0xV       1       2.1    28.086
   10604      Si       1     SIL   Si0xW       1       2.1    28.086
   10605      Ob       1     SIL   O01ux       1     -1.05    15.999
   10606      Ob       1     SIL   O01uy       1     -1.05    15.999
   10607      Ob       1     SIL   O01uz       1     -1.05    15.999
   10608      Ob       1     SIL   O01v0       1     -1.05    15.999
   10609      Ob       1     SIL   O01v1       1     -1.05    15.999
   10610      Ob       1     SIL   O01v2       1     -1.05    15.999
   10611      Si       1     SIL   Si0xX       1       2.1    28.086
   10612      Si       1     SIL   Si0xY       1       2.1    28.086
   10613      Si       1     SIL   Si0xZ       1       2.1    28.086
   10614      Ob       1     SIL   O01v3       1     -1.05    15.999
   10615      Ob       1     SIL   O01v4       1     -1.05    15.999
   10616      Ob       1     SIL   O01v5       1     -1.05    15.999
   10617      Ob       1     SIL   O01v6       1     -1.05    15.999
   10618      Ob       1     SIL   O01v7       1     -1.05    15.999
   10619      Ob       1     SIL   O01v8       1     -1.05    15.999
   10620      Si       1     SIL   Si0xa       1       2.1    28.086
   10621      Si       1     SIL   Si0xb       1       2.1    28.086
   10622      Si       1     SIL   Si0xc       1       2.1    28.086
   10623      Ob       1     SIL   O01v9       1     -1.05    15.999
   10624      Ob       1     SIL   O01vA       1     -1.05    15.999
   10625      Ob       1     SIL   O01vB       1     -1.05    15.999
   10626      Ob       1     SIL   O01vC       1     -1.05    15.999
   10627      Ob       1     SIL   O01vD       1     -1.05    15.999
   10628      Ob       1     SIL   O01vE       1     -1.05    15.999
   10629      Si       1     SIL   Si0xd       1       2.1    28.086
   10630      Si       1     SIL   Si0xe       1       2.1    28.086
   10631      Si       1     SIL   Si0xf       1       2.1    28.086
   10632      Ob       1     SIL   O01vF       1     -1.05    15.999
   10633      Ob       1     SIL   O01vG       1     -1.05    15.999
   10634      Ob       1     SIL   O01vH       1     -1.05    15.999
   10635      Ob       1     SIL   O01vI       1     -1.05    15.999
   10636      Ob       1     SIL   O01vJ       1     -1.05    15.999
   10637      Ob       1     SIL   O01vK       1     -1.05    15.999
   10638      Si       1     SIL   Si0xg       1       2.1    28.086
   10639      Si       1     SIL   Si0xh       1       2.1    28.086
   10640      Si       1     SIL   Si0xi       1       2.1    28.086
   10641      Ob       1     SIL   O01vL       1     -1.05    15.999
   10642      Ob       1     SIL   O01vM       1     -1.05    15.999
   10643      Ob       1     SIL   O01vN       1     -1.05    15.999
   10644      Ob       1     SIL   O01vO       1     -1.05    15.999
   10645      Ob       1     SIL   O01vP       1     -1.05    15.999
   10646      Ob       1     SIL   O01vQ       1     -1.05    15.999
   10647      Si       1     SIL   Si0xj       1       2.1    28.086
   10648      Si       1     SIL   Si0xk       1       2.1    28.086
   10649      Si       1     SIL   Si0xl       1       2.1    28.086
   10650      Ob       1     SIL   O01vR       1     -1.05    15.999
   10651      Ob       1     SIL   O01vS       1     -1.05    15.999
   10652      Ob       1     SIL   O01vT       1     -1.05    15.999
   10653      Ob       1     SIL   O01vU       1     -1.05    15.999
   10654      Ob       1     SIL   O01vV       1     -1.05    15.999
   10655      Ob       1     SIL   O01vW       1     -1.05    15.999
   10656      Si       1     SIL   Si0xm       1       2.1    28.086
   10657      Si       1     SIL   Si0xn       1       2.1    28.086
   10658      Si       1     SIL   Si0xo       1       2.1    28.086
   10659      Ob       1     SIL   O01vX       1     -1.05    15.999
   10660      Ob       1     SIL   O01vY       1     -1.05    15.999
   10661      Ob       1     SIL   O01vZ       1     -1.05    15.999
   10662      Ob       1     SIL   O01va       1     -1.05    15.999
   10663      Ob       1     SIL   O01vb       1     -1.05    15.999
   10664      Ob       1     SIL   O01vc       1     -1.05    15.999
   10665      Si       1     SIL   Si0xp       1       2.1    28.086
   10666      Si       1     SIL   Si0xq       1       2.1    28.086
   10667      Si       1     SIL   Si0xr       1       2.1    28.086
   10668      Ob       1     SIL   O01vd       1     -1.05    15.999
   10669      Ob       1     SIL   O01ve       1     -1.05    15.999
   10670      Ob       1     SIL   O01vf       1     -1.05    15.999
   10671      Ob       1     SIL   O01vg       1     -1.05    15.999
   10672      Ob       1     SIL   O01vh       1     -1.05    15.999
   10673      Ob       1     SIL   O01vi       1     -1.05    15.999
   10674      Si       1     SIL   Si0xs       1       2.1    28.086
   10675      Si       1     SIL   Si0xt       1       2.1    28.086
   10676      Si       1     SIL   Si0xu       1       2.1    28.086
   10677      Ob       1     SIL   O01vj       1     -1.05    15.999
   10678      Ob       1     SIL   O01vk       1     -1.05    15.999
   10679      Ob       1     SIL   O01vl       1     -1.05    15.999
   10680      Ob       1     SIL   O01vm       1     -1.05    15.999
   10681      Ob       1     SIL   O01vn       1     -1.05    15.999
   10682      Ob       1     SIL   O01vo       1     -1.05    15.999
   10683      Si       1     SIL   Si0xv       1       2.1    28.086
   10684      Si       1     SIL   Si0xw       1       2.1    28.086
   10685      Si       1     SIL   Si0xx       1       2.1    28.086
   10686      Ob       1     SIL   O01vp       1     -1.05    15.999
   10687      Ob       1     SIL   O01vq       1     -1.05    15.999
   10688      Ob       1     SIL   O01vr       1     -1.05    15.999
   10689      Ob       1     SIL   O01vs       1     -1.05    15.999
   10690      Ob       1     SIL   O01vt       1     -1.05    15.999
   10691      Ob       1     SIL   O01vu       1     -1.05    15.999
   10692      Si       1     SIL   Si0xy       1       2.1    28.086
   10693      Si       1     SIL   Si0xz       1       2.1    28.086
   10694      Si       1     SIL   Si0y0       1       2.1    28.086
   10695      Ob       1     SIL   O01vv       1     -1.05    15.999
   10696      Ob       1     SIL   O01vw       1     -1.05    15.999
   10697      Ob       1     SIL   O01vx       1     -1.05    15.999
   10698      Ob       1     SIL   O01vy       1     -1.05    15.999
   10699      Ob       1     SIL   O01vz       1     -1.05    15.999
   10700      Ob       1     SIL   O01w0       1     -1.05    15.999
   10701      Si       1     SIL   Si0y1       1       2.1    28.086
   10702      Si       1     SIL   Si0y2       1       2.1    28.086
   10703      Si       1     SIL   Si0y3       1       2.1    28.086
   10704      Ob       1     SIL   O01w1       1     -1.05    15.999
   10705      Ob       1     SIL   O01w2       1     -1.05    15.999
   10706      Ob       1     SIL   O01w3       1     -1.05    15.999
   10707      Ob       1     SIL   O01w4       1     -1.05    15.999
   10708      Ob       1     SIL   O01w5       1     -1.05    15.999
   10709      Ob       1     SIL   O01w6       1     -1.05    15.999
   10710      Si       1     SIL   Si0y4       1       2.1    28.086
   10711      Si       1     SIL   Si0y5       1       2.1    28.086
   10712      Si       1     SIL   Si0y6       1       2.1    28.086
   10713      Ob       1     SIL   O01w7       1     -1.05    15.999
   10714       O       1     SIL   O01w8       1    -0.525    15.999
   10715       O       1     SIL   O01w9       1    -0.525    15.999
   10716      Ob       1     SIL   O01wA       1     -1.05    15.999
   10717      Ob       1     SIL   O01wB       1     -1.05    15.999
   10718      Ob       1     SIL   O01wC       1     -1.05    15.999
   10719      Si       1     SIL   Si0y7       1       2.1    28.086
   10720      Si       1     SIL   Si0y8       1       2.1    28.086
   10721      Si       1     SIL   Si0y9       1       2.1    28.086
   10722      Ob       1     SIL   O01wD       1     -1.05    15.999
   10723      Ob       1     SIL   O01wE       1     -1.05    15.999
   10724      Ob       1     SIL   O01wF       1     -1.05    15.999
   10725      Ob       1     SIL   O01wG       1     -1.05    15.999
   10726      Ob       1     SIL   O01wH       1     -1.05    15.999
   10727      Ob       1     SIL   O01wI       1     -1.05    15.999
   10728      Si       1     SIL   Si0yA       1       2.1    28.086
   10729      Si       1     SIL   Si0yB       1       2.1    28.086
   10730      Si       1     SIL   Si0yC       1       2.1    28.086
   10731      Ob       1     SIL   O01wJ       1     -1.05    15.999
   10732      Ob       1     SIL   O01wK       1     -1.05    15.999
   10733      Ob       1     SIL   O01wL       1     -1.05    15.999
   10734      Ob       1     SIL   O01wM       1     -1.05    15.999
   10735      Ob       1     SIL   O01wN       1     -1.05    15.999
   10736      Ob       1     SIL   O01wO       1     -1.05    15.999
   10737      Si       1     SIL   Si0yD       1       2.1    28.086
   10738      Si       1     SIL   Si0yE       1       2.1    28.086
   10739      Si       1     SIL   Si0yF       1       2.1    28.086
   10740      Ob       1     SIL   O01wP       1     -1.05    15.999
   10741      Ob       1     SIL   O01wQ       1     -1.05    15.999
   10742      Ob       1     SIL   O01wR       1     -1.05    15.999
   10743      Ob       1     SIL   O01wS       1     -1.05    15.999
   10744      Ob       1     SIL   O01wT       1     -1.05    15.999
   10745      Ob       1     SIL   O01wU       1     -1.05    15.999
   10746      Si       1     SIL   Si0yG       1       2.1    28.086
   10747      Si       1     SIL   Si0yH       1       2.1    28.086
   10748      Si       1     SIL   Si0yI       1       2.1    28.086
   10749      Ob       1     SIL   O01wV       1     -1.05    15.999
   10750      Ob       1     SIL   O01wW       1     -1.05    15.999
   10751      Ob       1     SIL   O01wX       1     -1.05    15.999
   10752      Ob       1     SIL   O01wY       1     -1.05    15.999
   10753      Ob       1     SIL   O01wZ       1     -1.05    15.999
   10754      Ob       1     SIL   O01wa       1     -1.05    15.999
   10755      Si       1     SIL   Si0yJ       1       2.1    28.086
   10756      Si       1     SIL   Si0yK       1       2.1    28.086
   10757      Si       1     SIL   Si0yL       1       2.1    28.086
   10758      Ob       1     SIL   O01wb       1     -1.05    15.999
   10759      Ob       1     SIL   O01wc       1     -1.05    15.999
   10760      Ob       1     SIL   O01wd       1     -1.05    15.999
   10761      Ob       1     SIL   O01we       1     -1.05    15.999
   10762      Ob       1     SIL   O01wf       1     -1.05    15.999
   10763      Ob       1     SIL   O01wg       1     -1.05    15.999
   10764      Si       1     SIL   Si0yM       1       2.1    28.086
   10765      Si       1     SIL   Si0yN       1       2.1    28.086
   10766      Si       1     SIL   Si0yO       1       2.1    28.086
   10767      Ob       1     SIL   O01wh       1     -1.05    15.999
   10768      Ob       1     SIL   O01wi       1     -1.05    15.999
   10769      Ob       1     SIL   O01wj       1     -1.05    15.999
   10770      Ob       1     SIL   O01wk       1     -1.05    15.999
   10771      Ob       1     SIL   O01wl       1     -1.05    15.999
   10772      Ob       1     SIL   O01wm       1     -1.05    15.999
   10773      Si       1     SIL   Si0yP       1       2.1    28.086
   10774      Si       1     SIL   Si0yQ       1       2.1    28.086
   10775      Si       1     SIL   Si0yR       1       2.1    28.086
   10776      Ob       1     SIL   O01wn       1     -1.05    15.999
   10777      Ob       1     SIL   O01wo       1     -1.05    15.999
   10778      Ob       1     SIL   O01wp       1     -1.05    15.999
   10779      Ob       1     SIL   O01wq       1     -1.05    15.999
   10780      Ob       1     SIL   O01wr       1     -1.05    15.999
   10781      Ob       1     SIL   O01ws       1     -1.05    15.999
   10782      Si       1     SIL   Si0yS       1       2.1    28.086
   10783      Si       1     SIL   Si0yT       1       2.1    28.086
   10784      Si       1     SIL   Si0yU       1       2.1    28.086
   10785      Ob       1     SIL   O01wt       1     -1.05    15.999
   10786      Ob       1     SIL   O01wu       1     -1.05    15.999
   10787      Ob       1     SIL   O01wv       1     -1.05    15.999
   10788      Ob       1     SIL   O01ww       1     -1.05    15.999
   10789      Ob       1     SIL   O01wx       1     -1.05    15.999
   10790      Ob       1     SIL   O01wy       1     -1.05    15.999
   10791      Si       1     SIL   Si0yV       1       2.1    28.086
   10792      Si       1     SIL   Si0yW       1       2.1    28.086
   10793      Si       1     SIL   Si0yX       1       2.1    28.086
   10794      Ob       1     SIL   O01wz       1     -1.05    15.999
   10795      Ob       1     SIL   O01x0       1     -1.05    15.999
   10796      Ob       1     SIL   O01x1       1     -1.05    15.999
   10797      Ob       1     SIL   O01x2       1     -1.05    15.999
   10798      Ob       1     SIL   O01x3       1     -1.05    15.999
   10799      Ob       1     SIL   O01x4       1     -1.05    15.999
   10800      Si       1     SIL   Si0yY       1       2.1    28.086
   10801      Si       1     SIL   Si0yZ       1       2.1    28.086
   10802      Si       1     SIL   Si0ya       1       2.1    28.086
   10803      Ob       1     SIL   O01x5       1     -1.05    15.999
   10804      Ob       1     SIL   O01x6       1     -1.05    15.999
   10805      Ob       1     SIL   O01x7       1     -1.05    15.999
   10806      Ob       1     SIL   O01x8       1     -1.05    15.999
   10807      Ob       1     SIL   O01x9       1     -1.05    15.999
   10808      Ob       1     SIL   O01xA       1     -1.05    15.999
   10809      Si       1     SIL   Si0yb       1       2.1    28.086
   10810      Si       1     SIL   Si0yc       1       2.1    28.086
   10811      Si       1     SIL   Si0yd       1       2.1    28.086
   10812      Ob       1     SIL   O01xB       1     -1.05    15.999
   10813      Ob       1     SIL   O01xC       1     -1.05    15.999
   10814      Ob       1     SIL   O01xD       1     -1.05    15.999
   10815      Ob       1     SIL   O01xE       1     -1.05    15.999
   10816      Ob       1     SIL   O01xF       1     -1.05    15.999
   10817      Ob       1     SIL   O01xG       1     -1.05    15.999
   10818      Si       1     SIL   Si0ye       1       2.1    28.086
   10819      Si       1     SIL   Si0yf       1       2.1    28.086
   10820      Si       1     SIL   Si0yg       1       2.1    28.086
   10821      Ob       1     SIL   O01xH       1     -1.05    15.999
   10822      Ob       1     SIL   O01xI       1     -1.05    15.999
   10823      Ob       1     SIL   O01xJ       1     -1.05    15.999
   10824      Ob       1     SIL   O01xK       1     -1.05    15.999
   10825      Ob       1     SIL   O01xL       1     -1.05    15.999
   10826      Ob       1     SIL   O01xM       1     -1.05    15.999
   10827      Si       1     SIL   Si0yh       1       2.1    28.086
   10828      Si       1     SIL   Si0yi       1       2.1    28.086
   10829      Si       1     SIL   Si0yj       1       2.1    28.086
   10830      Ob       1     SIL   O01xN       1     -1.05    15.999
   10831      Ob       1     SIL   O01xO       1     -1.05    15.999
   10832      Ob       1     SIL   O01xP       1     -1.05    15.999
   10833      Ob       1     SIL   O01xQ       1     -1.05    15.999
   10834      Ob       1     SIL   O01xR       1     -1.05    15.999
   10835      Ob       1     SIL   O01xS       1     -1.05    15.999
   10836      Si       1     SIL   Si0yk       1       2.1    28.086
   10837      Si       1     SIL   Si0yl       1       2.1    28.086
   10838      Si       1     SIL   Si0ym       1       2.1    28.086
   10839      Ob       1     SIL   O01xT       1     -1.05    15.999
   10840      Ob       1     SIL   O01xU       1     -1.05    15.999
   10841      Ob       1     SIL   O01xV       1     -1.05    15.999
   10842      Ob       1     SIL   O01xW       1     -1.05    15.999
   10843      Ob       1     SIL   O01xX       1     -1.05    15.999
   10844      Ob       1     SIL   O01xY       1     -1.05    15.999
   10845      Si       1     SIL   Si0yn       1       2.1    28.086
   10846      Si       1     SIL   Si0yo       1       2.1    28.086
   10847      Si       1     SIL   Si0yp       1       2.1    28.086
   10848      Ob       1     SIL   O01xZ       1     -1.05    15.999
   10849      Ob       1     SIL   O01xa       1     -1.05    15.999
   10850      Ob       1     SIL   O01xb       1     -1.05    15.999
   10851      Ob       1     SIL   O01xc       1     -1.05    15.999
   10852      Ob       1     SIL   O01xd       1     -1.05    15.999
   10853      Ob       1     SIL   O01xe       1     -1.05    15.999
   10854      Si       1     SIL   Si0yq       1       2.1    28.086
   10855      Si       1     SIL   Si0yr       1       2.1    28.086
   10856      Si       1     SIL   Si0ys       1       2.1    28.086
   10857      Ob       1     SIL   O01xf       1     -1.05    15.999
   10858      Ob       1     SIL   O01xg       1     -1.05    15.999
   10859      Ob       1     SIL   O01xh       1     -1.05    15.999
   10860      Ob       1     SIL   O01xi       1     -1.05    15.999
   10861      Ob       1     SIL   O01xj       1     -1.05    15.999
   10862      Ob       1     SIL   O01xk       1     -1.05    15.999
   10863      Si       1     SIL   Si0yt       1       2.1    28.086
   10864      Si       1     SIL   Si0yu       1       2.1    28.086
   10865      Si       1     SIL   Si0yv       1       2.1    28.086
   10866      Ob       1     SIL   O01xl       1     -1.05    15.999
   10867      Ob       1     SIL   O01xm       1     -1.05    15.999
   10868      Ob       1     SIL   O01xn       1     -1.05    15.999
   10869      Ob       1     SIL   O01xo       1     -1.05    15.999
   10870      Ob       1     SIL   O01xp       1     -1.05    15.999
   10871      Ob       1     SIL   O01xq       1     -1.05    15.999
   10872      Si       1     SIL   Si0yw       1       2.1    28.086
   10873      Si       1     SIL   Si0yx       1       2.1    28.086
   10874      Si       1     SIL   Si0yy       1       2.1    28.086
   10875      Ob       1     SIL   O01xr       1     -1.05    15.999
   10876      Ob       1     SIL   O01xs       1     -1.05    15.999
   10877      Ob       1     SIL   O01xt       1     -1.05    15.999
   10878      Ob       1     SIL   O01xu       1     -1.05    15.999
   10879      Ob       1     SIL   O01xv       1     -1.05    15.999
   10880      Ob       1     SIL   O01xw       1     -1.05    15.999
   10881      Si       1     SIL   Si0yz       1       2.1    28.086
   10882      Si       1     SIL   Si0z0       1       2.1    28.086
   10883      Si       1     SIL   Si0z1       1       2.1    28.086
   10884      Ob       1     SIL   O01xx       1     -1.05    15.999
   10885      Ob       1     SIL   O01xy       1     -1.05    15.999
   10886      Ob       1     SIL   O01xz       1     -1.05    15.999
   10887      Ob       1     SIL   O01y0       1     -1.05    15.999
   10888      Ob       1     SIL   O01y1       1     -1.05    15.999
   10889      Ob       1     SIL   O01y2       1     -1.05    15.999
   10890      Si       1     SIL   Si0z2       1       2.1    28.086
   10891      Si       1     SIL   Si0z3       1       2.1    28.086
   10892      Si       1     SIL   Si0z4       1       2.1    28.086
   10893      Ob       1     SIL   O01y3       1     -1.05    15.999
   10894      Ob       1     SIL   O01y4       1     -1.05    15.999
   10895      Ob       1     SIL   O01y5       1     -1.05    15.999
   10896      Ob       1     SIL   O01y6       1     -1.05    15.999
   10897      Ob       1     SIL   O01y7       1     -1.05    15.999
   10898      Ob       1     SIL   O01y8       1     -1.05    15.999
   10899      Si       1     SIL   Si0z5       1       2.1    28.086
   10900      Si       1     SIL   Si0z6       1       2.1    28.086
   10901      Si       1     SIL   Si0z7       1       2.1    28.086
   10902      Ob       1     SIL   O01y9       1     -1.05    15.999
   10903      Ob       1     SIL   O01yA       1     -1.05    15.999
   10904      Ob       1     SIL   O01yB       1     -1.05    15.999
   10905      Ob       1     SIL   O01yC       1     -1.05    15.999
   10906      Ob       1     SIL   O01yD       1     -1.05    15.999
   10907      Ob       1     SIL   O01yE       1     -1.05    15.999
   10908      Si       1     SIL   Si0z8       1       2.1    28.086
   10909      Si       1     SIL   Si0z9       1       2.1    28.086
   10910      Si       1     SIL   Si0zA       1       2.1    28.086
   10911      Ob       1     SIL   O01yF       1     -1.05    15.999
   10912      Ob       1     SIL   O01yG       1     -1.05    15.999
   10913      Ob       1     SIL   O01yH       1     -1.05    15.999
   10914      Ob       1     SIL   O01yI       1     -1.05    15.999
   10915      Ob       1     SIL   O01yJ       1     -1.05    15.999
   10916      Ob       1     SIL   O01yK       1     -1.05    15.999
   10917      Si       1     SIL   Si0zB       1       2.1    28.086
   10918      Si       1     SIL   Si0zC       1       2.1    28.086
   10919      Si       1     SIL   Si0zD       1       2.1    28.086
   10920      Ob       1     SIL   O01yL       1     -1.05    15.999
   10921       O       1     SIL   O01yM       1    -0.525    15.999
   10922       O       1     SIL   O01yN       1    -0.525    15.999
   10923      Ob       1     SIL   O01yO       1     -1.05    15.999
   10924      Ob       1     SIL   O01yP       1     -1.05    15.999
   10925      Ob       1     SIL   O01yQ       1     -1.05    15.999
   10926      Si       1     SIL   Si0zE       1       2.1    28.086
   10927      Si       1     SIL   Si0zF       1       2.1    28.086
   10928      Si       1     SIL   Si0zG       1       2.1    28.086
   10929      Ob       1     SIL   O01yR       1     -1.05    15.999
   10930      Ob       1     SIL   O01yS       1     -1.05    15.999
   10931      Ob       1     SIL   O01yT       1     -1.05    15.999
   10932      Ob       1     SIL   O01yU       1     -1.05    15.999
   10933      Ob       1     SIL   O01yV       1     -1.05    15.999
   10934      Ob       1     SIL   O01yW       1     -1.05    15.999
   10935      Si       1     SIL   Si0zH       1       2.1    28.086
   10936      Si       1     SIL   Si0zI       1       2.1    28.086
   10937      Si       1     SIL   Si0zJ       1       2.1    28.086
   10938      Ob       1     SIL   O01yX       1     -1.05    15.999
   10939      Ob       1     SIL   O01yY       1     -1.05    15.999
   10940      Ob       1     SIL   O01yZ       1     -1.05    15.999
   10941      Ob       1     SIL   O01ya       1     -1.05    15.999
   10942      Ob       1     SIL   O01yb       1     -1.05    15.999
   10943      Ob       1     SIL   O01yc       1     -1.05    15.999
   10944      Si       1     SIL   Si0zK       1       2.1    28.086
   10945      Si       1     SIL   Si0zL       1       2.1    28.086
   10946      Si       1     SIL   Si0zM       1       2.1    28.086
   10947      Ob       1     SIL   O01yd       1     -1.05    15.999
   10948      Ob       1     SIL   O01ye       1     -1.05    15.999
   10949      Ob       1     SIL   O01yf       1     -1.05    15.999
   10950      Ob       1     SIL   O01yg       1     -1.05    15.999
   10951      Ob       1     SIL   O01yh       1     -1.05    15.999
   10952      Ob       1     SIL   O01yi       1     -1.05    15.999
   10953      Si       1     SIL   Si0zN       1       2.1    28.086
   10954      Si       1     SIL   Si0zO       1       2.1    28.086
   10955      Si       1     SIL   Si0zP       1       2.1    28.086
   10956      Ob       1     SIL   O01yj       1     -1.05    15.999
   10957      Ob       1     SIL   O01yk       1     -1.05    15.999
   10958      Ob       1     SIL   O01yl       1     -1.05    15.999
   10959      Ob       1     SIL   O01ym       1     -1.05    15.999
   10960      Ob       1     SIL   O01yn       1     -1.05    15.999
   10961      Ob       1     SIL   O01yo       1     -1.05    15.999
   10962      Si       1     SIL   Si0zQ       1       2.1    28.086
   10963      Si       1     SIL   Si0zR       1       2.1    28.086
   10964      Si       1     SIL   Si0zS       1       2.1    28.086
   10965      Ob       1     SIL   O01yp       1     -1.05    15.999
   10966      Ob       1     SIL   O01yq       1     -1.05    15.999
   10967      Ob       1     SIL   O01yr       1     -1.05    15.999
   10968      Ob       1     SIL   O01ys       1     -1.05    15.999
   10969      Ob       1     SIL   O01yt       1     -1.05    15.999
   10970      Ob       1     SIL   O01yu       1     -1.05    15.999
   10971      Si       1     SIL   Si0zT       1       2.1    28.086
   10972      Si       1     SIL   Si0zU       1       2.1    28.086
   10973      Si       1     SIL   Si0zV       1       2.1    28.086
   10974      Ob       1     SIL   O01yv       1     -1.05    15.999
   10975      Ob       1     SIL   O01yw       1     -1.05    15.999
   10976      Ob       1     SIL   O01yx       1     -1.05    15.999
   10977      Ob       1     SIL   O01yy       1     -1.05    15.999
   10978      Ob       1     SIL   O01yz       1     -1.05    15.999
   10979      Ob       1     SIL   O01z0       1     -1.05    15.999
   10980      Si       1     SIL   Si0zW       1       2.1    28.086
   10981      Si       1     SIL   Si0zX       1       2.1    28.086
   10982      Si       1     SIL   Si0zY       1       2.1    28.086
   10983      Ob       1     SIL   O01z1       1     -1.05    15.999
   10984      Ob       1     SIL   O01z2       1     -1.05    15.999
   10985      Ob       1     SIL   O01z3       1     -1.05    15.999
   10986      Ob       1     SIL   O01z4       1     -1.05    15.999
   10987      Ob       1     SIL   O01z5       1     -1.05    15.999
   10988      Ob       1     SIL   O01z6       1     -1.05    15.999
   10989      Si       1     SIL   Si0zZ       1       2.1    28.086
   10990      Si       1     SIL   Si0za       1       2.1    28.086
   10991      Si       1     SIL   Si0zb       1       2.1    28.086
   10992      Ob       1     SIL   O01z7       1     -1.05    15.999
   10993      Ob       1     SIL   O01z8       1     -1.05    15.999
   10994      Ob       1     SIL   O01z9       1     -1.05    15.999
   10995      Ob       1     SIL   O01zA       1     -1.05    15.999
   10996      Ob       1     SIL   O01zB       1     -1.05    15.999
   10997      Ob       1     SIL   O01zC       1     -1.05    15.999
   10998      Si       1     SIL   Si0zc       1       2.1    28.086
   10999      Si       1     SIL   Si0zd       1       2.1    28.086
   11000      Si       1     SIL   Si0ze       1       2.1    28.086
   11001      Ob       1     SIL   O01zD       1     -1.05    15.999
   11002      Ob       1     SIL   O01zE       1     -1.05    15.999
   11003      Ob       1     SIL   O01zF       1     -1.05    15.999
   11004      Ob       1     SIL   O01zG       1     -1.05    15.999
   11005      Ob       1     SIL   O01zH       1     -1.05    15.999
   11006      Ob       1     SIL   O01zI       1     -1.05    15.999
   11007      Si       1     SIL   Si0zf       1       2.1    28.086
   11008      Si       1     SIL   Si0zg       1       2.1    28.086
   11009      Si       1     SIL   Si0zh       1       2.1    28.086
   11010      Ob       1     SIL   O01zJ       1     -1.05    15.999
   11011      Ob       1     SIL   O01zK       1     -1.05    15.999
   11012      Ob       1     SIL   O01zL       1     -1.05    15.999
   11013      Ob       1     SIL   O01zM       1     -1.05    15.999
   11014      Ob       1     SIL   O01zN       1     -1.05    15.999
   11015      Ob       1     SIL   O01zO       1     -1.05    15.999
   11016      Si       1     SIL   Si0zi       1       2.1    28.086
   11017      Si       1     SIL   Si0zj       1       2.1    28.086
   11018      Si       1     SIL   Si0zk       1       2.1    28.086
   11019      Ob       1     SIL   O01zP       1     -1.05    15.999
   11020      Ob       1     SIL   O01zQ       1     -1.05    15.999
   11021      Ob       1     SIL   O01zR       1     -1.05    15.999
   11022      Ob       1     SIL   O01zS       1     -1.05    15.999
   11023      Ob       1     SIL   O01zT       1     -1.05    15.999
   11024      Ob       1     SIL   O01zU       1     -1.05    15.999
   11025      Si       1     SIL   Si0zl       1       2.1    28.086
   11026      Si       1     SIL   Si0zm       1       2.1    28.086
   11027      Si       1     SIL   Si0zn       1       2.1    28.086
   11028      Ob       1     SIL   O01zV       1     -1.05    15.999
   11029      Ob       1     SIL   O01zW       1     -1.05    15.999
   11030      Ob       1     SIL   O01zX       1     -1.05    15.999
   11031      Ob       1     SIL   O01zY       1     -1.05    15.999
   11032      Ob       1     SIL   O01zZ       1     -1.05    15.999
   11033      Ob       1     SIL   O01za       1     -1.05    15.999
   11034      Si       1     SIL   Si0zo       1       2.1    28.086
   11035      Si       1     SIL   Si0zp       1       2.1    28.086
   11036      Si       1     SIL   Si0zq       1       2.1    28.086
   11037      Ob       1     SIL   O01zb       1     -1.05    15.999
   11038      Ob       1     SIL   O01zc       1     -1.05    15.999
   11039      Ob       1     SIL   O01zd       1     -1.05    15.999
   11040      Ob       1     SIL   O01ze       1     -1.05    15.999
   11041      Ob       1     SIL   O01zf       1     -1.05    15.999
   11042      Ob       1     SIL   O01zg       1     -1.05    15.999
   11043      Si       1     SIL   Si0zr       1       2.1    28.086
   11044      Si       1     SIL   Si0zs       1       2.1    28.086
   11045      Si       1     SIL   Si0zt       1       2.1    28.086
   11046      Ob       1     SIL   O01zh       1     -1.05    15.999
   11047      Ob       1     SIL   O01zi       1     -1.05    15.999
   11048      Ob       1     SIL   O01zj       1     -1.05    15.999
   11049      Ob       1     SIL   O01zk       1     -1.05    15.999
   11050      Ob       1     SIL   O01zl       1     -1.05    15.999
   11051      Ob       1     SIL   O01zm       1     -1.05    15.999
   11052      Si       1     SIL   Si0zu       1       2.1    28.086
   11053      Si       1     SIL   Si0zv       1       2.1    28.086
   11054      Si       1     SIL   Si0zw       1       2.1    28.086
   11055      Ob       1     SIL   O01zn       1     -1.05    15.999
   11056      Ob       1     SIL   O01zo       1     -1.05    15.999
   11057      Ob       1     SIL   O01zp       1     -1.05    15.999
   11058      Ob       1     SIL   O01zq       1     -1.05    15.999
   11059      Ob       1     SIL   O01zr       1     -1.05    15.999
   11060      Ob       1     SIL   O01zs       1     -1.05    15.999
   11061      Si       1     SIL   Si0zx       1       2.1    28.086
   11062      Si       1     SIL   Si0zy       1       2.1    28.086
   11063      Si       1     SIL   Si0zz       1       2.1    28.086
   11064      Ob       1     SIL   O01zt       1     -1.05    15.999
   11065      Ob       1     SIL   O01zu       1     -1.05    15.999
   11066      Ob       1     SIL   O01zv       1     -1.05    15.999
   11067      Ob       1     SIL   O01zw       1     -1.05    15.999
   11068      Ob       1     SIL   O01zx       1     -1.05    15.999
   11069      Ob       1     SIL   O01zy       1     -1.05    15.999
   11070      Si       1     SIL   Si100       1       2.1    28.086
   11071      Si       1     SIL   Si101       1       2.1    28.086
   11072      Si       1     SIL   Si102       1       2.1    28.086
   11073      Ob       1     SIL   O01zz       1     -1.05    15.999
   11074      Ob       1     SIL   O0200       1     -1.05    15.999
   11075      Ob       1     SIL   O0201       1     -1.05    15.999
   11076      Ob       1     SIL   O0202       1     -1.05    15.999
   11077      Ob       1     SIL   O0203       1     -1.05    15.999
   11078      Ob       1     SIL   O0204       1     -1.05    15.999
   11079      Si       1     SIL   Si103       1       2.1    28.086
   11080      Si       1     SIL   Si104       1       2.1    28.086
   11081      Si       1     SIL   Si105       1       2.1    28.086
   11082      Ob       1     SIL   O0205       1     -1.05    15.999
   11083      Ob       1     SIL   O0206       1     -1.05    15.999
   11084      Ob       1     SIL   O0207       1     -1.05    15.999
   11085      Ob       1     SIL   O0208       1     -1.05    15.999
   11086      Ob       1     SIL   O0209       1     -1.05    15.999
   11087      Ob       1     SIL   O020A       1     -1.05    15.999
   11088      Si       1     SIL   Si106       1       2.1    28.086
   11089      Si       1     SIL   Si107       1       2.1    28.086
   11090      Si       1     SIL   Si108       1       2.1    28.086
   11091      Ob       1     SIL   O020B       1     -1.05    15.999
   11092      Ob       1     SIL   O020C       1     -1.05    15.999
   11093      Ob       1     SIL   O020D       1     -1.05    15.999
   11094      Ob       1     SIL   O020E       1     -1.05    15.999
   11095      Ob       1     SIL   O020F       1     -1.05    15.999
   11096      Ob       1     SIL   O020G       1     -1.05    15.999
   11097      Si       1     SIL   Si109       1       2.1    28.086
   11098      Si       1     SIL   Si10A       1       2.1    28.086
   11099      Si       1     SIL   Si10B       1       2.1    28.086
   11100      Ob       1     SIL   O020H       1     -1.05    15.999
   11101      Ob       1     SIL   O020I       1     -1.05    15.999
   11102      Ob       1     SIL   O020J       1     -1.05    15.999
   11103      Ob       1     SIL   O020K       1     -1.05    15.999
   11104      Ob       1     SIL   O020L       1     -1.05    15.999
   11105      Ob       1     SIL   O020M       1     -1.05    15.999
   11106      Si       1     SIL   Si10C       1       2.1    28.086
   11107      Si       1     SIL   Si10D       1       2.1    28.086
   11108      Si       1     SIL   Si10E       1       2.1    28.086
   11109      Ob       1     SIL   O020N       1     -1.05    15.999
   11110      Ob       1     SIL   O020O       1     -1.05    15.999
   11111      Ob       1     SIL   O020P       1     -1.05    15.999
   11112      Ob       1     SIL   O020Q       1     -1.05    15.999
   11113      Ob       1     SIL   O020R       1     -1.05    15.999
   11114      Ob       1     SIL   O020S       1     -1.05    15.999
   11115      Si       1     SIL   Si10F       1       2.1    28.086
   11116      Si       1     SIL   Si10G       1       2.1    28.086
   11117      Si       1     SIL   Si10H       1       2.1    28.086
   11118      Ob       1     SIL   O020T       1     -1.05    15.999
   11119      Ob       1     SIL   O020U       1     -1.05    15.999
   11120      Ob       1     SIL   O020V       1     -1.05    15.999
   11121      Ob       1     SIL   O020W       1     -1.05    15.999
   11122      Ob       1     SIL   O020X       1     -1.05    15.999
   11123      Ob       1     SIL   O020Y       1     -1.05    15.999
   11124      Si       1     SIL   Si10I       1       2.1    28.086
   11125      Si       1     SIL   Si10J       1       2.1    28.086
   11126      Si       1     SIL   Si10K       1       2.1    28.086
   11127      Ob       1     SIL   O020Z       1     -1.05    15.999
   11128       O       1     SIL   O020a       1    -0.525    15.999
   11129       O       1     SIL   O020b       1    -0.525    15.999
   11130      Ob       1     SIL   O020c       1     -1.05    15.999
   11131      Ob       1     SIL   O020d       1     -1.05    15.999
   11132      Ob       1     SIL   O020e       1     -1.05    15.999
   11133      Si       1     SIL   Si10L       1       2.1    28.086
   11134      Si       1     SIL   Si10M       1       2.1    28.086
   11135      Si       1     SIL   Si10N       1       2.1    28.086
   11136      Ob       1     SIL   O020f       1     -1.05    15.999
   11137      Ob       1     SIL   O020g       1     -1.05    15.999
   11138      Ob       1     SIL   O020h       1     -1.05    15.999
   11139      Ob       1     SIL   O020i       1     -1.05    15.999
   11140      Ob       1     SIL   O020j       1     -1.05    15.999
   11141      Ob       1     SIL   O020k       1     -1.05    15.999
   11142      Si       1     SIL   Si10O       1       2.1    28.086
   11143      Si       1     SIL   Si10P       1       2.1    28.086
   11144      Si       1     SIL   Si10Q       1       2.1    28.086
   11145      Ob       1     SIL   O020l       1     -1.05    15.999
   11146      Ob       1     SIL   O020m       1     -1.05    15.999
   11147      Ob       1     SIL   O020n       1     -1.05    15.999
   11148      Ob       1     SIL   O020o       1     -1.05    15.999
   11149      Ob       1     SIL   O020p       1     -1.05    15.999
   11150      Ob       1     SIL   O020q       1     -1.05    15.999
   11151      Si       1     SIL   Si10R       1       2.1    28.086
   11152      Si       1     SIL   Si10S       1       2.1    28.086
   11153      Si       1     SIL   Si10T       1       2.1    28.086
   11154      Ob       1     SIL   O020r       1     -1.05    15.999
   11155      Ob       1     SIL   O020s       1     -1.05    15.999
   11156      Ob       1     SIL   O020t       1     -1.05    15.999
   11157      Ob       1     SIL   O020u       1     -1.05    15.999
   11158      Ob       1     SIL   O020v       1     -1.05    15.999
   11159      Ob       1     SIL   O020w       1     -1.05    15.999
   11160      Si       1     SIL   Si10U       1       2.1    28.086
   11161      Si       1     SIL   Si10V       1       2.1    28.086
   11162      Si       1     SIL   Si10W       1       2.1    28.086
   11163      Ob       1     SIL   O020x       1     -1.05    15.999
   11164      Ob       1     SIL   O020y       1     -1.05    15.999
   11165      Ob       1     SIL   O020z       1     -1.05    15.999
   11166      Ob       1     SIL   O0210       1     -1.05    15.999
   11167      Ob       1     SIL   O0211       1     -1.05    15.999
   11168      Ob       1     SIL   O0212       1     -1.05    15.999
   11169      Si       1     SIL   Si10X       1       2.1    28.086
   11170      Si       1     SIL   Si10Y       1       2.1    28.086
   11171      Si       1     SIL   Si10Z       1       2.1    28.086
   11172      Ob       1     SIL   O0213       1     -1.05    15.999
   11173      Ob       1     SIL   O0214       1     -1.05    15.999
   11174      Ob       1     SIL   O0215       1     -1.05    15.999
   11175      Ob       1     SIL   O0216       1     -1.05    15.999
   11176      Ob       1     SIL   O0217       1     -1.05    15.999
   11177      Ob       1     SIL   O0218       1     -1.05    15.999
   11178      Si       1     SIL   Si10a       1       2.1    28.086
   11179      Si       1     SIL   Si10b       1       2.1    28.086
   11180      Si       1     SIL   Si10c       1       2.1    28.086
   11181      Ob       1     SIL   O0219       1     -1.05    15.999
   11182      Ob       1     SIL   O021A       1     -1.05    15.999
   11183      Ob       1     SIL   O021B       1     -1.05    15.999
   11184      Ob       1     SIL   O021C       1     -1.05    15.999
   11185      Ob       1     SIL   O021D       1     -1.05    15.999
   11186      Ob       1     SIL   O021E       1     -1.05    15.999
   11187      Si       1     SIL   Si10d       1       2.1    28.086
   11188      Si       1     SIL   Si10e       1       2.1    28.086
   11189      Si       1     SIL   Si10f       1       2.1    28.086
   11190      Ob       1     SIL   O021F       1     -1.05    15.999
   11191      Ob       1     SIL   O021G       1     -1.05    15.999
   11192      Ob       1     SIL   O021H       1     -1.05    15.999
   11193      Ob       1     SIL   O021I       1     -1.05    15.999
   11194      Ob       1     SIL   O021J       1     -1.05    15.999
   11195      Ob       1     SIL   O021K       1     -1.05    15.999
   11196      Si       1     SIL   Si10g       1       2.1    28.086
   11197      Si       1     SIL   Si10h       1       2.1    28.086
   11198      Si       1     SIL   Si10i       1       2.1    28.086
   11199      Ob       1     SIL   O021L       1     -1.05    15.999
   11200      Ob       1     SIL   O021M       1     -1.05    15.999
   11201      Ob       1     SIL   O021N       1     -1.05    15.999
   11202      Ob       1     SIL   O021O       1     -1.05    15.999
   11203      Ob       1     SIL   O021P       1     -1.05    15.999
   11204      Ob       1     SIL   O021Q       1     -1.05    15.999
   11205      Si       1     SIL   Si10j       1       2.1    28.086
   11206      Si       1     SIL   Si10k       1       2.1    28.086
   11207      Si       1     SIL   Si10l       1       2.1    28.086
   11208      Ob       1     SIL   O021R       1     -1.05    15.999
   11209      Ob       1     SIL   O021S       1     -1.05    15.999
   11210      Ob       1     SIL   O021T       1     -1.05    15.999
   11211      Ob       1     SIL   O021U       1     -1.05    15.999
   11212      Ob       1     SIL   O021V       1     -1.05    15.999
   11213      Ob       1     SIL   O021W       1     -1.05    15.999
   11214      Si       1     SIL   Si10m       1       2.1    28.086
   11215      Si       1     SIL   Si10n       1       2.1    28.086
   11216      Si       1     SIL   Si10o       1       2.1    28.086
   11217      Ob       1     SIL   O021X       1     -1.05    15.999
   11218      Ob       1     SIL   O021Y       1     -1.05    15.999
   11219      Ob       1     SIL   O021Z       1     -1.05    15.999
   11220      Ob       1     SIL   O021a       1     -1.05    15.999
   11221      Ob       1     SIL   O021b       1     -1.05    15.999
   11222      Ob       1     SIL   O021c       1     -1.05    15.999
   11223      Si       1     SIL   Si10p       1       2.1    28.086
   11224      Si       1     SIL   Si10q       1       2.1    28.086
   11225      Si       1     SIL   Si10r       1       2.1    28.086
   11226      Ob       1     SIL   O021d       1     -1.05    15.999
   11227      Ob       1     SIL   O021e       1     -1.05    15.999
   11228      Ob       1     SIL   O021f       1     -1.05    15.999
   11229      Ob       1     SIL   O021g       1     -1.05    15.999
   11230      Ob       1     SIL   O021h       1     -1.05    15.999
   11231      Ob       1     SIL   O021i       1     -1.05    15.999
   11232      Si       1     SIL   Si10s       1       2.1    28.086
   11233      Si       1     SIL   Si10t       1       2.1    28.086
   11234      Si       1     SIL   Si10u       1       2.1    28.086
   11235      Ob       1     SIL   O021j       1     -1.05    15.999
   11236      Ob       1     SIL   O021k       1     -1.05    15.999
   11237      Ob       1     SIL   O021l       1     -1.05    15.999
   11238      Ob       1     SIL   O021m       1     -1.05    15.999
   11239      Ob       1     SIL   O021n       1     -1.05    15.999
   11240      Ob       1     SIL   O021o       1     -1.05    15.999
   11241      Si       1     SIL   Si10v       1       2.1    28.086
   11242      Si       1     SIL   Si10w       1       2.1    28.086
   11243      Si       1     SIL   Si10x       1       2.1    28.086
   11244      Ob       1     SIL   O021p       1     -1.05    15.999
   11245      Ob       1     SIL   O021q       1     -1.05    15.999
   11246      Ob       1     SIL   O021r       1     -1.05    15.999
   11247      Ob       1     SIL   O021s       1     -1.05    15.999
   11248      Ob       1     SIL   O021t       1     -1.05    15.999
   11249      Ob       1     SIL   O021u       1     -1.05    15.999
   11250      Si       1     SIL   Si10y       1       2.1    28.086
   11251      Si       1     SIL   Si10z       1       2.1    28.086
   11252      Si       1     SIL   Si110       1       2.1    28.086
   11253      Ob       1     SIL   O021v       1     -1.05    15.999
   11254      Ob       1     SIL   O021w       1     -1.05    15.999
   11255      Ob       1     SIL   O021x       1     -1.05    15.999
   11256      Ob       1     SIL   O021y       1     -1.05    15.999
   11257      Ob       1     SIL   O021z       1     -1.05    15.999
   11258      Ob       1     SIL   O0220       1     -1.05    15.999
   11259      Si       1     SIL   Si111       1       2.1    28.086
   11260      Si       1     SIL   Si112       1       2.1    28.086
   11261      Si       1     SIL   Si113       1       2.1    28.086
   11262      Ob       1     SIL   O0221       1     -1.05    15.999
   11263      Ob       1     SIL   O0222       1     -1.05    15.999
   11264      Ob       1     SIL   O0223       1     -1.05    15.999
   11265      Ob       1     SIL   O0224       1     -1.05    15.999
   11266      Ob       1     SIL   O0225       1     -1.05    15.999
   11267      Ob       1     SIL   O0226       1     -1.05    15.999
   11268      Si       1     SIL   Si114       1       2.1    28.086
   11269      Si       1     SIL   Si115       1       2.1    28.086
   11270      Si       1     SIL   Si116       1       2.1    28.086
   11271      Ob       1     SIL   O0227       1     -1.05    15.999
   11272      Ob       1     SIL   O0228       1     -1.05    15.999
   11273      Ob       1     SIL   O0229       1     -1.05    15.999
   11274      Ob       1     SIL   O022A       1     -1.05    15.999
   11275      Ob       1     SIL   O022B       1     -1.05    15.999
   11276      Ob       1     SIL   O022C       1     -1.05    15.999
   11277      Si       1     SIL   Si117       1       2.1    28.086
   11278      Si       1     SIL   Si118       1       2.1    28.086
   11279      Si       1     SIL   Si119       1       2.1    28.086
   11280      Ob       1     SIL   O022D       1     -1.05    15.999
   11281      Ob       1     SIL   O022E       1     -1.05    15.999
   11282      Ob       1     SIL   O022F       1     -1.05    15.999
   11283      Ob       1     SIL   O022G       1     -1.05    15.999
   11284      Ob       1     SIL   O022H       1     -1.05    15.999
   11285      Ob       1     SIL   O022I       1     -1.05    15.999
   11286      Si       1     SIL   Si11A       1       2.1    28.086
   11287      Si       1     SIL   Si11B       1       2.1    28.086
   11288      Si       1     SIL   Si11C       1       2.1    28.086
   11289      Ob       1     SIL   O022J       1     -1.05    15.999
   11290      Ob       1     SIL   O022K       1     -1.05    15.999
   11291      Ob       1     SIL   O022L       1     -1.05    15.999
   11292      Ob       1     SIL   O022M       1     -1.05    15.999
   11293      Ob       1     SIL   O022N       1     -1.05    15.999
   11294      Ob       1     SIL   O022O       1     -1.05    15.999
   11295      Si       1     SIL   Si11D       1       2.1    28.086
   11296      Si       1     SIL   Si11E       1       2.1    28.086
   11297      Si       1     SIL   Si11F       1       2.1    28.086
   11298      Ob       1     SIL   O022P       1     -1.05    15.999
   11299      Ob       1     SIL   O022Q       1     -1.05    15.999
   11300      Ob       1     SIL   O022R       1     -1.05    15.999
   11301      Ob       1     SIL   O022S       1     -1.05    15.999
   11302      Ob       1     SIL   O022T       1     -1.05    15.999
   11303      Ob       1     SIL   O022U       1     -1.05    15.999
   11304      Si       1     SIL   Si11G       1       2.1    28.086
   11305      Si       1     SIL   Si11H       1       2.1    28.086
   11306      Si       1     SIL   Si11I       1       2.1    28.086
   11307      Ob       1     SIL   O022V       1     -1.05    15.999
   11308      Ob       1     SIL   O022W       1     -1.05    15.999
   11309      Ob       1     SIL   O022X       1     -1.05    15.999
   11310      Ob       1     SIL   O022Y       1     -1.05    15.999
   11311      Ob       1     SIL   O022Z       1     -1.05    15.999
   11312      Ob       1     SIL   O022a       1     -1.05    15.999
   11313      Si       1     SIL   Si11J       1       2.1    28.086
   11314      Si       1     SIL   Si11K       1       2.1    28.086
   11315      Si       1     SIL   Si11L       1       2.1    28.086
   11316      Ob       1     SIL   O022b       1     -1.05    15.999
   11317      Ob       1     SIL   O022c       1     -1.05    15.999
   11318      Ob       1     SIL   O022d       1     -1.05    15.999
   11319      Ob       1     SIL   O022e       1     -1.05    15.999
   11320      Ob       1     SIL   O022f       1     -1.05    15.999
   11321      Ob       1     SIL   O022g       1     -1.05    15.999
   11322      Si       1     SIL   Si11M       1       2.1    28.086
   11323      Si       1     SIL   Si11N       1       2.1    28.086
   11324      Si       1     SIL   Si11O       1       2.1    28.086
   11325      Ob       1     SIL   O022h       1     -1.05    15.999
   11326      Ob       1     SIL   O022i       1     -1.05    15.999
   11327      Ob       1     SIL   O022j       1     -1.05    15.999
   11328      Ob       1     SIL   O022k       1     -1.05    15.999
   11329      Ob       1     SIL   O022l       1     -1.05    15.999
   11330      Ob       1     SIL   O022m       1     -1.05    15.999
   11331      Si       1     SIL   Si11P       1       2.1    28.086
   11332      Si       1     SIL   Si11Q       1       2.1    28.086
   11333      Si       1     SIL   Si11R       1       2.1    28.086
   11334      Ob       1     SIL   O022n       1     -1.05    15.999
   11335       O       1     SIL   O022o       1    -0.525    15.999
   11336       O       1     SIL   O022p       1    -0.525    15.999
   11337      Ob       1     SIL   O022q       1     -1.05    15.999
   11338      Ob       1     SIL   O022r       1     -1.05    15.999
   11339      Ob       1     SIL   O022s       1     -1.05    15.999
   11340      Si       1     SIL   Si11S       1       2.1    28.086
   11341      Si       1     SIL   Si11T       1       2.1    28.086
   11342      Si       1     SIL   Si11U       1       2.1    28.086
   11343      Ob       1     SIL   O022t       1     -1.05    15.999
   11344      Ob       1     SIL   O022u       1     -1.05    15.999
   11345      Ob       1     SIL   O022v       1     -1.05    15.999
   11346      Ob       1     SIL   O022w       1     -1.05    15.999
   11347      Ob       1     SIL   O022x       1     -1.05    15.999
   11348      Ob       1     SIL   O022y       1     -1.05    15.999
   11349      Si       1     SIL   Si11V       1       2.1    28.086
   11350      Si       1     SIL   Si11W       1       2.1    28.086
   11351      Si       1     SIL   Si11X       1       2.1    28.086
   11352      Ob       1     SIL   O022z       1     -1.05    15.999
   11353      Ob       1     SIL   O0230       1     -1.05    15.999
   11354      Ob       1     SIL   O0231       1     -1.05    15.999
   11355      Ob       1     SIL   O0232       1     -1.05    15.999
   11356      Ob       1     SIL   O0233       1     -1.05    15.999
   11357      Ob       1     SIL   O0234       1     -1.05    15.999
   11358      Si       1     SIL   Si11Y       1       2.1    28.086
   11359      Si       1     SIL   Si11Z       1       2.1    28.086
   11360      Si       1     SIL   Si11a       1       2.1    28.086
   11361      Ob       1     SIL   O0235       1     -1.05    15.999
   11362      Ob       1     SIL   O0236       1     -1.05    15.999
   11363      Ob       1     SIL   O0237       1     -1.05    15.999
   11364      Ob       1     SIL   O0238       1     -1.05    15.999
   11365      Ob       1     SIL   O0239       1     -1.05    15.999
   11366      Ob       1     SIL   O023A       1     -1.05    15.999
   11367      Si       1     SIL   Si11b       1       2.1    28.086
   11368      Si       1     SIL   Si11c       1       2.1    28.086
   11369      Si       1     SIL   Si11d       1       2.1    28.086
   11370      Ob       1     SIL   O023B       1     -1.05    15.999
   11371      Ob       1     SIL   O023C       1     -1.05    15.999
   11372      Ob       1     SIL   O023D       1     -1.05    15.999
   11373      Ob       1     SIL   O023E       1     -1.05    15.999
   11374      Ob       1     SIL   O023F       1     -1.05    15.999
   11375      Ob       1     SIL   O023G       1     -1.05    15.999
   11376      Si       1     SIL   Si11e       1       2.1    28.086
   11377      Si       1     SIL   Si11f       1       2.1    28.086
   11378      Si       1     SIL   Si11g       1       2.1    28.086
   11379      Ob       1     SIL   O023H       1     -1.05    15.999
   11380      Ob       1     SIL   O023I       1     -1.05    15.999
   11381      Ob       1     SIL   O023J       1     -1.05    15.999
   11382      Ob       1     SIL   O023K       1     -1.05    15.999
   11383      Ob       1     SIL   O023L       1     -1.05    15.999
   11384      Ob       1     SIL   O023M       1     -1.05    15.999
   11385      Si       1     SIL   Si11h       1       2.1    28.086
   11386      Si       1     SIL   Si11i       1       2.1    28.086
   11387      Si       1     SIL   Si11j       1       2.1    28.086
   11388      Ob       1     SIL   O023N       1     -1.05    15.999
   11389      Ob       1     SIL   O023O       1     -1.05    15.999
   11390      Ob       1     SIL   O023P       1     -1.05    15.999
   11391      Ob       1     SIL   O023Q       1     -1.05    15.999
   11392      Ob       1     SIL   O023R       1     -1.05    15.999
   11393      Ob       1     SIL   O023S       1     -1.05    15.999
   11394      Si       1     SIL   Si11k       1       2.1    28.086
   11395      Si       1     SIL   Si11l       1       2.1    28.086
   11396      Si       1     SIL   Si11m       1       2.1    28.086
   11397      Ob       1     SIL   O023T       1     -1.05    15.999
   11398      Ob       1     SIL   O023U       1     -1.05    15.999
   11399      Ob       1     SIL   O023V       1     -1.05    15.999
   11400      Ob       1     SIL   O023W       1     -1.05    15.999
   11401      Ob       1     SIL   O023X       1     -1.05    15.999
   11402      Ob       1     SIL   O023Y       1     -1.05    15.999
   11403      Si       1     SIL   Si11n       1       2.1    28.086
   11404      Si       1     SIL   Si11o       1       2.1    28.086
   11405      Si       1     SIL   Si11p       1       2.1    28.086
   11406      Ob       1     SIL   O023Z       1     -1.05    15.999
   11407      Ob       1     SIL   O023a       1     -1.05    15.999
   11408      Ob       1     SIL   O023b       1     -1.05    15.999
   11409      Ob       1     SIL   O023c       1     -1.05    15.999
   11410      Ob       1     SIL   O023d       1     -1.05    15.999
   11411      Ob       1     SIL   O023e       1     -1.05    15.999
   11412      Si       1     SIL   Si11q       1       2.1    28.086
   11413      Si       1     SIL   Si11r       1       2.1    28.086
   11414      Si       1     SIL   Si11s       1       2.1    28.086
   11415      Ob       1     SIL   O023f       1     -1.05    15.999
   11416      Ob       1     SIL   O023g       1     -1.05    15.999
   11417      Ob       1     SIL   O023h       1     -1.05    15.999
   11418      Ob       1     SIL   O023i       1     -1.05    15.999
   11419      Ob       1     SIL   O023j       1     -1.05    15.999
   11420      Ob       1     SIL   O023k       1     -1.05    15.999
   11421      Si       1     SIL   Si11t       1       2.1    28.086
   11422      Si       1     SIL   Si11u       1       2.1    28.086
   11423      Si       1     SIL   Si11v       1       2.1    28.086
   11424      Ob       1     SIL   O023l       1     -1.05    15.999
   11425      Ob       1     SIL   O023m       1     -1.05    15.999
   11426      Ob       1     SIL   O023n       1     -1.05    15.999
   11427      Ob       1     SIL   O023o       1     -1.05    15.999
   11428      Ob       1     SIL   O023p       1     -1.05    15.999
   11429      Ob       1     SIL   O023q       1     -1.05    15.999
   11430      Si       1     SIL   Si11w       1       2.1    28.086
   11431      Si       1     SIL   Si11x       1       2.1    28.086
   11432      Si       1     SIL   Si11y       1       2.1    28.086
   11433      Ob       1     SIL   O023r       1     -1.05    15.999
   11434      Ob       1     SIL   O023s       1     -1.05    15.999
   11435      Ob       1     SIL   O023t       1     -1.05    15.999
   11436      Ob       1     SIL   O023u       1     -1.05    15.999
   11437      Ob       1     SIL   O023v       1     -1.05    15.999
   11438      Ob       1     SIL   O023w       1     -1.05    15.999
   11439      Si       1     SIL   Si11z       1       2.1    28.086
   11440      Si       1     SIL   Si120       1       2.1    28.086
   11441      Si       1     SIL   Si121       1       2.1    28.086
   11442      Ob       1     SIL   O023x       1     -1.05    15.999
   11443      Ob       1     SIL   O023y       1     -1.05    15.999
   11444      Ob       1     SIL   O023z       1     -1.05    15.999
   11445      Ob       1     SIL   O0240       1     -1.05    15.999
   11446      Ob       1     SIL   O0241       1     -1.05    15.999
   11447      Ob       1     SIL   O0242       1     -1.05    15.999
   11448      Si       1     SIL   Si122       1       2.1    28.086
   11449      Si       1     SIL   Si123       1       2.1    28.086
   11450      Si       1     SIL   Si124       1       2.1    28.086
   11451      Ob       1     SIL   O0243       1     -1.05    15.999
   11452      Ob       1     SIL   O0244       1     -1.05    15.999
   11453      Ob       1     SIL   O0245       1     -1.05    15.999
   11454      Ob       1     SIL   O0246       1     -1.05    15.999
   11455      Ob       1     SIL   O0247       1     -1.05    15.999
   11456      Ob       1     SIL   O0248       1     -1.05    15.999
   11457      Si       1     SIL   Si125       1       2.1    28.086
   11458      Si       1     SIL   Si126       1       2.1    28.086
   11459      Si       1     SIL   Si127       1       2.1    28.086
   11460      Ob       1     SIL   O0249       1     -1.05    15.999
   11461      Ob       1     SIL   O024A       1     -1.05    15.999
   11462      Ob       1     SIL   O024B       1     -1.05    15.999
   11463      Ob       1     SIL   O024C       1     -1.05    15.999
   11464      Ob       1     SIL   O024D       1     -1.05    15.999
   11465      Ob       1     SIL   O024E       1     -1.05    15.999
   11466      Si       1     SIL   Si128       1       2.1    28.086
   11467      Si       1     SIL   Si129       1       2.1    28.086
   11468      Si       1     SIL   Si12A       1       2.1    28.086
   11469      Ob       1     SIL   O024F       1     -1.05    15.999
   11470      Ob       1     SIL   O024G       1     -1.05    15.999
   11471      Ob       1     SIL   O024H       1     -1.05    15.999
   11472      Ob       1     SIL   O024I       1     -1.05    15.999
   11473      Ob       1     SIL   O024J       1     -1.05    15.999
   11474      Ob       1     SIL   O024K       1     -1.05    15.999
   11475      Si       1     SIL   Si12B       1       2.1    28.086
   11476      Si       1     SIL   Si12C       1       2.1    28.086
   11477      Si       1     SIL   Si12D       1       2.1    28.086
   11478      Ob       1     SIL   O024L       1     -1.05    15.999
   11479      Ob       1     SIL   O024M       1     -1.05    15.999
   11480      Ob       1     SIL   O024N       1     -1.05    15.999
   11481      Ob       1     SIL   O024O       1     -1.05    15.999
   11482      Ob       1     SIL   O024P       1     -1.05    15.999
   11483      Ob       1     SIL   O024Q       1     -1.05    15.999
   11484      Si       1     SIL   Si12E       1       2.1    28.086
   11485      Si       1     SIL   Si12F       1       2.1    28.086
   11486      Si       1     SIL   Si12G       1       2.1    28.086
   11487      Ob       1     SIL   O024R       1     -1.05    15.999
   11488      Ob       1     SIL   O024S       1     -1.05    15.999
   11489      Ob       1     SIL   O024T       1     -1.05    15.999
   11490      Ob       1     SIL   O024U       1     -1.05    15.999
   11491      Ob       1     SIL   O024V       1     -1.05    15.999
   11492      Ob       1     SIL   O024W       1     -1.05    15.999
   11493      Si       1     SIL   Si12H       1       2.1    28.086
   11494      Si       1     SIL   Si12I       1       2.1    28.086
   11495      Si       1     SIL   Si12J       1       2.1    28.086
   11496      Ob       1     SIL   O024X       1     -1.05    15.999
   11497      Ob       1     SIL   O024Y       1     -1.05    15.999
   11498      Ob       1     SIL   O024Z       1     -1.05    15.999
   11499      Ob       1     SIL   O024a       1     -1.05    15.999
   11500      Ob       1     SIL   O024b       1     -1.05    15.999
   11501      Ob       1     SIL   O024c       1     -1.05    15.999
   11502      Si       1     SIL   Si12K       1       2.1    28.086
   11503      Si       1     SIL   Si12L       1       2.1    28.086
   11504      Si       1     SIL   Si12M       1       2.1    28.086
   11505      Ob       1     SIL   O024d       1     -1.05    15.999
   11506      Ob       1     SIL   O024e       1     -1.05    15.999
   11507      Ob       1     SIL   O024f       1     -1.05    15.999
   11508      Ob       1     SIL   O024g       1     -1.05    15.999
   11509      Ob       1     SIL   O024h       1     -1.05    15.999
   11510      Ob       1     SIL   O024i       1     -1.05    15.999
   11511      Si       1     SIL   Si12N       1       2.1    28.086
   11512      Si       1     SIL   Si12O       1       2.1    28.086
   11513      Si       1     SIL   Si12P       1       2.1    28.086
   11514      Ob       1     SIL   O024j       1     -1.05    15.999
   11515      Ob       1     SIL   O024k       1     -1.05    15.999
   11516      Ob       1     SIL   O024l       1     -1.05    15.999
   11517      Ob       1     SIL   O024m       1     -1.05    15.999
   11518      Ob       1     SIL   O024n       1     -1.05    15.999
   11519      Ob       1     SIL   O024o       1     -1.05    15.999
   11520      Si       1     SIL   Si12Q       1       2.1    28.086
   11521      Si       1     SIL   Si12R       1       2.1    28.086
   11522      Si       1     SIL   Si12S       1       2.1    28.086
   11523      Ob       1     SIL   O024p       1     -1.05    15.999
   11524      Ob       1     SIL   O024q       1     -1.05    15.999
   11525      Ob       1     SIL   O024r       1     -1.05    15.999
   11526      Ob       1     SIL   O024s       1     -1.05    15.999
   11527      Ob       1     SIL   O024t       1     -1.05    15.999
   11528      Ob       1     SIL   O024u       1     -1.05    15.999
   11529      Si       1     SIL   Si12T       1       2.1    28.086
   11530      Si       1     SIL   Si12U       1       2.1    28.086
   11531      Si       1     SIL   Si12V       1       2.1    28.086
   11532      Ob       1     SIL   O024v       1     -1.05    15.999
   11533      Ob       1     SIL   O024w       1     -1.05    15.999
   11534      Ob       1     SIL   O024x       1     -1.05    15.999
   11535      Ob       1     SIL   O024y       1     -1.05    15.999
   11536      Ob       1     SIL   O024z       1     -1.05    15.999
   11537      Ob       1     SIL   O0250       1     -1.05    15.999
   11538      Si       1     SIL   Si12W       1       2.1    28.086
   11539      Si       1     SIL   Si12X       1       2.1    28.086
   11540      Si       1     SIL   Si12Y       1       2.1    28.086
   11541      Ob       1     SIL   O0251       1     -1.05    15.999
   11542       O       1     SIL   O0252       1    -0.525    15.999
   11543       O       1     SIL   O0253       1    -0.525    15.999
   11544      Ob       1     SIL   O0254       1     -1.05    15.999
   11545      Ob       1     SIL   O0255       1     -1.05    15.999
   11546      Ob       1     SIL   O0256       1     -1.05    15.999
   11547      Si       1     SIL   Si12Z       1       2.1    28.086
   11548      Si       1     SIL   Si12a       1       2.1    28.086
   11549      Si       1     SIL   Si12b       1       2.1    28.086
   11550      Ob       1     SIL   O0257       1     -1.05    15.999
   11551      Ob       1     SIL   O0258       1     -1.05    15.999
   11552      Ob       1     SIL   O0259       1     -1.05    15.999
   11553      Ob       1     SIL   O025A       1     -1.05    15.999
   11554      Ob       1     SIL   O025B       1     -1.05    15.999
   11555      Ob       1     SIL   O025C       1     -1.05    15.999
   11556      Si       1     SIL   Si12c       1       2.1    28.086
   11557      Si       1     SIL   Si12d       1       2.1    28.086
   11558      Si       1     SIL   Si12e       1       2.1    28.086
   11559      Ob       1     SIL   O025D       1     -1.05    15.999
   11560      Ob       1     SIL   O025E       1     -1.05    15.999
   11561      Ob       1     SIL   O025F       1     -1.05    15.999
   11562      Ob       1     SIL   O025G       1     -1.05    15.999
   11563      Ob       1     SIL   O025H       1     -1.05    15.999
   11564      Ob       1     SIL   O025I       1     -1.05    15.999
   11565      Si       1     SIL   Si12f       1       2.1    28.086
   11566      Si       1     SIL   Si12g       1       2.1    28.086
   11567      Si       1     SIL   Si12h       1       2.1    28.086
   11568      Ob       1     SIL   O025J       1     -1.05    15.999
   11569      Ob       1     SIL   O025K       1     -1.05    15.999
   11570      Ob       1     SIL   O025L       1     -1.05    15.999
   11571      Ob       1     SIL   O025M       1     -1.05    15.999
   11572      Ob       1     SIL   O025N       1     -1.05    15.999
   11573      Ob       1     SIL   O025O       1     -1.05    15.999
   11574      Si       1     SIL   Si12i       1       2.1    28.086
   11575      Si       1     SIL   Si12j       1       2.1    28.086
   11576      Si       1     SIL   Si12k       1       2.1    28.086
   11577      Ob       1     SIL   O025P       1     -1.05    15.999
   11578      Ob       1     SIL   O025Q       1     -1.05    15.999
   11579      Ob       1     SIL   O025R       1     -1.05    15.999
   11580      Ob       1     SIL   O025S       1     -1.05    15.999
   11581      Ob       1     SIL   O025T       1     -1.05    15.999
   11582      Ob       1     SIL   O025U       1     -1.05    15.999
   11583      Si       1     SIL   Si12l       1       2.1    28.086
   11584      Si       1     SIL   Si12m       1       2.1    28.086
   11585      Si       1     SIL   Si12n       1       2.1    28.086
   11586      Ob       1     SIL   O025V       1     -1.05    15.999
   11587      Ob       1     SIL   O025W       1     -1.05    15.999
   11588      Ob       1     SIL   O025X       1     -1.05    15.999
   11589      Ob       1     SIL   O025Y       1     -1.05    15.999
   11590      Ob       1     SIL   O025Z       1     -1.05    15.999
   11591      Ob       1     SIL   O025a       1     -1.05    15.999
   11592      Si       1     SIL   Si12o       1       2.1    28.086
   11593      Si       1     SIL   Si12p       1       2.1    28.086
   11594      Si       1     SIL   Si12q       1       2.1    28.086
   11595      Ob       1     SIL   O025b       1     -1.05    15.999
   11596      Ob       1     SIL   O025c       1     -1.05    15.999
   11597      Ob       1     SIL   O025d       1     -1.05    15.999
   11598      Ob       1     SIL   O025e       1     -1.05    15.999
   11599      Ob       1     SIL   O025f       1     -1.05    15.999
   11600      Ob       1     SIL   O025g       1     -1.05    15.999
   11601      Si       1     SIL   Si12r       1       2.1    28.086
   11602      Si       1     SIL   Si12s       1       2.1    28.086
   11603      Si       1     SIL   Si12t       1       2.1    28.086
   11604      Ob       1     SIL   O025h       1     -1.05    15.999
   11605      Ob       1     SIL   O025i       1     -1.05    15.999
   11606      Ob       1     SIL   O025j       1     -1.05    15.999
   11607      Ob       1     SIL   O025k       1     -1.05    15.999
   11608      Ob       1     SIL   O025l       1     -1.05    15.999
   11609      Ob       1     SIL   O025m       1     -1.05    15.999
   11610      Si       1     SIL   Si12u       1       2.1    28.086
   11611      Si       1     SIL   Si12v       1       2.1    28.086
   11612      Si       1     SIL   Si12w       1       2.1    28.086
   11613      Ob       1     SIL   O025n       1     -1.05    15.999
   11614      Ob       1     SIL   O025o       1     -1.05    15.999
   11615      Ob       1     SIL   O025p       1     -1.05    15.999
   11616      Ob       1     SIL   O025q       1     -1.05    15.999
   11617      Ob       1     SIL   O025r       1     -1.05    15.999
   11618      Ob       1     SIL   O025s       1     -1.05    15.999
   11619      Si       1     SIL   Si12x       1       2.1    28.086
   11620      Si       1     SIL   Si12y       1       2.1    28.086
   11621      Si       1     SIL   Si12z       1       2.1    28.086
   11622      Ob       1     SIL   O025t       1     -1.05    15.999
   11623      Ob       1     SIL   O025u       1     -1.05    15.999
   11624      Ob       1     SIL   O025v       1     -1.05    15.999
   11625      Ob       1     SIL   O025w       1     -1.05    15.999
   11626      Ob       1     SIL   O025x       1     -1.05    15.999
   11627      Ob       1     SIL   O025y       1     -1.05    15.999
   11628      Si       1     SIL   Si130       1       2.1    28.086
   11629      Si       1     SIL   Si131       1       2.1    28.086
   11630      Si       1     SIL   Si132       1       2.1    28.086
   11631      Ob       1     SIL   O025z       1     -1.05    15.999
   11632      Ob       1     SIL   O0260       1     -1.05    15.999
   11633      Ob       1     SIL   O0261       1     -1.05    15.999
   11634      Ob       1     SIL   O0262       1     -1.05    15.999
   11635      Ob       1     SIL   O0263       1     -1.05    15.999
   11636      Ob       1     SIL   O0264       1     -1.05    15.999
   11637      Si       1     SIL   Si133       1       2.1    28.086
   11638      Si       1     SIL   Si134       1       2.1    28.086
   11639      Si       1     SIL   Si135       1       2.1    28.086
   11640      Ob       1     SIL   O0265       1     -1.05    15.999
   11641      Ob       1     SIL   O0266       1     -1.05    15.999
   11642      Ob       1     SIL   O0267       1     -1.05    15.999
   11643      Ob       1     SIL   O0268       1     -1.05    15.999
   11644      Ob       1     SIL   O0269       1     -1.05    15.999
   11645      Ob       1     SIL   O026A       1     -1.05    15.999
   11646      Si       1     SIL   Si136       1       2.1    28.086
   11647      Si       1     SIL   Si137       1       2.1    28.086
   11648      Si       1     SIL   Si138       1       2.1    28.086
   11649      Ob       1     SIL   O026B       1     -1.05    15.999
   11650      Ob       1     SIL   O026C       1     -1.05    15.999
   11651      Ob       1     SIL   O026D       1     -1.05    15.999
   11652      Ob       1     SIL   O026E       1     -1.05    15.999
   11653      Ob       1     SIL   O026F       1     -1.05    15.999
   11654      Ob       1     SIL   O026G       1     -1.05    15.999
   11655      Si       1     SIL   Si139       1       2.1    28.086
   11656      Si       1     SIL   Si13A       1       2.1    28.086
   11657      Si       1     SIL   Si13B       1       2.1    28.086
   11658      Ob       1     SIL   O026H       1     -1.05    15.999
   11659      Ob       1     SIL   O026I       1     -1.05    15.999
   11660      Ob       1     SIL   O026J       1     -1.05    15.999
   11661      Ob       1     SIL   O026K       1     -1.05    15.999
   11662      Ob       1     SIL   O026L       1     -1.05    15.999
   11663      Ob       1     SIL   O026M       1     -1.05    15.999
   11664      Si       1     SIL   Si13C       1       2.1    28.086
   11665      Si       1     SIL   Si13D       1       2.1    28.086
   11666      Si       1     SIL   Si13E       1       2.1    28.086
   11667      Ob       1     SIL   O026N       1     -1.05    15.999
   11668      Ob       1     SIL   O026O       1     -1.05    15.999
   11669      Ob       1     SIL   O026P       1     -1.05    15.999
   11670      Ob       1     SIL   O026Q       1     -1.05    15.999
   11671      Ob       1     SIL   O026R       1     -1.05    15.999
   11672      Ob       1     SIL   O026S       1     -1.05    15.999
   11673      Si       1     SIL   Si13F       1       2.1    28.086
   11674      Si       1     SIL   Si13G       1       2.1    28.086
   11675      Si       1     SIL   Si13H       1       2.1    28.086
   11676      Ob       1     SIL   O026T       1     -1.05    15.999
   11677      Ob       1     SIL   O026U       1     -1.05    15.999
   11678      Ob       1     SIL   O026V       1     -1.05    15.999
   11679      Ob       1     SIL   O026W       1     -1.05    15.999
   11680      Ob       1     SIL   O026X       1     -1.05    15.999
   11681      Ob       1     SIL   O026Y       1     -1.05    15.999
   11682      Si       1     SIL   Si13I       1       2.1    28.086
   11683      Si       1     SIL   Si13J       1       2.1    28.086
   11684      Si       1     SIL   Si13K       1       2.1    28.086
   11685      Ob       1     SIL   O026Z       1     -1.05    15.999
   11686      Ob       1     SIL   O026a       1     -1.05    15.999
   11687      Ob       1     SIL   O026b       1     -1.05    15.999
   11688      Ob       1     SIL   O026c       1     -1.05    15.999
   11689      Ob       1     SIL   O026d       1     -1.05    15.999
   11690      Ob       1     SIL   O026e       1     -1.05    15.999
   11691      Si       1     SIL   Si13L       1       2.1    28.086
   11692      Si       1     SIL   Si13M       1       2.1    28.086
   11693      Si       1     SIL   Si13N       1       2.1    28.086
   11694      Ob       1     SIL   O026f       1     -1.05    15.999
   11695      Ob       1     SIL   O026g       1     -1.05    15.999
   11696      Ob       1     SIL   O026h       1     -1.05    15.999
   11697      Ob       1     SIL   O026i       1     -1.05    15.999
   11698      Ob       1     SIL   O026j       1     -1.05    15.999
   11699      Ob       1     SIL   O026k       1     -1.05    15.999
   11700      Si       1     SIL   Si13O       1       2.1    28.086
   11701      Si       1     SIL   Si13P       1       2.1    28.086
   11702      Si       1     SIL   Si13Q       1       2.1    28.086
   11703      Ob       1     SIL   O026l       1     -1.05    15.999
   11704      Ob       1     SIL   O026m       1     -1.05    15.999
   11705      Ob       1     SIL   O026n       1     -1.05    15.999
   11706      Ob       1     SIL   O026o       1     -1.05    15.999
   11707      Ob       1     SIL   O026p       1     -1.05    15.999
   11708      Ob       1     SIL   O026q       1     -1.05    15.999
   11709      Si       1     SIL   Si13R       1       2.1    28.086
   11710      Si       1     SIL   Si13S       1       2.1    28.086
   11711      Si       1     SIL   Si13T       1       2.1    28.086
   11712      Ob       1     SIL   O026r       1     -1.05    15.999
   11713      Ob       1     SIL   O026s       1     -1.05    15.999
   11714      Ob       1     SIL   O026t       1     -1.05    15.999
   11715      Ob       1     SIL   O026u       1     -1.05    15.999
   11716      Ob       1     SIL   O026v       1     -1.05    15.999
   11717      Ob       1     SIL   O026w       1     -1.05    15.999
   11718      Si       1     SIL   Si13U       1       2.1    28.086
   11719      Si       1     SIL   Si13V       1       2.1    28.086
   11720      Si       1     SIL   Si13W       1       2.1    28.086
   11721      Ob       1     SIL   O026x       1     -1.05    15.999
   11722      Ob       1     SIL   O026y       1     -1.05    15.999
   11723      Ob       1     SIL   O026z       1     -1.05    15.999
   11724      Ob       1     SIL   O0270       1     -1.05    15.999
   11725      Ob       1     SIL   O0271       1     -1.05    15.999
   11726      Ob       1     SIL   O0272       1     -1.05    15.999
   11727      Si       1     SIL   Si13X       1       2.1    28.086
   11728      Si       1     SIL   Si13Y       1       2.1    28.086
   11729      Si       1     SIL   Si13Z       1       2.1    28.086
   11730      Ob       1     SIL   O0273       1     -1.05    15.999
   11731      Ob       1     SIL   O0274       1     -1.05    15.999
   11732      Ob       1     SIL   O0275       1     -1.05    15.999
   11733      Ob       1     SIL   O0276       1     -1.05    15.999
   11734      Ob       1     SIL   O0277       1     -1.05    15.999
   11735      Ob       1     SIL   O0278       1     -1.05    15.999
   11736      Si       1     SIL   Si13a       1       2.1    28.086
   11737      Si       1     SIL   Si13b       1       2.1    28.086
   11738      Si       1     SIL   Si13c       1       2.1    28.086
   11739      Ob       1     SIL   O0279       1     -1.05    15.999
   11740      Ob       1     SIL   O027A       1     -1.05    15.999
   11741      Ob       1     SIL   O027B       1     -1.05    15.999
   11742      Ob       1     SIL   O027C       1     -1.05    15.999
   11743      Ob       1     SIL   O027D       1     -1.05    15.999
   11744      Ob       1     SIL   O027E       1     -1.05    15.999
   11745      Si       1     SIL   Si13d       1       2.1    28.086
   11746      Si       1     SIL   Si13e       1       2.1    28.086
   11747      Si       1     SIL   Si13f       1       2.1    28.086
   11748      Ob       1     SIL   O027F       1     -1.05    15.999
   11749       O       1     SIL   O027G       1    -0.525    15.999
   11750       O       1     SIL   O027H       1    -0.525    15.999
   11751      Ob       1     SIL   O027I       1     -1.05    15.999
   11752      Ob       1     SIL   O027J       1     -1.05    15.999
   11753      Ob       1     SIL   O027K       1     -1.05    15.999
   11754      Si       1     SIL   Si13g       1       2.1    28.086
   11755      Si       1     SIL   Si13h       1       2.1    28.086
   11756      Si       1     SIL   Si13i       1       2.1    28.086
   11757      Ob       1     SIL   O027L       1     -1.05    15.999
   11758      Ob       1     SIL   O027M       1     -1.05    15.999
   11759      Ob       1     SIL   O027N       1     -1.05    15.999
   11760      Ob       1     SIL   O027O       1     -1.05    15.999
   11761      Ob       1     SIL   O027P       1     -1.05    15.999
   11762      Ob       1     SIL   O027Q       1     -1.05    15.999
   11763      Si       1     SIL   Si13j       1       2.1    28.086
   11764      Si       1     SIL   Si13k       1       2.1    28.086
   11765      Si       1     SIL   Si13l       1       2.1    28.086
   11766      Ob       1     SIL   O027R       1     -1.05    15.999
   11767      Ob       1     SIL   O027S       1     -1.05    15.999
   11768      Ob       1     SIL   O027T       1     -1.05    15.999
   11769      Ob       1     SIL   O027U       1     -1.05    15.999
   11770      Ob       1     SIL   O027V       1     -1.05    15.999
   11771      Ob       1     SIL   O027W       1     -1.05    15.999
   11772      Si       1     SIL   Si13m       1       2.1    28.086
   11773      Si       1     SIL   Si13n       1       2.1    28.086
   11774      Si       1     SIL   Si13o       1       2.1    28.086
   11775      Ob       1     SIL   O027X       1     -1.05    15.999
   11776      Ob       1     SIL   O027Y       1     -1.05    15.999
   11777      Ob       1     SIL   O027Z       1     -1.05    15.999
   11778      Ob       1     SIL   O027a       1     -1.05    15.999
   11779      Ob       1     SIL   O027b       1     -1.05    15.999
   11780      Ob       1     SIL   O027c       1     -1.05    15.999
   11781      Si       1     SIL   Si13p       1       2.1    28.086
   11782      Si       1     SIL   Si13q       1       2.1    28.086
   11783      Si       1     SIL   Si13r       1       2.1    28.086
   11784      Ob       1     SIL   O027d       1     -1.05    15.999
   11785      Ob       1     SIL   O027e       1     -1.05    15.999
   11786      Ob       1     SIL   O027f       1     -1.05    15.999
   11787      Ob       1     SIL   O027g       1     -1.05    15.999
   11788      Ob       1     SIL   O027h       1     -1.05    15.999
   11789      Ob       1     SIL   O027i       1     -1.05    15.999
   11790      Si       1     SIL   Si13s       1       2.1    28.086
   11791      Si       1     SIL   Si13t       1       2.1    28.086
   11792      Si       1     SIL   Si13u       1       2.1    28.086
   11793      Ob       1     SIL   O027j       1     -1.05    15.999
   11794      Ob       1     SIL   O027k       1     -1.05    15.999
   11795      Ob       1     SIL   O027l       1     -1.05    15.999
   11796      Ob       1     SIL   O027m       1     -1.05    15.999
   11797      Ob       1     SIL   O027n       1     -1.05    15.999
   11798      Ob       1     SIL   O027o       1     -1.05    15.999
   11799      Si       1     SIL   Si13v       1       2.1    28.086
   11800      Si       1     SIL   Si13w       1       2.1    28.086
   11801      Si       1     SIL   Si13x       1       2.1    28.086
   11802      Ob       1     SIL   O027p       1     -1.05    15.999
   11803      Ob       1     SIL   O027q       1     -1.05    15.999
   11804      Ob       1     SIL   O027r       1     -1.05    15.999
   11805      Ob       1     SIL   O027s       1     -1.05    15.999
   11806      Ob       1     SIL   O027t       1     -1.05    15.999
   11807      Ob       1     SIL   O027u       1     -1.05    15.999
   11808      Si       1     SIL   Si13y       1       2.1    28.086
   11809      Si       1     SIL   Si13z       1       2.1    28.086
   11810      Si       1     SIL   Si140       1       2.1    28.086
   11811      Ob       1     SIL   O027v       1     -1.05    15.999
   11812      Ob       1     SIL   O027w       1     -1.05    15.999
   11813      Ob       1     SIL   O027x       1     -1.05    15.999
   11814      Ob       1     SIL   O027y       1     -1.05    15.999
   11815      Ob       1     SIL   O027z       1     -1.05    15.999
   11816      Ob       1     SIL   O0280       1     -1.05    15.999
   11817      Si       1     SIL   Si141       1       2.1    28.086
   11818      Si       1     SIL   Si142       1       2.1    28.086
   11819      Si       1     SIL   Si143       1       2.1    28.086
   11820      Ob       1     SIL   O0281       1     -1.05    15.999
   11821      Ob       1     SIL   O0282       1     -1.05    15.999
   11822      Ob       1     SIL   O0283       1     -1.05    15.999
   11823      Ob       1     SIL   O0284       1     -1.05    15.999
   11824      Ob       1     SIL   O0285       1     -1.05    15.999
   11825      Ob       1     SIL   O0286       1     -1.05    15.999
   11826      Si       1     SIL   Si144       1       2.1    28.086
   11827      Si       1     SIL   Si145       1       2.1    28.086
   11828      Si       1     SIL   Si146       1       2.1    28.086
   11829      Ob       1     SIL   O0287       1     -1.05    15.999
   11830      Ob       1     SIL   O0288       1     -1.05    15.999
   11831      Ob       1     SIL   O0289       1     -1.05    15.999
   11832      Ob       1     SIL   O028A       1     -1.05    15.999
   11833      Ob       1     SIL   O028B       1     -1.05    15.999
   11834      Ob       1     SIL   O028C       1     -1.05    15.999
   11835      Si       1     SIL   Si147       1       2.1    28.086
   11836      Si       1     SIL   Si148       1       2.1    28.086
   11837      Si       1     SIL   Si149       1       2.1    28.086
   11838      Ob       1     SIL   O028D       1     -1.05    15.999
   11839      Ob       1     SIL   O028E       1     -1.05    15.999
   11840      Ob       1     SIL   O028F       1     -1.05    15.999
   11841      Ob       1     SIL   O028G       1     -1.05    15.999
   11842      Ob       1     SIL   O028H       1     -1.05    15.999
   11843      Ob       1     SIL   O028I       1     -1.05    15.999
   11844      Si       1     SIL   Si14A       1       2.1    28.086
   11845      Si       1     SIL   Si14B       1       2.1    28.086
   11846      Si       1     SIL   Si14C       1       2.1    28.086
   11847      Ob       1     SIL   O028J       1     -1.05    15.999
   11848      Ob       1     SIL   O028K       1     -1.05    15.999
   11849      Ob       1     SIL   O028L       1     -1.05    15.999
   11850      Ob       1     SIL   O028M       1     -1.05    15.999
   11851      Ob       1     SIL   O028N       1     -1.05    15.999
   11852      Ob       1     SIL   O028O       1     -1.05    15.999
   11853      Si       1     SIL   Si14D       1       2.1    28.086
   11854      Si       1     SIL   Si14E       1       2.1    28.086
   11855      Si       1     SIL   Si14F       1       2.1    28.086
   11856      Ob       1     SIL   O028P       1     -1.05    15.999
   11857      Ob       1     SIL   O028Q       1     -1.05    15.999
   11858      Ob       1     SIL   O028R       1     -1.05    15.999
   11859      Ob       1     SIL   O028S       1     -1.05    15.999
   11860      Ob       1     SIL   O028T       1     -1.05    15.999
   11861      Ob       1     SIL   O028U       1     -1.05    15.999
   11862      Si       1     SIL   Si14G       1       2.1    28.086
   11863      Si       1     SIL   Si14H       1       2.1    28.086
   11864      Si       1     SIL   Si14I       1       2.1    28.086
   11865      Ob       1     SIL   O028V       1     -1.05    15.999
   11866      Ob       1     SIL   O028W       1     -1.05    15.999
   11867      Ob       1     SIL   O028X       1     -1.05    15.999
   11868      Ob       1     SIL   O028Y       1     -1.05    15.999
   11869      Ob       1     SIL   O028Z       1     -1.05    15.999
   11870      Ob       1     SIL   O028a       1     -1.05    15.999
   11871      Si       1     SIL   Si14J       1       2.1    28.086
   11872      Si       1     SIL   Si14K       1       2.1    28.086
   11873      Si       1     SIL   Si14L       1       2.1    28.086
   11874      Ob       1     SIL   O028b       1     -1.05    15.999
   11875      Ob       1     SIL   O028c       1     -1.05    15.999
   11876      Ob       1     SIL   O028d       1     -1.05    15.999
   11877      Ob       1     SIL   O028e       1     -1.05    15.999
   11878      Ob       1     SIL   O028f       1     -1.05    15.999
   11879      Ob       1     SIL   O028g       1     -1.05    15.999
   11880      Si       1     SIL   Si14M       1       2.1    28.086
   11881      Si       1     SIL   Si14N       1       2.1    28.086
   11882      Si       1     SIL   Si14O       1       2.1    28.086
   11883      Ob       1     SIL   O028h       1     -1.05    15.999
   11884      Ob       1     SIL   O028i       1     -1.05    15.999
   11885      Ob       1     SIL   O028j       1     -1.05    15.999
   11886      Ob       1     SIL   O028k       1     -1.05    15.999
   11887      Ob       1     SIL   O028l       1     -1.05    15.999
   11888      Ob       1     SIL   O028m       1     -1.05    15.999
   11889      Si       1     SIL   Si14P       1       2.1    28.086
   11890      Si       1     SIL   Si14Q       1       2.1    28.086
   11891      Si       1     SIL   Si14R       1       2.1    28.086
   11892      Ob       1     SIL   O028n       1     -1.05    15.999
   11893      Ob       1     SIL   O028o       1     -1.05    15.999
   11894      Ob       1     SIL   O028p       1     -1.05    15.999
   11895      Ob       1     SIL   O028q       1     -1.05    15.999
   11896      Ob       1     SIL   O028r       1     -1.05    15.999
   11897      Ob       1     SIL   O028s       1     -1.05    15.999
   11898      Si       1     SIL   Si14S       1       2.1    28.086
   11899      Si       1     SIL   Si14T       1       2.1    28.086
   11900      Si       1     SIL   Si14U       1       2.1    28.086
   11901      Ob       1     SIL   O028t       1     -1.05    15.999
   11902      Ob       1     SIL   O028u       1     -1.05    15.999
   11903      Ob       1     SIL   O028v       1     -1.05    15.999
   11904      Ob       1     SIL   O028w       1     -1.05    15.999
   11905      Ob       1     SIL   O028x       1     -1.05    15.999
   11906      Ob       1     SIL   O028y       1     -1.05    15.999
   11907      Si       1     SIL   Si14V       1       2.1    28.086
   11908      Si       1     SIL   Si14W       1       2.1    28.086
   11909      Si       1     SIL   Si14X       1       2.1    28.086
   11910      Ob       1     SIL   O028z       1     -1.05    15.999
   11911      Ob       1     SIL   O0290       1     -1.05    15.999
   11912      Ob       1     SIL   O0291       1     -1.05    15.999
   11913      Ob       1     SIL   O0292       1     -1.05    15.999
   11914      Ob       1     SIL   O0293       1     -1.05    15.999
   11915      Ob       1     SIL   O0294       1     -1.05    15.999
   11916      Si       1     SIL   Si14Y       1       2.1    28.086
   11917      Si       1     SIL   Si14Z       1       2.1    28.086
   11918      Si       1     SIL   Si14a       1       2.1    28.086
   11919      Ob       1     SIL   O0295       1     -1.05    15.999
   11920      Ob       1     SIL   O0296       1     -1.05    15.999
   11921      Ob       1     SIL   O0297       1     -1.05    15.999
   11922      Ob       1     SIL   O0298       1     -1.05    15.999
   11923      Ob       1     SIL   O0299       1     -1.05    15.999
   11924      Ob       1     SIL   O029A       1     -1.05    15.999
   11925      Si       1     SIL   Si14b       1       2.1    28.086
   11926      Si       1     SIL   Si14c       1       2.1    28.086
   11927      Si       1     SIL   Si14d       1       2.1    28.086
   11928      Ob       1     SIL   O029B       1     -1.05    15.999
   11929      Ob       1     SIL   O029C       1     -1.05    15.999
   11930      Ob       1     SIL   O029D       1     -1.05    15.999
   11931      Ob       1     SIL   O029E       1     -1.05    15.999
   11932      Ob       1     SIL   O029F       1     -1.05    15.999
   11933      Ob       1     SIL   O029G       1     -1.05    15.999
   11934      Si       1     SIL   Si14e       1       2.1    28.086
   11935      Si       1     SIL   Si14f       1       2.1    28.086
   11936      Si       1     SIL   Si14g       1       2.1    28.086
   11937      Ob       1     SIL   O029H       1     -1.05    15.999
   11938      Ob       1     SIL   O029I       1     -1.05    15.999
   11939      Ob       1     SIL   O029J       1     -1.05    15.999
   11940      Ob       1     SIL   O029K       1     -1.05    15.999
   11941      Ob       1     SIL   O029L       1     -1.05    15.999
   11942      Ob       1     SIL   O029M       1     -1.05    15.999
   11943      Si       1     SIL   Si14h       1       2.1    28.086
   11944      Si       1     SIL   Si14i       1       2.1    28.086
   11945      Si       1     SIL   Si14j       1       2.1    28.086
   11946      Ob       1     SIL   O029N       1     -1.05    15.999
   11947      Ob       1     SIL   O029O       1     -1.05    15.999
   11948      Ob       1     SIL   O029P       1     -1.05    15.999
   11949      Ob       1     SIL   O029Q       1     -1.05    15.999
   11950      Ob       1     SIL   O029R       1     -1.05    15.999
   11951      Ob       1     SIL   O029S       1     -1.05    15.999
   11952      Si       1     SIL   Si14k       1       2.1    28.086
   11953      Si       1     SIL   Si14l       1       2.1    28.086
   11954      Si       1     SIL   Si14m       1       2.1    28.086
   11955      Ob       1     SIL   O029T       1     -1.05    15.999
   11956       O       1     SIL   O029U       1    -0.525    15.999
   11957       O       1     SIL   O029V       1    -0.525    15.999
   11958      Ob       1     SIL   O029W       1     -1.05    15.999
   11959      Ob       1     SIL   O029X       1     -1.05    15.999
   11960      Ob       1     SIL   O029Y       1     -1.05    15.999
   11961      Si       1     SIL   Si14n       1       2.1    28.086
   11962      Si       1     SIL   Si14o       1       2.1    28.086
   11963      Si       1     SIL   Si14p       1       2.1    28.086
   11964      Ob       1     SIL   O029Z       1     -1.05    15.999
   11965      Ob       1     SIL   O029a       1     -1.05    15.999
   11966      Ob       1     SIL   O029b       1     -1.05    15.999
   11967      Ob       1     SIL   O029c       1     -1.05    15.999
   11968      Ob       1     SIL   O029d       1     -1.05    15.999
   11969      Ob       1     SIL   O029e       1     -1.05    15.999
   11970      Si       1     SIL   Si14q       1       2.1    28.086
   11971      Si       1     SIL   Si14r       1       2.1    28.086
   11972      Si       1     SIL   Si14s       1       2.1    28.086
   11973      Ob       1     SIL   O029f       1     -1.05    15.999
   11974      Ob       1     SIL   O029g       1     -1.05    15.999
   11975      Ob       1     SIL   O029h       1     -1.05    15.999
   11976      Ob       1     SIL   O029i       1     -1.05    15.999
   11977      Ob       1     SIL   O029j       1     -1.05    15.999
   11978      Ob       1     SIL   O029k       1     -1.05    15.999
   11979      Si       1     SIL   Si14t       1       2.1    28.086
   11980      Si       1     SIL   Si14u       1       2.1    28.086
   11981      Si       1     SIL   Si14v       1       2.1    28.086
   11982      Ob       1     SIL   O029l       1     -1.05    15.999
   11983      Ob       1     SIL   O029m       1     -1.05    15.999
   11984      Ob       1     SIL   O029n       1     -1.05    15.999
   11985      Ob       1     SIL   O029o       1     -1.05    15.999
   11986      Ob       1     SIL   O029p       1     -1.05    15.999
   11987      Ob       1     SIL   O029q       1     -1.05    15.999
   11988      Si       1     SIL   Si14w       1       2.1    28.086
   11989      Si       1     SIL   Si14x       1       2.1    28.086
   11990      Si       1     SIL   Si14y       1       2.1    28.086
   11991      Ob       1     SIL   O029r       1     -1.05    15.999
   11992      Ob       1     SIL   O029s       1     -1.05    15.999
   11993      Ob       1     SIL   O029t       1     -1.05    15.999
   11994      Ob       1     SIL   O029u       1     -1.05    15.999
   11995      Ob       1     SIL   O029v       1     -1.05    15.999
   11996      Ob       1     SIL   O029w       1     -1.05    15.999
   11997      Si       1     SIL   Si14z       1       2.1    28.086
   11998      Si       1     SIL   Si150       1       2.1    28.086
   11999      Si       1     SIL   Si151       1       2.1    28.086
   12000      Ob       1     SIL   O029x       1     -1.05    15.999
   12001      Ob       1     SIL   O029y       1     -1.05    15.999
   12002      Ob       1     SIL   O029z       1     -1.05    15.999
   12003      Ob       1     SIL   O02A0       1     -1.05    15.999
   12004      Ob       1     SIL   O02A1       1     -1.05    15.999
   12005      Ob       1     SIL   O02A2       1     -1.05    15.999
   12006      Si       1     SIL   Si152       1       2.1    28.086
   12007      Si       1     SIL   Si153       1       2.1    28.086
   12008      Si       1     SIL   Si154       1       2.1    28.086
   12009      Ob       1     SIL   O02A3       1     -1.05    15.999
   12010      Ob       1     SIL   O02A4       1     -1.05    15.999
   12011      Ob       1     SIL   O02A5       1     -1.05    15.999
   12012      Ob       1     SIL   O02A6       1     -1.05    15.999
   12013      Ob       1     SIL   O02A7       1     -1.05    15.999
   12014      Ob       1     SIL   O02A8       1     -1.05    15.999
   12015      Si       1     SIL   Si155       1       2.1    28.086
   12016      Si       1     SIL   Si156       1       2.1    28.086
   12017      Si       1     SIL   Si157       1       2.1    28.086
   12018      Ob       1     SIL   O02A9       1     -1.05    15.999
   12019      Ob       1     SIL   O02AA       1     -1.05    15.999
   12020      Ob       1     SIL   O02AB       1     -1.05    15.999
   12021      Ob       1     SIL   O02AC       1     -1.05    15.999
   12022      Ob       1     SIL   O02AD       1     -1.05    15.999
   12023      Ob       1     SIL   O02AE       1     -1.05    15.999
   12024      Si       1     SIL   Si158       1       2.1    28.086
   12025      Si       1     SIL   Si159       1       2.1    28.086
   12026      Si       1     SIL   Si15A       1       2.1    28.086
   12027      Ob       1     SIL   O02AF       1     -1.05    15.999
   12028      Ob       1     SIL   O02AG       1     -1.05    15.999
   12029      Ob       1     SIL   O02AH       1     -1.05    15.999
   12030      Ob       1     SIL   O02AI       1     -1.05    15.999
   12031      Ob       1     SIL   O02AJ       1     -1.05    15.999
   12032      Ob       1     SIL   O02AK       1     -1.05    15.999
   12033      Si       1     SIL   Si15B       1       2.1    28.086
   12034      Si       1     SIL   Si15C       1       2.1    28.086
   12035      Si       1     SIL   Si15D       1       2.1    28.086
   12036      Ob       1     SIL   O02AL       1     -1.05    15.999
   12037      Ob       1     SIL   O02AM       1     -1.05    15.999
   12038      Ob       1     SIL   O02AN       1     -1.05    15.999
   12039      Ob       1     SIL   O02AO       1     -1.05    15.999
   12040      Ob       1     SIL   O02AP       1     -1.05    15.999
   12041      Ob       1     SIL   O02AQ       1     -1.05    15.999
   12042      Si       1     SIL   Si15E       1       2.1    28.086
   12043      Si       1     SIL   Si15F       1       2.1    28.086
   12044      Si       1     SIL   Si15G       1       2.1    28.086
   12045      Ob       1     SIL   O02AR       1     -1.05    15.999
   12046      Ob       1     SIL   O02AS       1     -1.05    15.999
   12047      Ob       1     SIL   O02AT       1     -1.05    15.999
   12048      Ob       1     SIL   O02AU       1     -1.05    15.999
   12049      Ob       1     SIL   O02AV       1     -1.05    15.999
   12050      Ob       1     SIL   O02AW       1     -1.05    15.999
   12051      Si       1     SIL   Si15H       1       2.1    28.086
   12052      Si       1     SIL   Si15I       1       2.1    28.086
   12053      Si       1     SIL   Si15J       1       2.1    28.086
   12054      Ob       1     SIL   O02AX       1     -1.05    15.999
   12055      Ob       1     SIL   O02AY       1     -1.05    15.999
   12056      Ob       1     SIL   O02AZ       1     -1.05    15.999
   12057      Ob       1     SIL   O02Aa       1     -1.05    15.999
   12058      Ob       1     SIL   O02Ab       1     -1.05    15.999
   12059      Ob       1     SIL   O02Ac       1     -1.05    15.999
   12060      Si       1     SIL   Si15K       1       2.1    28.086
   12061      Si       1     SIL   Si15L       1       2.1    28.086
   12062      Si       1     SIL   Si15M       1       2.1    28.086
   12063      Ob       1     SIL   O02Ad       1     -1.05    15.999
   12064      Ob       1     SIL   O02Ae       1     -1.05    15.999
   12065      Ob       1     SIL   O02Af       1     -1.05    15.999
   12066      Ob       1     SIL   O02Ag       1     -1.05    15.999
   12067      Ob       1     SIL   O02Ah       1     -1.05    15.999
   12068      Ob       1     SIL   O02Ai       1     -1.05    15.999
   12069      Si       1     SIL   Si15N       1       2.1    28.086
   12070      Si       1     SIL   Si15O       1       2.1    28.086
   12071      Si       1     SIL   Si15P       1       2.1    28.086
   12072      Ob       1     SIL   O02Aj       1     -1.05    15.999
   12073      Ob       1     SIL   O02Ak       1     -1.05    15.999
   12074      Ob       1     SIL   O02Al       1     -1.05    15.999
   12075      Ob       1     SIL   O02Am       1     -1.05    15.999
   12076      Ob       1     SIL   O02An       1     -1.05    15.999
   12077      Ob       1     SIL   O02Ao       1     -1.05    15.999
   12078      Si       1     SIL   Si15Q       1       2.1    28.086
   12079      Si       1     SIL   Si15R       1       2.1    28.086
   12080      Si       1     SIL   Si15S       1       2.1    28.086
   12081      Ob       1     SIL   O02Ap       1     -1.05    15.999
   12082      Ob       1     SIL   O02Aq       1     -1.05    15.999
   12083      Ob       1     SIL   O02Ar       1     -1.05    15.999
   12084      Ob       1     SIL   O02As       1     -1.05    15.999
   12085      Ob       1     SIL   O02At       1     -1.05    15.999
   12086      Ob       1     SIL   O02Au       1     -1.05    15.999
   12087      Si       1     SIL   Si15T       1       2.1    28.086
   12088      Si       1     SIL   Si15U       1       2.1    28.086
   12089      Si       1     SIL   Si15V       1       2.1    28.086
   12090      Ob       1     SIL   O02Av       1     -1.05    15.999
   12091      Ob       1     SIL   O02Aw       1     -1.05    15.999
   12092      Ob       1     SIL   O02Ax       1     -1.05    15.999
   12093      Ob       1     SIL   O02Ay       1     -1.05    15.999
   12094      Ob       1     SIL   O02Az       1     -1.05    15.999
   12095      Ob       1     SIL   O02B0       1     -1.05    15.999
   12096      Si       1     SIL   Si15W       1       2.1    28.086
   12097      Si       1     SIL   Si15X       1       2.1    28.086
   12098      Si       1     SIL   Si15Y       1       2.1    28.086
   12099      Ob       1     SIL   O02B1       1     -1.05    15.999
   12100      Ob       1     SIL   O02B2       1     -1.05    15.999
   12101      Ob       1     SIL   O02B3       1     -1.05    15.999
   12102      Ob       1     SIL   O02B4       1     -1.05    15.999
   12103      Ob       1     SIL   O02B5       1     -1.05    15.999
   12104      Ob       1     SIL   O02B6       1     -1.05    15.999
   12105      Si       1     SIL   Si15Z       1       2.1    28.086
   12106      Si       1     SIL   Si15a       1       2.1    28.086
   12107      Si       1     SIL   Si15b       1       2.1    28.086
   12108      Ob       1     SIL   O02B7       1     -1.05    15.999
   12109      Ob       1     SIL   O02B8       1     -1.05    15.999
   12110      Ob       1     SIL   O02B9       1     -1.05    15.999
   12111      Ob       1     SIL   O02BA       1     -1.05    15.999
   12112      Ob       1     SIL   O02BB       1     -1.05    15.999
   12113      Ob       1     SIL   O02BC       1     -1.05    15.999
   12114      Si       1     SIL   Si15c       1       2.1    28.086
   12115      Si       1     SIL   Si15d       1       2.1    28.086
   12116      Si       1     SIL   Si15e       1       2.1    28.086
   12117      Ob       1     SIL   O02BD       1     -1.05    15.999
   12118      Ob       1     SIL   O02BE       1     -1.05    15.999
   12119      Ob       1     SIL   O02BF       1     -1.05    15.999
   12120      Ob       1     SIL   O02BG       1     -1.05    15.999
   12121      Ob       1     SIL   O02BH       1     -1.05    15.999
   12122      Ob       1     SIL   O02BI       1     -1.05    15.999
   12123      Si       1     SIL   Si15f       1       2.1    28.086
   12124      Si       1     SIL   Si15g       1       2.1    28.086
   12125      Si       1     SIL   Si15h       1       2.1    28.086
   12126      Ob       1     SIL   O02BJ       1     -1.05    15.999
   12127      Ob       1     SIL   O02BK       1     -1.05    15.999
   12128      Ob       1     SIL   O02BL       1     -1.05    15.999
   12129      Ob       1     SIL   O02BM       1     -1.05    15.999
   12130      Ob       1     SIL   O02BN       1     -1.05    15.999
   12131      Ob       1     SIL   O02BO       1     -1.05    15.999
   12132      Si       1     SIL   Si15i       1       2.1    28.086
   12133      Si       1     SIL   Si15j       1       2.1    28.086
   12134      Si       1     SIL   Si15k       1       2.1    28.086
   12135      Ob       1     SIL   O02BP       1     -1.05    15.999
   12136      Ob       1     SIL   O02BQ       1     -1.05    15.999
   12137      Ob       1     SIL   O02BR       1     -1.05    15.999
   12138      Ob       1     SIL   O02BS       1     -1.05    15.999
   12139      Ob       1     SIL   O02BT       1     -1.05    15.999
   12140      Ob       1     SIL   O02BU       1     -1.05    15.999
   12141      Si       1     SIL   Si15l       1       2.1    28.086
   12142      Si       1     SIL   Si15m       1       2.1    28.086
   12143      Si       1     SIL   Si15n       1       2.1    28.086
   12144      Ob       1     SIL   O02BV       1     -1.05    15.999
   12145      Ob       1     SIL   O02BW       1     -1.05    15.999
   12146      Ob       1     SIL   O02BX       1     -1.05    15.999
   12147      Ob       1     SIL   O02BY       1     -1.05    15.999
   12148      Ob       1     SIL   O02BZ       1     -1.05    15.999
   12149      Ob       1     SIL   O02Ba       1     -1.05    15.999
   12150      Si       1     SIL   Si15o       1       2.1    28.086
   12151      Si       1     SIL   Si15p       1       2.1    28.086
   12152      Si       1     SIL   Si15q       1       2.1    28.086
   12153      Ob       1     SIL   O02Bb       1     -1.05    15.999
   12154      Ob       1     SIL   O02Bc       1     -1.05    15.999
   12155      Ob       1     SIL   O02Bd       1     -1.05    15.999
   12156      Ob       1     SIL   O02Be       1     -1.05    15.999
   12157      Ob       1     SIL   O02Bf       1     -1.05    15.999
   12158      Ob       1     SIL   O02Bg       1     -1.05    15.999
   12159      Si       1     SIL   Si15r       1       2.1    28.086
   12160      Si       1     SIL   Si15s       1       2.1    28.086
   12161      Si       1     SIL   Si15t       1       2.1    28.086
   12162      Ob       1     SIL   O02Bh       1     -1.05    15.999
   12163       O       1     SIL   O02Bi       1    -0.525    15.999
   12164       O       1     SIL   O02Bj       1    -0.525    15.999
   12165      Ob       1     SIL   O02Bk       1     -1.05    15.999
   12166      Ob       1     SIL   O02Bl       1     -1.05    15.999
   12167      Ob       1     SIL   O02Bm       1     -1.05    15.999
   12168      Si       1     SIL   Si15u       1       2.1    28.086
   12169      Si       1     SIL   Si15v       1       2.1    28.086
   12170      Si       1     SIL   Si15w       1       2.1    28.086
   12171      Ob       1     SIL   O02Bn       1     -1.05    15.999
   12172      Ob       1     SIL   O02Bo       1     -1.05    15.999
   12173      Ob       1     SIL   O02Bp       1     -1.05    15.999
   12174      Ob       1     SIL   O02Bq       1     -1.05    15.999
   12175      Ob       1     SIL   O02Br       1     -1.05    15.999
   12176      Ob       1     SIL   O02Bs       1     -1.05    15.999
   12177      Si       1     SIL   Si15x       1       2.1    28.086
   12178      Si       1     SIL   Si15y       1       2.1    28.086
   12179      Si       1     SIL   Si15z       1       2.1    28.086
   12180      Ob       1     SIL   O02Bt       1     -1.05    15.999
   12181      Ob       1     SIL   O02Bu       1     -1.05    15.999
   12182      Ob       1     SIL   O02Bv       1     -1.05    15.999
   12183      Ob       1     SIL   O02Bw       1     -1.05    15.999
   12184      Ob       1     SIL   O02Bx       1     -1.05    15.999
   12185      Ob       1     SIL   O02By       1     -1.05    15.999
   12186      Si       1     SIL   Si160       1       2.1    28.086
   12187      Si       1     SIL   Si161       1       2.1    28.086
   12188      Si       1     SIL   Si162       1       2.1    28.086
   12189      Ob       1     SIL   O02Bz       1     -1.05    15.999
   12190      Ob       1     SIL   O02C0       1     -1.05    15.999
   12191      Ob       1     SIL   O02C1       1     -1.05    15.999
   12192      Ob       1     SIL   O02C2       1     -1.05    15.999
   12193      Ob       1     SIL   O02C3       1     -1.05    15.999
   12194      Ob       1     SIL   O02C4       1     -1.05    15.999
   12195      Si       1     SIL   Si163       1       2.1    28.086
   12196      Si       1     SIL   Si164       1       2.1    28.086
   12197      Si       1     SIL   Si165       1       2.1    28.086
   12198      Ob       1     SIL   O02C5       1     -1.05    15.999
   12199      Ob       1     SIL   O02C6       1     -1.05    15.999
   12200      Ob       1     SIL   O02C7       1     -1.05    15.999
   12201      Ob       1     SIL   O02C8       1     -1.05    15.999
   12202      Ob       1     SIL   O02C9       1     -1.05    15.999
   12203      Ob       1     SIL   O02CA       1     -1.05    15.999
   12204      Si       1     SIL   Si166       1       2.1    28.086
   12205      Si       1     SIL   Si167       1       2.1    28.086
   12206      Si       1     SIL   Si168       1       2.1    28.086
   12207      Ob       1     SIL   O02CB       1     -1.05    15.999
   12208      Ob       1     SIL   O02CC       1     -1.05    15.999
   12209      Ob       1     SIL   O02CD       1     -1.05    15.999
   12210      Ob       1     SIL   O02CE       1     -1.05    15.999
   12211      Ob       1     SIL   O02CF       1     -1.05    15.999
   12212      Ob       1     SIL   O02CG       1     -1.05    15.999
   12213      Si       1     SIL   Si169       1       2.1    28.086
   12214      Si       1     SIL   Si16A       1       2.1    28.086
   12215      Si       1     SIL   Si16B       1       2.1    28.086
   12216      Ob       1     SIL   O02CH       1     -1.05    15.999
   12217      Ob       1     SIL   O02CI       1     -1.05    15.999
   12218      Ob       1     SIL   O02CJ       1     -1.05    15.999
   12219      Ob       1     SIL   O02CK       1     -1.05    15.999
   12220      Ob       1     SIL   O02CL       1     -1.05    15.999
   12221      Ob       1     SIL   O02CM       1     -1.05    15.999
   12222      Si       1     SIL   Si16C       1       2.1    28.086
   12223      Si       1     SIL   Si16D       1       2.1    28.086
   12224      Si       1     SIL   Si16E       1       2.1    28.086
   12225      Ob       1     SIL   O02CN       1     -1.05    15.999
   12226      Ob       1     SIL   O02CO       1     -1.05    15.999
   12227      Ob       1     SIL   O02CP       1     -1.05    15.999
   12228      Ob       1     SIL   O02CQ       1     -1.05    15.999
   12229      Ob       1     SIL   O02CR       1     -1.05    15.999
   12230      Ob       1     SIL   O02CS       1     -1.05    15.999
   12231      Si       1     SIL   Si16F       1       2.1    28.086
   12232      Si       1     SIL   Si16G       1       2.1    28.086
   12233      Si       1     SIL   Si16H       1       2.1    28.086
   12234      Ob       1     SIL   O02CT       1     -1.05    15.999
   12235      Ob       1     SIL   O02CU       1     -1.05    15.999
   12236      Ob       1     SIL   O02CV       1     -1.05    15.999
   12237      Ob       1     SIL   O02CW       1     -1.05    15.999
   12238      Ob       1     SIL   O02CX       1     -1.05    15.999
   12239      Ob       1     SIL   O02CY       1     -1.05    15.999
   12240      Si       1     SIL   Si16I       1       2.1    28.086
   12241      Si       1     SIL   Si16J       1       2.1    28.086
   12242      Si       1     SIL   Si16K       1       2.1    28.086
   12243      Ob       1     SIL   O02CZ       1     -1.05    15.999
   12244      Ob       1     SIL   O02Ca       1     -1.05    15.999
   12245      Ob       1     SIL   O02Cb       1     -1.05    15.999
   12246      Ob       1     SIL   O02Cc       1     -1.05    15.999
   12247      Ob       1     SIL   O02Cd       1     -1.05    15.999
   12248      Ob       1     SIL   O02Ce       1     -1.05    15.999
   12249      Si       1     SIL   Si16L       1       2.1    28.086
   12250      Si       1     SIL   Si16M       1       2.1    28.086
   12251      Si       1     SIL   Si16N       1       2.1    28.086
   12252      Ob       1     SIL   O02Cf       1     -1.05    15.999
   12253      Ob       1     SIL   O02Cg       1     -1.05    15.999
   12254      Ob       1     SIL   O02Ch       1     -1.05    15.999
   12255      Ob       1     SIL   O02Ci       1     -1.05    15.999
   12256      Ob       1     SIL   O02Cj       1     -1.05    15.999
   12257      Ob       1     SIL   O02Ck       1     -1.05    15.999
   12258      Si       1     SIL   Si16O       1       2.1    28.086
   12259      Si       1     SIL   Si16P       1       2.1    28.086
   12260      Si       1     SIL   Si16Q       1       2.1    28.086
   12261      Ob       1     SIL   O02Cl       1     -1.05    15.999
   12262      Ob       1     SIL   O02Cm       1     -1.05    15.999
   12263      Ob       1     SIL   O02Cn       1     -1.05    15.999
   12264      Ob       1     SIL   O02Co       1     -1.05    15.999
   12265      Ob       1     SIL   O02Cp       1     -1.05    15.999
   12266      Ob       1     SIL   O02Cq       1     -1.05    15.999
   12267      Si       1     SIL   Si16R       1       2.1    28.086
   12268      Si       1     SIL   Si16S       1       2.1    28.086
   12269      Si       1     SIL   Si16T       1       2.1    28.086
   12270      Ob       1     SIL   O02Cr       1     -1.05    15.999
   12271      Ob       1     SIL   O02Cs       1     -1.05    15.999
   12272      Ob       1     SIL   O02Ct       1     -1.05    15.999
   12273      Ob       1     SIL   O02Cu       1     -1.05    15.999
   12274      Ob       1     SIL   O02Cv       1     -1.05    15.999
   12275      Ob       1     SIL   O02Cw       1     -1.05    15.999
   12276      Si       1     SIL   Si16U       1       2.1    28.086
   12277      Si       1     SIL   Si16V       1       2.1    28.086
   12278      Si       1     SIL   Si16W       1       2.1    28.086
   12279      Ob       1     SIL   O02Cx       1     -1.05    15.999
   12280      Ob       1     SIL   O02Cy       1     -1.05    15.999
   12281      Ob       1     SIL   O02Cz       1     -1.05    15.999
   12282      Ob       1     SIL   O02D0       1     -1.05    15.999
   12283      Ob       1     SIL   O02D1       1     -1.05    15.999
   12284      Ob       1     SIL   O02D2       1     -1.05    15.999
   12285      Si       1     SIL   Si16X       1       2.1    28.086
   12286      Si       1     SIL   Si16Y       1       2.1    28.086
   12287      Si       1     SIL   Si16Z       1       2.1    28.086
   12288      Ob       1     SIL   O02D3       1     -1.05    15.999
   12289      Ob       1     SIL   O02D4       1     -1.05    15.999
   12290      Ob       1     SIL   O02D5       1     -1.05    15.999
   12291      Ob       1     SIL   O02D6       1     -1.05    15.999
   12292      Ob       1     SIL   O02D7       1     -1.05    15.999
   12293      Ob       1     SIL   O02D8       1     -1.05    15.999
   12294      Si       1     SIL   Si16a       1       2.1    28.086
   12295      Si       1     SIL   Si16b       1       2.1    28.086
   12296      Si       1     SIL   Si16c       1       2.1    28.086
   12297      Ob       1     SIL   O02D9       1     -1.05    15.999
   12298      Ob       1     SIL   O02DA       1     -1.05    15.999
   12299      Ob       1     SIL   O02DB       1     -1.05    15.999
   12300      Ob       1     SIL   O02DC       1     -1.05    15.999
   12301      Ob       1     SIL   O02DD       1     -1.05    15.999
   12302      Ob       1     SIL   O02DE       1     -1.05    15.999
   12303      Si       1     SIL   Si16d       1       2.1    28.086
   12304      Si       1     SIL   Si16e       1       2.1    28.086
   12305      Si       1     SIL   Si16f       1       2.1    28.086
   12306      Ob       1     SIL   O02DF       1     -1.05    15.999
   12307      Ob       1     SIL   O02DG       1     -1.05    15.999
   12308      Ob       1     SIL   O02DH       1     -1.05    15.999
   12309      Ob       1     SIL   O02DI       1     -1.05    15.999
   12310      Ob       1     SIL   O02DJ       1     -1.05    15.999
   12311      Ob       1     SIL   O02DK       1     -1.05    15.999
   12312      Si       1     SIL   Si16g       1       2.1    28.086
   12313      Si       1     SIL   Si16h       1       2.1    28.086
   12314      Si       1     SIL   Si16i       1       2.1    28.086
   12315      Ob       1     SIL   O02DL       1     -1.05    15.999
   12316      Ob       1     SIL   O02DM       1     -1.05    15.999
   12317      Ob       1     SIL   O02DN       1     -1.05    15.999
   12318      Ob       1     SIL   O02DO       1     -1.05    15.999
   12319      Ob       1     SIL   O02DP       1     -1.05    15.999
   12320      Ob       1     SIL   O02DQ       1     -1.05    15.999
   12321      Si       1     SIL   Si16j       1       2.1    28.086
   12322      Si       1     SIL   Si16k       1       2.1    28.086
   12323      Si       1     SIL   Si16l       1       2.1    28.086
   12324      Ob       1     SIL   O02DR       1     -1.05    15.999
   12325      Ob       1     SIL   O02DS       1     -1.05    15.999
   12326      Ob       1     SIL   O02DT       1     -1.05    15.999
   12327      Ob       1     SIL   O02DU       1     -1.05    15.999
   12328      Ob       1     SIL   O02DV       1     -1.05    15.999
   12329      Ob       1     SIL   O02DW       1     -1.05    15.999
   12330      Si       1     SIL   Si16m       1       2.1    28.086
   12331      Si       1     SIL   Si16n       1       2.1    28.086
   12332      Si       1     SIL   Si16o       1       2.1    28.086
   12333      Ob       1     SIL   O02DX       1     -1.05    15.999
   12334      Ob       1     SIL   O02DY       1     -1.05    15.999
   12335      Ob       1     SIL   O02DZ       1     -1.05    15.999
   12336      Ob       1     SIL   O02Da       1     -1.05    15.999
   12337      Ob       1     SIL   O02Db       1     -1.05    15.999
   12338      Ob       1     SIL   O02Dc       1     -1.05    15.999
   12339      Si       1     SIL   Si16p       1       2.1    28.086
   12340      Si       1     SIL   Si16q       1       2.1    28.086
   12341      Si       1     SIL   Si16r       1       2.1    28.086
   12342      Ob       1     SIL   O02Dd       1     -1.05    15.999
   12343      Ob       1     SIL   O02De       1     -1.05    15.999
   12344      Ob       1     SIL   O02Df       1     -1.05    15.999
   12345      Ob       1     SIL   O02Dg       1     -1.05    15.999
   12346      Ob       1     SIL   O02Dh       1     -1.05    15.999
   12347      Ob       1     SIL   O02Di       1     -1.05    15.999
   12348      Si       1     SIL   Si16s       1       2.1    28.086
   12349      Si       1     SIL   Si16t       1       2.1    28.086
   12350      Si       1     SIL   Si16u       1       2.1    28.086
   12351      Ob       1     SIL   O02Dj       1     -1.05    15.999
   12352      Ob       1     SIL   O02Dk       1     -1.05    15.999
   12353      Ob       1     SIL   O02Dl       1     -1.05    15.999
   12354      Ob       1     SIL   O02Dm       1     -1.05    15.999
   12355      Ob       1     SIL   O02Dn       1     -1.05    15.999
   12356      Ob       1     SIL   O02Do       1     -1.05    15.999
   12357      Si       1     SIL   Si16v       1       2.1    28.086
   12358      Si       1     SIL   Si16w       1       2.1    28.086
   12359      Si       1     SIL   Si16x       1       2.1    28.086
   12360      Ob       1     SIL   O02Dp       1     -1.05    15.999
   12361      Ob       1     SIL   O02Dq       1     -1.05    15.999
   12362      Ob       1     SIL   O02Dr       1     -1.05    15.999
   12363      Ob       1     SIL   O02Ds       1     -1.05    15.999
   12364      Ob       1     SIL   O02Dt       1     -1.05    15.999
   12365      Ob       1     SIL   O02Du       1     -1.05    15.999
   12366      Si       1     SIL   Si16y       1       2.1    28.086
   12367      Si       1     SIL   Si16z       1       2.1    28.086
   12368      Si       1     SIL   Si170       1       2.1    28.086
   12369      Ob       1     SIL   O02Dv       1     -1.05    15.999
   12370       O       1     SIL   O02Dw       1    -0.525    15.999
   12371       O       1     SIL   O02Dx       1    -0.525    15.999
   12372      Ob       1     SIL   O02Dy       1     -1.05    15.999
   12373      Ob       1     SIL   O02Dz       1     -1.05    15.999
   12374      Ob       1     SIL   O02E0       1     -1.05    15.999
   12375      Si       1     SIL   Si171       1       2.1    28.086
   12376      Si       1     SIL   Si172       1       2.1    28.086
   12377      Si       1     SIL   Si173       1       2.1    28.086
   12378      Ob       1     SIL   O02E1       1     -1.05    15.999
   12379      Ob       1     SIL   O02E2       1     -1.05    15.999
   12380      Ob       1     SIL   O02E3       1     -1.05    15.999
   12381      Ob       1     SIL   O02E4       1     -1.05    15.999
   12382      Ob       1     SIL   O02E5       1     -1.05    15.999
   12383      Ob       1     SIL   O02E6       1     -1.05    15.999
   12384      Si       1     SIL   Si174       1       2.1    28.086
   12385      Si       1     SIL   Si175       1       2.1    28.086
   12386      Si       1     SIL   Si176       1       2.1    28.086
   12387      Ob       1     SIL   O02E7       1     -1.05    15.999
   12388      Ob       1     SIL   O02E8       1     -1.05    15.999
   12389      Ob       1     SIL   O02E9       1     -1.05    15.999
   12390      Ob       1     SIL   O02EA       1     -1.05    15.999
   12391      Ob       1     SIL   O02EB       1     -1.05    15.999
   12392      Ob       1     SIL   O02EC       1     -1.05    15.999
   12393      Si       1     SIL   Si177       1       2.1    28.086
   12394      Si       1     SIL   Si178       1       2.1    28.086
   12395      Si       1     SIL   Si179       1       2.1    28.086
   12396      Ob       1     SIL   O02ED       1     -1.05    15.999
   12397      Ob       1     SIL   O02EE       1     -1.05    15.999
   12398      Ob       1     SIL   O02EF       1     -1.05    15.999
   12399      Ob       1     SIL   O02EG       1     -1.05    15.999
   12400      Ob       1     SIL   O02EH       1     -1.05    15.999
   12401      Ob       1     SIL   O02EI       1     -1.05    15.999
   12402      Si       1     SIL   Si17A       1       2.1    28.086
   12403      Si       1     SIL   Si17B       1       2.1    28.086
   12404      Si       1     SIL   Si17C       1       2.1    28.086
   12405      Ob       1     SIL   O02EJ       1     -1.05    15.999
   12406      Ob       1     SIL   O02EK       1     -1.05    15.999
   12407      Ob       1     SIL   O02EL       1     -1.05    15.999
   12408      Ob       1     SIL   O02EM       1     -1.05    15.999
   12409      Ob       1     SIL   O02EN       1     -1.05    15.999
   12410      Ob       1     SIL   O02EO       1     -1.05    15.999
   12411      Si       1     SIL   Si17D       1       2.1    28.086
   12412      Si       1     SIL   Si17E       1       2.1    28.086
   12413      Si       1     SIL   Si17F       1       2.1    28.086
   12414      Ob       1     SIL   O02EP       1     -1.05    15.999
   12415      Ob       1     SIL   O02EQ       1     -1.05    15.999
   12416      Ob       1     SIL   O02ER       1     -1.05    15.999
   12417      Ob       1     SIL   O02ES       1     -1.05    15.999
   12418      Ob       1     SIL   O02ET       1     -1.05    15.999
   12419      Ob       1     SIL   O02EU       1     -1.05    15.999
   12420      Si       1     SIL   Si17G       1       2.1    28.086
   12421      Si       1     SIL   Si17H       1       2.1    28.086
   12422      Si       1     SIL   Si17I       1       2.1    28.086
   12423      Ob       1     SIL   O02EV       1     -1.05    15.999
   12424      Ob       1     SIL   O02EW       1     -1.05    15.999
   12425      Ob       1     SIL   O02EX       1     -1.05    15.999
   12426      Ob       1     SIL   O02EY       1     -1.05    15.999
   12427      Ob       1     SIL   O02EZ       1     -1.05    15.999
   12428      Ob       1     SIL   O02Ea       1     -1.05    15.999
   12429      Si       1     SIL   Si17J       1       2.1    28.086
   12430      Si       1     SIL   Si17K       1       2.1    28.086
   12431      Si       1     SIL   Si17L       1       2.1    28.086
   12432      Ob       1     SIL   O02Eb       1     -1.05    15.999
   12433      Ob       1     SIL   O02Ec       1     -1.05    15.999
   12434      Ob       1     SIL   O02Ed       1     -1.05    15.999
   12435      Ob       1     SIL   O02Ee       1     -1.05    15.999
   12436      Ob       1     SIL   O02Ef       1     -1.05    15.999
   12437      Ob       1     SIL   O02Eg       1     -1.05    15.999
   12438      Si       1     SIL   Si17M       1       2.1    28.086
   12439      Si       1     SIL   Si17N       1       2.1    28.086
   12440      Si       1     SIL   Si17O       1       2.1    28.086
   12441      Ob       1     SIL   O02Eh       1     -1.05    15.999
   12442      Ob       1     SIL   O02Ei       1     -1.05    15.999
   12443      Ob       1     SIL   O02Ej       1     -1.05    15.999
   12444      Ob       1     SIL   O02Ek       1     -1.05    15.999
   12445      Ob       1     SIL   O02El       1     -1.05    15.999
   12446      Ob       1     SIL   O02Em       1     -1.05    15.999
   12447      Si       1     SIL   Si17P       1       2.1    28.086
   12448      Si       1     SIL   Si17Q       1       2.1    28.086
   12449      Si       1     SIL   Si17R       1       2.1    28.086
   12450      Ob       1     SIL   O02En       1     -1.05    15.999
   12451      Ob       1     SIL   O02Eo       1     -1.05    15.999
   12452      Ob       1     SIL   O02Ep       1     -1.05    15.999
   12453      Ob       1     SIL   O02Eq       1     -1.05    15.999
   12454      Ob       1     SIL   O02Er       1     -1.05    15.999
   12455      Ob       1     SIL   O02Es       1     -1.05    15.999
   12456      Si       1     SIL   Si17S       1       2.1    28.086
   12457      Si       1     SIL   Si17T       1       2.1    28.086
   12458      Si       1     SIL   Si17U       1       2.1    28.086
   12459      Ob       1     SIL   O02Et       1     -1.05    15.999
   12460      Ob       1     SIL   O02Eu       1     -1.05    15.999
   12461      Ob       1     SIL   O02Ev       1     -1.05    15.999
   12462      Ob       1     SIL   O02Ew       1     -1.05    15.999
   12463      Ob       1     SIL   O02Ex       1     -1.05    15.999
   12464      Ob       1     SIL   O02Ey       1     -1.05    15.999
   12465      Si       1     SIL   Si17V       1       2.1    28.086
   12466      Si       1     SIL   Si17W       1       2.1    28.086
   12467      Si       1     SIL   Si17X       1       2.1    28.086
   12468      Ob       1     SIL   O02Ez       1     -1.05    15.999
   12469      Ob       1     SIL   O02F0       1     -1.05    15.999
   12470      Ob       1     SIL   O02F1       1     -1.05    15.999
   12471      Ob       1     SIL   O02F2       1     -1.05    15.999
   12472      Ob       1     SIL   O02F3       1     -1.05    15.999
   12473      Ob       1     SIL   O02F4       1     -1.05    15.999
   12474      Si       1     SIL   Si17Y       1       2.1    28.086
   12475      Si       1     SIL   Si17Z       1       2.1    28.086
   12476      Si       1     SIL   Si17a       1       2.1    28.086
   12477      Ob       1     SIL   O02F5       1     -1.05    15.999
   12478      Ob       1     SIL   O02F6       1     -1.05    15.999
   12479      Ob       1     SIL   O02F7       1     -1.05    15.999
   12480      Ob       1     SIL   O02F8       1     -1.05    15.999
   12481      Ob       1     SIL   O02F9       1     -1.05    15.999
   12482      Ob       1     SIL   O02FA       1     -1.05    15.999
   12483      Si       1     SIL   Si17b       1       2.1    28.086
   12484      Si       1     SIL   Si17c       1       2.1    28.086
   12485      Si       1     SIL   Si17d       1       2.1    28.086
   12486      Ob       1     SIL   O02FB       1     -1.05    15.999
   12487      Ob       1     SIL   O02FC       1     -1.05    15.999
   12488      Ob       1     SIL   O02FD       1     -1.05    15.999
   12489      Ob       1     SIL   O02FE       1     -1.05    15.999
   12490      Ob       1     SIL   O02FF       1     -1.05    15.999
   12491      Ob       1     SIL   O02FG       1     -1.05    15.999
   12492      Si       1     SIL   Si17e       1       2.1    28.086
   12493      Si       1     SIL   Si17f       1       2.1    28.086
   12494      Si       1     SIL   Si17g       1       2.1    28.086
   12495      Ob       1     SIL   O02FH       1     -1.05    15.999
   12496      Ob       1     SIL   O02FI       1     -1.05    15.999
   12497      Ob       1     SIL   O02FJ       1     -1.05    15.999
   12498      Ob       1     SIL   O02FK       1     -1.05    15.999
   12499      Ob       1     SIL   O02FL       1     -1.05    15.999
   12500      Ob       1     SIL   O02FM       1     -1.05    15.999
   12501      Si       1     SIL   Si17h       1       2.1    28.086
   12502      Si       1     SIL   Si17i       1       2.1    28.086
   12503      Si       1     SIL   Si17j       1       2.1    28.086
   12504      Ob       1     SIL   O02FN       1     -1.05    15.999
   12505      Ob       1     SIL   O02FO       1     -1.05    15.999
   12506      Ob       1     SIL   O02FP       1     -1.05    15.999
   12507      Ob       1     SIL   O02FQ       1     -1.05    15.999
   12508      Ob       1     SIL   O02FR       1     -1.05    15.999
   12509      Ob       1     SIL   O02FS       1     -1.05    15.999
   12510      Si       1     SIL   Si17k       1       2.1    28.086
   12511      Si       1     SIL   Si17l       1       2.1    28.086
   12512      Si       1     SIL   Si17m       1       2.1    28.086
   12513      Ob       1     SIL   O02FT       1     -1.05    15.999
   12514      Ob       1     SIL   O02FU       1     -1.05    15.999
   12515      Ob       1     SIL   O02FV       1     -1.05    15.999
   12516      Ob       1     SIL   O02FW       1     -1.05    15.999
   12517      Ob       1     SIL   O02FX       1     -1.05    15.999
   12518      Ob       1     SIL   O02FY       1     -1.05    15.999
   12519      Si       1     SIL   Si17n       1       2.1    28.086
   12520      Si       1     SIL   Si17o       1       2.1    28.086
   12521      Si       1     SIL   Si17p       1       2.1    28.086
   12522      Ob       1     SIL   O02FZ       1     -1.05    15.999
   12523      Ob       1     SIL   O02Fa       1     -1.05    15.999
   12524      Ob       1     SIL   O02Fb       1     -1.05    15.999
   12525      Ob       1     SIL   O02Fc       1     -1.05    15.999
   12526      Ob       1     SIL   O02Fd       1     -1.05    15.999
   12527      Ob       1     SIL   O02Fe       1     -1.05    15.999
   12528      Si       1     SIL   Si17q       1       2.1    28.086
   12529      Si       1     SIL   Si17r       1       2.1    28.086
   12530      Si       1     SIL   Si17s       1       2.1    28.086
   12531      Ob       1     SIL   O02Ff       1     -1.05    15.999
   12532      Ob       1     SIL   O02Fg       1     -1.05    15.999
   12533      Ob       1     SIL   O02Fh       1     -1.05    15.999
   12534      Ob       1     SIL   O02Fi       1     -1.05    15.999
   12535      Ob       1     SIL   O02Fj       1     -1.05    15.999
   12536      Ob       1     SIL   O02Fk       1     -1.05    15.999
   12537      Si       1     SIL   Si17t       1       2.1    28.086
   12538      Si       1     SIL   Si17u       1       2.1    28.086
   12539      Si       1     SIL   Si17v       1       2.1    28.086
   12540      Ob       1     SIL   O02Fl       1     -1.05    15.999
   12541      Ob       1     SIL   O02Fm       1     -1.05    15.999
   12542      Ob       1     SIL   O02Fn       1     -1.05    15.999
   12543      Ob       1     SIL   O02Fo       1     -1.05    15.999
   12544      Ob       1     SIL   O02Fp       1     -1.05    15.999
   12545      Ob       1     SIL   O02Fq       1     -1.05    15.999
   12546      Si       1     SIL   Si17w       1       2.1    28.086
   12547      Si       1     SIL   Si17x       1       2.1    28.086
   12548      Si       1     SIL   Si17y       1       2.1    28.086
   12549      Ob       1     SIL   O02Fr       1     -1.05    15.999
   12550      Ob       1     SIL   O02Fs       1     -1.05    15.999
   12551      Ob       1     SIL   O02Ft       1     -1.05    15.999
   12552      Ob       1     SIL   O02Fu       1     -1.05    15.999
   12553      Ob       1     SIL   O02Fv       1     -1.05    15.999
   12554      Ob       1     SIL   O02Fw       1     -1.05    15.999
   12555      Si       1     SIL   Si17z       1       2.1    28.086
   12556      Si       1     SIL   Si180       1       2.1    28.086
   12557      Si       1     SIL   Si181       1       2.1    28.086
   12558      Ob       1     SIL   O02Fx       1     -1.05    15.999
   12559      Ob       1     SIL   O02Fy       1     -1.05    15.999
   12560      Ob       1     SIL   O02Fz       1     -1.05    15.999
   12561      Ob       1     SIL   O02G0       1     -1.05    15.999
   12562      Ob       1     SIL   O02G1       1     -1.05    15.999
   12563      Ob       1     SIL   O02G2       1     -1.05    15.999
   12564      Si       1     SIL   Si182       1       2.1    28.086
   12565      Si       1     SIL   Si183       1       2.1    28.086
   12566      Si       1     SIL   Si184       1       2.1    28.086
   12567      Ob       1     SIL   O02G3       1     -1.05    15.999
   12568      Ob       1     SIL   O02G4       1     -1.05    15.999
   12569      Ob       1     SIL   O02G5       1     -1.05    15.999
   12570      Ob       1     SIL   O02G6       1     -1.05    15.999
   12571      Ob       1     SIL   O02G7       1     -1.05    15.999
   12572      Ob       1     SIL   O02G8       1     -1.05    15.999
   12573      Si       1     SIL   Si185       1       2.1    28.086
   12574      Si       1     SIL   Si186       1       2.1    28.086
   12575      Si       1     SIL   Si187       1       2.1    28.086
   12576      Ob       1     SIL   O02G9       1     -1.05    15.999
   12577       O       1     SIL   O02GA       1    -0.525    15.999
   12578       O       1     SIL   O02GB       1    -0.525    15.999
   12579      Ob       1     SIL   O02GC       1     -1.05    15.999
   12580      Ob       1     SIL   O02GD       1     -1.05    15.999
   12581      Ob       1     SIL   O02GE       1     -1.05    15.999
   12582      Si       1     SIL   Si188       1       2.1    28.086
   12583      Si       1     SIL   Si189       1       2.1    28.086
   12584      Si       1     SIL   Si18A       1       2.1    28.086
   12585      Ob       1     SIL   O02GF       1     -1.05    15.999
   12586      Ob       1     SIL   O02GG       1     -1.05    15.999
   12587      Ob       1     SIL   O02GH       1     -1.05    15.999
   12588      Ob       1     SIL   O02GI       1     -1.05    15.999
   12589      Ob       1     SIL   O02GJ       1     -1.05    15.999
   12590      Ob       1     SIL   O02GK       1     -1.05    15.999
   12591      Si       1     SIL   Si18B       1       2.1    28.086
   12592      Si       1     SIL   Si18C       1       2.1    28.086
   12593      Si       1     SIL   Si18D       1       2.1    28.086
   12594      Ob       1     SIL   O02GL       1     -1.05    15.999
   12595      Ob       1     SIL   O02GM       1     -1.05    15.999
   12596      Ob       1     SIL   O02GN       1     -1.05    15.999
   12597      Ob       1     SIL   O02GO       1     -1.05    15.999
   12598      Ob       1     SIL   O02GP       1     -1.05    15.999
   12599      Ob       1     SIL   O02GQ       1     -1.05    15.999
   12600      Si       1     SIL   Si18E       1       2.1    28.086
   12601      Si       1     SIL   Si18F       1       2.1    28.086
   12602      Si       1     SIL   Si18G       1       2.1    28.086
   12603      Ob       1     SIL   O02GR       1     -1.05    15.999
   12604      Ob       1     SIL   O02GS       1     -1.05    15.999
   12605      Ob       1     SIL   O02GT       1     -1.05    15.999
   12606      Ob       1     SIL   O02GU       1     -1.05    15.999
   12607      Ob       1     SIL   O02GV       1     -1.05    15.999
   12608      Ob       1     SIL   O02GW       1     -1.05    15.999
   12609      Si       1     SIL   Si18H       1       2.1    28.086
   12610      Si       1     SIL   Si18I       1       2.1    28.086
   12611      Si       1     SIL   Si18J       1       2.1    28.086
   12612      Ob       1     SIL   O02GX       1     -1.05    15.999
   12613      Ob       1     SIL   O02GY       1     -1.05    15.999
   12614      Ob       1     SIL   O02GZ       1     -1.05    15.999
   12615      Ob       1     SIL   O02Ga       1     -1.05    15.999
   12616      Ob       1     SIL   O02Gb       1     -1.05    15.999
   12617      Ob       1     SIL   O02Gc       1     -1.05    15.999
   12618      Si       1     SIL   Si18K       1       2.1    28.086
   12619      Si       1     SIL   Si18L       1       2.1    28.086
   12620      Si       1     SIL   Si18M       1       2.1    28.086
   12621      Ob       1     SIL   O02Gd       1     -1.05    15.999
   12622      Ob       1     SIL   O02Ge       1     -1.05    15.999
   12623      Ob       1     SIL   O02Gf       1     -1.05    15.999
   12624      Ob       1     SIL   O02Gg       1     -1.05    15.999
   12625      Ob       1     SIL   O02Gh       1     -1.05    15.999
   12626      Ob       1     SIL   O02Gi       1     -1.05    15.999
   12627      Si       1     SIL   Si18N       1       2.1    28.086
   12628      Si       1     SIL   Si18O       1       2.1    28.086
   12629      Si       1     SIL   Si18P       1       2.1    28.086
   12630      Ob       1     SIL   O02Gj       1     -1.05    15.999
   12631      Ob       1     SIL   O02Gk       1     -1.05    15.999
   12632      Ob       1     SIL   O02Gl       1     -1.05    15.999
   12633      Ob       1     SIL   O02Gm       1     -1.05    15.999
   12634      Ob       1     SIL   O02Gn       1     -1.05    15.999
   12635      Ob       1     SIL   O02Go       1     -1.05    15.999
   12636      Si       1     SIL   Si18Q       1       2.1    28.086
   12637      Si       1     SIL   Si18R       1       2.1    28.086
   12638      Si       1     SIL   Si18S       1       2.1    28.086
   12639      Ob       1     SIL   O02Gp       1     -1.05    15.999
   12640      Ob       1     SIL   O02Gq       1     -1.05    15.999
   12641      Ob       1     SIL   O02Gr       1     -1.05    15.999
   12642      Ob       1     SIL   O02Gs       1     -1.05    15.999
   12643      Ob       1     SIL   O02Gt       1     -1.05    15.999
   12644      Ob       1     SIL   O02Gu       1     -1.05    15.999
   12645      Si       1     SIL   Si18T       1       2.1    28.086
   12646      Si       1     SIL   Si18U       1       2.1    28.086
   12647      Si       1     SIL   Si18V       1       2.1    28.086
   12648      Ob       1     SIL   O02Gv       1     -1.05    15.999
   12649      Ob       1     SIL   O02Gw       1     -1.05    15.999
   12650      Ob       1     SIL   O02Gx       1     -1.05    15.999
   12651      Ob       1     SIL   O02Gy       1     -1.05    15.999
   12652      Ob       1     SIL   O02Gz       1     -1.05    15.999
   12653      Ob       1     SIL   O02H0       1     -1.05    15.999
   12654      Si       1     SIL   Si18W       1       2.1    28.086
   12655      Si       1     SIL   Si18X       1       2.1    28.086
   12656      Si       1     SIL   Si18Y       1       2.1    28.086
   12657      Ob       1     SIL   O02H1       1     -1.05    15.999
   12658      Ob       1     SIL   O02H2       1     -1.05    15.999
   12659      Ob       1     SIL   O02H3       1     -1.05    15.999
   12660      Ob       1     SIL   O02H4       1     -1.05    15.999
   12661      Ob       1     SIL   O02H5       1     -1.05    15.999
   12662      Ob       1     SIL   O02H6       1     -1.05    15.999
   12663      Si       1     SIL   Si18Z       1       2.1    28.086
   12664      Si       1     SIL   Si18a       1       2.1    28.086
   12665      Si       1     SIL   Si18b       1       2.1    28.086
   12666      Ob       1     SIL   O02H7       1     -1.05    15.999
   12667      Ob       1     SIL   O02H8       1     -1.05    15.999
   12668      Ob       1     SIL   O02H9       1     -1.05    15.999
   12669      Ob       1     SIL   O02HA       1     -1.05    15.999
   12670      Ob       1     SIL   O02HB       1     -1.05    15.999
   12671      Ob       1     SIL   O02HC       1     -1.05    15.999
   12672      Si       1     SIL   Si18c       1       2.1    28.086
   12673      Si       1     SIL   Si18d       1       2.1    28.086
   12674      Si       1     SIL   Si18e       1       2.1    28.086
   12675      Ob       1     SIL   O02HD       1     -1.05    15.999
   12676      Ob       1     SIL   O02HE       1     -1.05    15.999
   12677      Ob       1     SIL   O02HF       1     -1.05    15.999
   12678      Ob       1     SIL   O02HG       1     -1.05    15.999
   12679      Ob       1     SIL   O02HH       1     -1.05    15.999
   12680      Ob       1     SIL   O02HI       1     -1.05    15.999
   12681      Si       1     SIL   Si18f       1       2.1    28.086
   12682      Si       1     SIL   Si18g       1       2.1    28.086
   12683      Si       1     SIL   Si18h       1       2.1    28.086
   12684      Ob       1     SIL   O02HJ       1     -1.05    15.999
   12685      Ob       1     SIL   O02HK       1     -1.05    15.999
   12686      Ob       1     SIL   O02HL       1     -1.05    15.999
   12687      Ob       1     SIL   O02HM       1     -1.05    15.999
   12688      Ob       1     SIL   O02HN       1     -1.05    15.999
   12689      Ob       1     SIL   O02HO       1     -1.05    15.999
   12690      Si       1     SIL   Si18i       1       2.1    28.086
   12691      Si       1     SIL   Si18j       1       2.1    28.086
   12692      Si       1     SIL   Si18k       1       2.1    28.086
   12693      Ob       1     SIL   O02HP       1     -1.05    15.999
   12694      Ob       1     SIL   O02HQ       1     -1.05    15.999
   12695      Ob       1     SIL   O02HR       1     -1.05    15.999
   12696      Ob       1     SIL   O02HS       1     -1.05    15.999
   12697      Ob       1     SIL   O02HT       1     -1.05    15.999
   12698      Ob       1     SIL   O02HU       1     -1.05    15.999
   12699      Si       1     SIL   Si18l       1       2.1    28.086
   12700      Si       1     SIL   Si18m       1       2.1    28.086
   12701      Si       1     SIL   Si18n       1       2.1    28.086
   12702      Ob       1     SIL   O02HV       1     -1.05    15.999
   12703      Ob       1     SIL   O02HW       1     -1.05    15.999
   12704      Ob       1     SIL   O02HX       1     -1.05    15.999
   12705      Ob       1     SIL   O02HY       1     -1.05    15.999
   12706      Ob       1     SIL   O02HZ       1     -1.05    15.999
   12707      Ob       1     SIL   O02Ha       1     -1.05    15.999
   12708      Si       1     SIL   Si18o       1       2.1    28.086
   12709      Si       1     SIL   Si18p       1       2.1    28.086
   12710      Si       1     SIL   Si18q       1       2.1    28.086
   12711      Ob       1     SIL   O02Hb       1     -1.05    15.999
   12712      Ob       1     SIL   O02Hc       1     -1.05    15.999
   12713      Ob       1     SIL   O02Hd       1     -1.05    15.999
   12714      Ob       1     SIL   O02He       1     -1.05    15.999
   12715      Ob       1     SIL   O02Hf       1     -1.05    15.999
   12716      Ob       1     SIL   O02Hg       1     -1.05    15.999
   12717      Si       1     SIL   Si18r       1       2.1    28.086
   12718      Si       1     SIL   Si18s       1       2.1    28.086
   12719      Si       1     SIL   Si18t       1       2.1    28.086
   12720      Ob       1     SIL   O02Hh       1     -1.05    15.999
   12721      Ob       1     SIL   O02Hi       1     -1.05    15.999
   12722      Ob       1     SIL   O02Hj       1     -1.05    15.999
   12723      Ob       1     SIL   O02Hk       1     -1.05    15.999
   12724      Ob       1     SIL   O02Hl       1     -1.05    15.999
   12725      Ob       1     SIL   O02Hm       1     -1.05    15.999
   12726      Si       1     SIL   Si18u       1       2.1    28.086
   12727      Si       1     SIL   Si18v       1       2.1    28.086
   12728      Si       1     SIL   Si18w       1       2.1    28.086
   12729      Ob       1     SIL   O02Hn       1     -1.05    15.999
   12730      Ob       1     SIL   O02Ho       1     -1.05    15.999
   12731      Ob       1     SIL   O02Hp       1     -1.05    15.999
   12732      Ob       1     SIL   O02Hq       1     -1.05    15.999
   12733      Ob       1     SIL   O02Hr       1     -1.05    15.999
   12734      Ob       1     SIL   O02Hs       1     -1.05    15.999
   12735      Si       1     SIL   Si18x       1       2.1    28.086
   12736      Si       1     SIL   Si18y       1       2.1    28.086
   12737      Si       1     SIL   Si18z       1       2.1    28.086
   12738      Ob       1     SIL   O02Ht       1     -1.05    15.999
   12739      Ob       1     SIL   O02Hu       1     -1.05    15.999
   12740      Ob       1     SIL   O02Hv       1     -1.05    15.999
   12741      Ob       1     SIL   O02Hw       1     -1.05    15.999
   12742      Ob       1     SIL   O02Hx       1     -1.05    15.999
   12743      Ob       1     SIL   O02Hy       1     -1.05    15.999
   12744      Si       1     SIL   Si190       1       2.1    28.086
   12745      Si       1     SIL   Si191       1       2.1    28.086
   12746      Si       1     SIL   Si192       1       2.1    28.086
   12747      Ob       1     SIL   O02Hz       1     -1.05    15.999
   12748      Ob       1     SIL   O02I0       1     -1.05    15.999
   12749      Ob       1     SIL   O02I1       1     -1.05    15.999
   12750      Ob       1     SIL   O02I2       1     -1.05    15.999
   12751      Ob       1     SIL   O02I3       1     -1.05    15.999
   12752      Ob       1     SIL   O02I4       1     -1.05    15.999
   12753      Si       1     SIL   Si193       1       2.1    28.086
   12754      Si       1     SIL   Si194       1       2.1    28.086
   12755      Si       1     SIL   Si195       1       2.1    28.086
   12756      Ob       1     SIL   O02I5       1     -1.05    15.999
   12757      Ob       1     SIL   O02I6       1     -1.05    15.999
   12758      Ob       1     SIL   O02I7       1     -1.05    15.999
   12759      Ob       1     SIL   O02I8       1     -1.05    15.999
   12760      Ob       1     SIL   O02I9       1     -1.05    15.999
   12761      Ob       1     SIL   O02IA       1     -1.05    15.999
   12762      Si       1     SIL   Si196       1       2.1    28.086
   12763      Si       1     SIL   Si197       1       2.1    28.086
   12764      Si       1     SIL   Si198       1       2.1    28.086
   12765      Ob       1     SIL   O02IB       1     -1.05    15.999
   12766      Ob       1     SIL   O02IC       1     -1.05    15.999
   12767      Ob       1     SIL   O02ID       1     -1.05    15.999
   12768      Ob       1     SIL   O02IE       1     -1.05    15.999
   12769      Ob       1     SIL   O02IF       1     -1.05    15.999
   12770      Ob       1     SIL   O02IG       1     -1.05    15.999
   12771      Si       1     SIL   Si199       1       2.1    28.086
   12772      Si       1     SIL   Si19A       1       2.1    28.086
   12773      Si       1     SIL   Si19B       1       2.1    28.086
   12774      Ob       1     SIL   O02IH       1     -1.05    15.999
   12775      Ob       1     SIL   O02II       1     -1.05    15.999
   12776      Ob       1     SIL   O02IJ       1     -1.05    15.999
   12777      Ob       1     SIL   O02IK       1     -1.05    15.999
   12778      Ob       1     SIL   O02IL       1     -1.05    15.999
   12779      Ob       1     SIL   O02IM       1     -1.05    15.999
   12780      Si       1     SIL   Si19C       1       2.1    28.086
   12781      Si       1     SIL   Si19D       1       2.1    28.086
   12782      Si       1     SIL   Si19E       1       2.1    28.086
   12783      Ob       1     SIL   O02IN       1     -1.05    15.999
   12784       O       1     SIL   O02IO       1    -0.525    15.999
   12785       O       1     SIL   O02IP       1    -0.525    15.999
   12786      Ob       1     SIL   O02IQ       1     -1.05    15.999
   12787      Ob       1     SIL   O02IR       1     -1.05    15.999
   12788      Ob       1     SIL   O02IS       1     -1.05    15.999
   12789      Si       1     SIL   Si19F       1       2.1    28.086
   12790      Si       1     SIL   Si19G       1       2.1    28.086
   12791      Si       1     SIL   Si19H       1       2.1    28.086
   12792      Ob       1     SIL   O02IT       1     -1.05    15.999
   12793      Ob       1     SIL   O02IU       1     -1.05    15.999
   12794      Ob       1     SIL   O02IV       1     -1.05    15.999
   12795      Ob       1     SIL   O02IW       1     -1.05    15.999
   12796      Ob       1     SIL   O02IX       1     -1.05    15.999
   12797      Ob       1     SIL   O02IY       1     -1.05    15.999
   12798      Si       1     SIL   Si19I       1       2.1    28.086
   12799      Si       1     SIL   Si19J       1       2.1    28.086
   12800      Si       1     SIL   Si19K       1       2.1    28.086
   12801      Ob       1     SIL   O02IZ       1     -1.05    15.999
   12802      Ob       1     SIL   O02Ia       1     -1.05    15.999
   12803      Ob       1     SIL   O02Ib       1     -1.05    15.999
   12804      Ob       1     SIL   O02Ic       1     -1.05    15.999
   12805      Ob       1     SIL   O02Id       1     -1.05    15.999
   12806      Ob       1     SIL   O02Ie       1     -1.05    15.999
   12807      Si       1     SIL   Si19L       1       2.1    28.086
   12808      Si       1     SIL   Si19M       1       2.1    28.086
   12809      Si       1     SIL   Si19N       1       2.1    28.086
   12810      Ob       1     SIL   O02If       1     -1.05    15.999
   12811      Ob       1     SIL   O02Ig       1     -1.05    15.999
   12812      Ob       1     SIL   O02Ih       1     -1.05    15.999
   12813      Ob       1     SIL   O02Ii       1     -1.05    15.999
   12814      Ob       1     SIL   O02Ij       1     -1.05    15.999
   12815      Ob       1     SIL   O02Ik       1     -1.05    15.999
   12816      Si       1     SIL   Si19O       1       2.1    28.086
   12817      Si       1     SIL   Si19P       1       2.1    28.086
   12818      Si       1     SIL   Si19Q       1       2.1    28.086
   12819      Ob       1     SIL   O02Il       1     -1.05    15.999
   12820      Ob       1     SIL   O02Im       1     -1.05    15.999
   12821      Ob       1     SIL   O02In       1     -1.05    15.999
   12822      Ob       1     SIL   O02Io       1     -1.05    15.999
   12823      Ob       1     SIL   O02Ip       1     -1.05    15.999
   12824      Ob       1     SIL   O02Iq       1     -1.05    15.999
   12825      Si       1     SIL   Si19R       1       2.1    28.086
   12826      Si       1     SIL   Si19S       1       2.1    28.086
   12827      Si       1     SIL   Si19T       1       2.1    28.086
   12828      Ob       1     SIL   O02Ir       1     -1.05    15.999
   12829      Ob       1     SIL   O02Is       1     -1.05    15.999
   12830      Ob       1     SIL   O02It       1     -1.05    15.999
   12831      Ob       1     SIL   O02Iu       1     -1.05    15.999
   12832      Ob       1     SIL   O02Iv       1     -1.05    15.999
   12833      Ob       1     SIL   O02Iw       1     -1.05    15.999
   12834      Si       1     SIL   Si19U       1       2.1    28.086
   12835      Si       1     SIL   Si19V       1       2.1    28.086
   12836      Si       1     SIL   Si19W       1       2.1    28.086
   12837      Ob       1     SIL   O02Ix       1     -1.05    15.999
   12838      Ob       1     SIL   O02Iy       1     -1.05    15.999
   12839      Ob       1     SIL   O02Iz       1     -1.05    15.999
   12840      Ob       1     SIL   O02J0       1     -1.05    15.999
   12841      Ob       1     SIL   O02J1       1     -1.05    15.999
   12842      Ob       1     SIL   O02J2       1     -1.05    15.999
   12843      Si       1     SIL   Si19X       1       2.1    28.086
   12844      Si       1     SIL   Si19Y       1       2.1    28.086
   12845      Si       1     SIL   Si19Z       1       2.1    28.086
   12846      Ob       1     SIL   O02J3       1     -1.05    15.999
   12847      Ob       1     SIL   O02J4       1     -1.05    15.999
   12848      Ob       1     SIL   O02J5       1     -1.05    15.999
   12849      Ob       1     SIL   O02J6       1     -1.05    15.999
   12850      Ob       1     SIL   O02J7       1     -1.05    15.999
   12851      Ob       1     SIL   O02J8       1     -1.05    15.999
   12852      Si       1     SIL   Si19a       1       2.1    28.086
   12853      Si       1     SIL   Si19b       1       2.1    28.086
   12854      Si       1     SIL   Si19c       1       2.1    28.086
   12855      Ob       1     SIL   O02J9       1     -1.05    15.999
   12856      Ob       1     SIL   O02JA       1     -1.05    15.999
   12857      Ob       1     SIL   O02JB       1     -1.05    15.999
   12858      Ob       1     SIL   O02JC       1     -1.05    15.999
   12859      Ob       1     SIL   O02JD       1     -1.05    15.999
   12860      Ob       1     SIL   O02JE       1     -1.05    15.999
   12861      Si       1     SIL   Si19d       1       2.1    28.086
   12862      Si       1     SIL   Si19e       1       2.1    28.086
   12863      Si       1     SIL   Si19f       1       2.1    28.086
   12864      Ob       1     SIL   O02JF       1     -1.05    15.999
   12865      Ob       1     SIL   O02JG       1     -1.05    15.999
   12866      Ob       1     SIL   O02JH       1     -1.05    15.999
   12867      Ob       1     SIL   O02JI       1     -1.05    15.999
   12868      Ob       1     SIL   O02JJ       1     -1.05    15.999
   12869      Ob       1     SIL   O02JK       1     -1.05    15.999
   12870      Si       1     SIL   Si19g       1       2.1    28.086
   12871      Si       1     SIL   Si19h       1       2.1    28.086
   12872      Si       1     SIL   Si19i       1       2.1    28.086
   12873      Ob       1     SIL   O02JL       1     -1.05    15.999
   12874      Ob       1     SIL   O02JM       1     -1.05    15.999
   12875      Ob       1     SIL   O02JN       1     -1.05    15.999
   12876      Ob       1     SIL   O02JO       1     -1.05    15.999
   12877      Ob       1     SIL   O02JP       1     -1.05    15.999
   12878      Ob       1     SIL   O02JQ       1     -1.05    15.999
   12879      Si       1     SIL   Si19j       1       2.1    28.086
   12880      Si       1     SIL   Si19k       1       2.1    28.086
   12881      Si       1     SIL   Si19l       1       2.1    28.086
   12882      Ob       1     SIL   O02JR       1     -1.05    15.999
   12883      Ob       1     SIL   O02JS       1     -1.05    15.999
   12884      Ob       1     SIL   O02JT       1     -1.05    15.999
   12885      Ob       1     SIL   O02JU       1     -1.05    15.999
   12886      Ob       1     SIL   O02JV       1     -1.05    15.999
   12887      Ob       1     SIL   O02JW       1     -1.05    15.999
   12888      Si       1     SIL   Si19m       1       2.1    28.086
   12889      Si       1     SIL   Si19n       1       2.1    28.086
   12890      Si       1     SIL   Si19o       1       2.1    28.086
   12891      Ob       1     SIL   O02JX       1     -1.05    15.999
   12892      Ob       1     SIL   O02JY       1     -1.05    15.999
   12893      Ob       1     SIL   O02JZ       1     -1.05    15.999
   12894      Ob       1     SIL   O02Ja       1     -1.05    15.999
   12895      Ob       1     SIL   O02Jb       1     -1.05    15.999
   12896      Ob       1     SIL   O02Jc       1     -1.05    15.999
   12897      Si       1     SIL   Si19p       1       2.1    28.086
   12898      Si       1     SIL   Si19q       1       2.1    28.086
   12899      Si       1     SIL   Si19r       1       2.1    28.086
   12900      Ob       1     SIL   O02Jd       1     -1.05    15.999
   12901      Ob       1     SIL   O02Je       1     -1.05    15.999
   12902      Ob       1     SIL   O02Jf       1     -1.05    15.999
   12903      Ob       1     SIL   O02Jg       1     -1.05    15.999
   12904      Ob       1     SIL   O02Jh       1     -1.05    15.999
   12905      Ob       1     SIL   O02Ji       1     -1.05    15.999
   12906      Si       1     SIL   Si19s       1       2.1    28.086
   12907      Si       1     SIL   Si19t       1       2.1    28.086
   12908      Si       1     SIL   Si19u       1       2.1    28.086
   12909      Ob       1     SIL   O02Jj       1     -1.05    15.999
   12910      Ob       1     SIL   O02Jk       1     -1.05    15.999
   12911      Ob       1     SIL   O02Jl       1     -1.05    15.999
   12912      Ob       1     SIL   O02Jm       1     -1.05    15.999
   12913      Ob       1     SIL   O02Jn       1     -1.05    15.999
   12914      Ob       1     SIL   O02Jo       1     -1.05    15.999
   12915      Si       1     SIL   Si19v       1       2.1    28.086
   12916      Si       1     SIL   Si19w       1       2.1    28.086
   12917      Si       1     SIL   Si19x       1       2.1    28.086
   12918      Ob       1     SIL   O02Jp       1     -1.05    15.999
   12919      Ob       1     SIL   O02Jq       1     -1.05    15.999
   12920      Ob       1     SIL   O02Jr       1     -1.05    15.999
   12921      Ob       1     SIL   O02Js       1     -1.05    15.999
   12922      Ob       1     SIL   O02Jt       1     -1.05    15.999
   12923      Ob       1     SIL   O02Ju       1     -1.05    15.999
   12924      Si       1     SIL   Si19y       1       2.1    28.086
   12925      Si       1     SIL   Si19z       1       2.1    28.086
   12926      Si       1     SIL   Si1A0       1       2.1    28.086
   12927      Ob       1     SIL   O02Jv       1     -1.05    15.999
   12928      Ob       1     SIL   O02Jw       1     -1.05    15.999
   12929      Ob       1     SIL   O02Jx       1     -1.05    15.999
   12930      Ob       1     SIL   O02Jy       1     -1.05    15.999
   12931      Ob       1     SIL   O02Jz       1     -1.05    15.999
   12932      Ob       1     SIL   O02K0       1     -1.05    15.999
   12933      Si       1     SIL   Si1A1       1       2.1    28.086
   12934      Si       1     SIL   Si1A2       1       2.1    28.086
   12935      Si       1     SIL   Si1A3       1       2.1    28.086
   12936      Ob       1     SIL   O02K1       1     -1.05    15.999
   12937      Ob       1     SIL   O02K2       1     -1.05    15.999
   12938      Ob       1     SIL   O02K3       1     -1.05    15.999
   12939      Ob       1     SIL   O02K4       1     -1.05    15.999
   12940      Ob       1     SIL   O02K5       1     -1.05    15.999
   12941      Ob       1     SIL   O02K6       1     -1.05    15.999
   12942      Si       1     SIL   Si1A4       1       2.1    28.086
   12943      Si       1     SIL   Si1A5       1       2.1    28.086
   12944      Si       1     SIL   Si1A6       1       2.1    28.086
   12945      Ob       1     SIL   O02K7       1     -1.05    15.999
   12946      Ob       1     SIL   O02K8       1     -1.05    15.999
   12947      Ob       1     SIL   O02K9       1     -1.05    15.999
   12948      Ob       1     SIL   O02KA       1     -1.05    15.999
   12949      Ob       1     SIL   O02KB       1     -1.05    15.999
   12950      Ob       1     SIL   O02KC       1     -1.05    15.999
   12951      Si       1     SIL   Si1A7       1       2.1    28.086
   12952      Si       1     SIL   Si1A8       1       2.1    28.086
   12953      Si       1     SIL   Si1A9       1       2.1    28.086
   12954      Ob       1     SIL   O02KD       1     -1.05    15.999
   12955      Ob       1     SIL   O02KE       1     -1.05    15.999
   12956      Ob       1     SIL   O02KF       1     -1.05    15.999
   12957      Ob       1     SIL   O02KG       1     -1.05    15.999
   12958      Ob       1     SIL   O02KH       1     -1.05    15.999
   12959      Ob       1     SIL   O02KI       1     -1.05    15.999
   12960      Si       1     SIL   Si1AA       1       2.1    28.086
   12961      Si       1     SIL   Si1AB       1       2.1    28.086
   12962      Si       1     SIL   Si1AC       1       2.1    28.086
   12963      Ob       1     SIL   O02KJ       1     -1.05    15.999
   12964      Ob       1     SIL   O02KK       1     -1.05    15.999
   12965      Ob       1     SIL   O02KL       1     -1.05    15.999
   12966      Ob       1     SIL   O02KM       1     -1.05    15.999
   12967      Ob       1     SIL   O02KN       1     -1.05    15.999
   12968      Ob       1     SIL   O02KO       1     -1.05    15.999
   12969      Si       1     SIL   Si1AD       1       2.1    28.086
   12970      Si       1     SIL   Si1AE       1       2.1    28.086
   12971      Si       1     SIL   Si1AF       1       2.1    28.086
   12972      Ob       1     SIL   O02KP       1     -1.05    15.999
   12973      Ob       1     SIL   O02KQ       1     -1.05    15.999
   12974      Ob       1     SIL   O02KR       1     -1.05    15.999
   12975      Ob       1     SIL   O02KS       1     -1.05    15.999
   12976      Ob       1     SIL   O02KT       1     -1.05    15.999
   12977      Ob       1     SIL   O02KU       1     -1.05    15.999
   12978      Si       1     SIL   Si1AG       1       2.1    28.086
   12979      Si       1     SIL   Si1AH       1       2.1    28.086
   12980      Si       1     SIL   Si1AI       1       2.1    28.086
   12981      Ob       1     SIL   O02KV       1     -1.05    15.999
   12982      Ob       1     SIL   O02KW       1     -1.05    15.999
   12983      Ob       1     SIL   O02KX       1     -1.05    15.999
   12984      Ob       1     SIL   O02KY       1     -1.05    15.999
   12985      Ob       1     SIL   O02KZ       1     -1.05    15.999
   12986      Ob       1     SIL   O02Ka       1     -1.05    15.999
   12987      Si       1     SIL   Si1AJ       1       2.1    28.086
   12988      Si       1     SIL   Si1AK       1       2.1    28.086
   12989      Si       1     SIL   Si1AL       1       2.1    28.086
   12990      Ob       1     SIL   O02Kb       1     -1.05    15.999
   12991       O       1     SIL   O02Kc       1    -0.525    15.999
   12992       O       1     SIL   O02Kd       1    -0.525    15.999
   12993      Ob       1     SIL   O02Ke       1     -1.05    15.999
   12994      Ob       1     SIL   O02Kf       1     -1.05    15.999
   12995      Ob       1     SIL   O02Kg       1     -1.05    15.999
   12996      Si       1     SIL   Si1AM       1       2.1    28.086
   12997      Si       1     SIL   Si1AN       1       2.1    28.086
   12998      Si       1     SIL   Si1AO       1       2.1    28.086
   12999      Ob       1     SIL   O02Kh       1     -1.05    15.999
   13000      Ob       1     SIL   O02Ki       1     -1.05    15.999
   13001      Ob       1     SIL   O02Kj       1     -1.05    15.999
   13002      Ob       1     SIL   O02Kk       1     -1.05    15.999
   13003      Ob       1     SIL   O02Kl       1     -1.05    15.999
   13004      Ob       1     SIL   O02Km       1     -1.05    15.999
   13005      Si       1     SIL   Si1AP       1       2.1    28.086
   13006      Si       1     SIL   Si1AQ       1       2.1    28.086
   13007      Si       1     SIL   Si1AR       1       2.1    28.086
   13008      Ob       1     SIL   O02Kn       1     -1.05    15.999
   13009      Ob       1     SIL   O02Ko       1     -1.05    15.999
   13010      Ob       1     SIL   O02Kp       1     -1.05    15.999
   13011      Ob       1     SIL   O02Kq       1     -1.05    15.999
   13012      Ob       1     SIL   O02Kr       1     -1.05    15.999
   13013      Ob       1     SIL   O02Ks       1     -1.05    15.999
   13014      Si       1     SIL   Si1AS       1       2.1    28.086
   13015      Si       1     SIL   Si1AT       1       2.1    28.086
   13016      Si       1     SIL   Si1AU       1       2.1    28.086
   13017      Ob       1     SIL   O02Kt       1     -1.05    15.999
   13018      Ob       1     SIL   O02Ku       1     -1.05    15.999
   13019      Ob       1     SIL   O02Kv       1     -1.05    15.999
   13020      Ob       1     SIL   O02Kw       1     -1.05    15.999
   13021      Ob       1     SIL   O02Kx       1     -1.05    15.999
   13022      Ob       1     SIL   O02Ky       1     -1.05    15.999
   13023      Si       1     SIL   Si1AV       1       2.1    28.086
   13024      Si       1     SIL   Si1AW       1       2.1    28.086
   13025      Si       1     SIL   Si1AX       1       2.1    28.086
   13026      Ob       1     SIL   O02Kz       1     -1.05    15.999
   13027      Ob       1     SIL   O02L0       1     -1.05    15.999
   13028      Ob       1     SIL   O02L1       1     -1.05    15.999
   13029      Ob       1     SIL   O02L2       1     -1.05    15.999
   13030      Ob       1     SIL   O02L3       1     -1.05    15.999
   13031      Ob       1     SIL   O02L4       1     -1.05    15.999
   13032      Si       1     SIL   Si1AY       1       2.1    28.086
   13033      Si       1     SIL   Si1AZ       1       2.1    28.086
   13034      Si       1     SIL   Si1Aa       1       2.1    28.086
   13035      Ob       1     SIL   O02L5       1     -1.05    15.999
   13036      Ob       1     SIL   O02L6       1     -1.05    15.999
   13037      Ob       1     SIL   O02L7       1     -1.05    15.999
   13038      Ob       1     SIL   O02L8       1     -1.05    15.999
   13039      Ob       1     SIL   O02L9       1     -1.05    15.999
   13040      Ob       1     SIL   O02LA       1     -1.05    15.999
   13041      Si       1     SIL   Si1Ab       1       2.1    28.086
   13042      Si       1     SIL   Si1Ac       1       2.1    28.086
   13043      Si       1     SIL   Si1Ad       1       2.1    28.086
   13044      Ob       1     SIL   O02LB       1     -1.05    15.999
   13045      Ob       1     SIL   O02LC       1     -1.05    15.999
   13046      Ob       1     SIL   O02LD       1     -1.05    15.999
   13047      Ob       1     SIL   O02LE       1     -1.05    15.999
   13048      Ob       1     SIL   O02LF       1     -1.05    15.999
   13049      Ob       1     SIL   O02LG       1     -1.05    15.999
   13050      Si       1     SIL   Si1Ae       1       2.1    28.086
   13051      Si       1     SIL   Si1Af       1       2.1    28.086
   13052      Si       1     SIL   Si1Ag       1       2.1    28.086
   13053      Ob       1     SIL   O02LH       1     -1.05    15.999
   13054      Ob       1     SIL   O02LI       1     -1.05    15.999
   13055      Ob       1     SIL   O02LJ       1     -1.05    15.999
   13056      Ob       1     SIL   O02LK       1     -1.05    15.999
   13057      Ob       1     SIL   O02LL       1     -1.05    15.999
   13058      Ob       1     SIL   O02LM       1     -1.05    15.999
   13059      Si       1     SIL   Si1Ah       1       2.1    28.086
   13060      Si       1     SIL   Si1Ai       1       2.1    28.086
   13061      Si       1     SIL   Si1Aj       1       2.1    28.086
   13062      Ob       1     SIL   O02LN       1     -1.05    15.999
   13063      Ob       1     SIL   O02LO       1     -1.05    15.999
   13064      Ob       1     SIL   O02LP       1     -1.05    15.999
   13065      Ob       1     SIL   O02LQ       1     -1.05    15.999
   13066      Ob       1     SIL   O02LR       1     -1.05    15.999
   13067      Ob       1     SIL   O02LS       1     -1.05    15.999
   13068      Si       1     SIL   Si1Ak       1       2.1    28.086
   13069      Si       1     SIL   Si1Al       1       2.1    28.086
   13070      Si       1     SIL   Si1Am       1       2.1    28.086
   13071      Ob       1     SIL   O02LT       1     -1.05    15.999
   13072      Ob       1     SIL   O02LU       1     -1.05    15.999
   13073      Ob       1     SIL   O02LV       1     -1.05    15.999
   13074      Ob       1     SIL   O02LW       1     -1.05    15.999
   13075      Ob       1     SIL   O02LX       1     -1.05    15.999
   13076      Ob       1     SIL   O02LY       1     -1.05    15.999
   13077      Si       1     SIL   Si1An       1       2.1    28.086
   13078      Si       1     SIL   Si1Ao       1       2.1    28.086
   13079      Si       1     SIL   Si1Ap       1       2.1    28.086
   13080      Ob       1     SIL   O02LZ       1     -1.05    15.999
   13081      Ob       1     SIL   O02La       1     -1.05    15.999
   13082      Ob       1     SIL   O02Lb       1     -1.05    15.999
   13083      Ob       1     SIL   O02Lc       1     -1.05    15.999
   13084      Ob       1     SIL   O02Ld       1     -1.05    15.999
   13085      Ob       1     SIL   O02Le       1     -1.05    15.999
   13086      Si       1     SIL   Si1Aq       1       2.1    28.086
   13087      Si       1     SIL   Si1Ar       1       2.1    28.086
   13088      Si       1     SIL   Si1As       1       2.1    28.086
   13089      Ob       1     SIL   O02Lf       1     -1.05    15.999
   13090      Ob       1     SIL   O02Lg       1     -1.05    15.999
   13091      Ob       1     SIL   O02Lh       1     -1.05    15.999
   13092      Ob       1     SIL   O02Li       1     -1.05    15.999
   13093      Ob       1     SIL   O02Lj       1     -1.05    15.999
   13094      Ob       1     SIL   O02Lk       1     -1.05    15.999
   13095      Si       1     SIL   Si1At       1       2.1    28.086
   13096      Si       1     SIL   Si1Au       1       2.1    28.086
   13097      Si       1     SIL   Si1Av       1       2.1    28.086
   13098      Ob       1     SIL   O02Ll       1     -1.05    15.999
   13099      Ob       1     SIL   O02Lm       1     -1.05    15.999
   13100      Ob       1     SIL   O02Ln       1     -1.05    15.999
   13101      Ob       1     SIL   O02Lo       1     -1.05    15.999
   13102      Ob       1     SIL   O02Lp       1     -1.05    15.999
   13103      Ob       1     SIL   O02Lq       1     -1.05    15.999
   13104      Si       1     SIL   Si1Aw       1       2.1    28.086
   13105      Si       1     SIL   Si1Ax       1       2.1    28.086
   13106      Si       1     SIL   Si1Ay       1       2.1    28.086
   13107      Ob       1     SIL   O02Lr       1     -1.05    15.999
   13108      Ob       1     SIL   O02Ls       1     -1.05    15.999
   13109      Ob       1     SIL   O02Lt       1     -1.05    15.999
   13110      Ob       1     SIL   O02Lu       1     -1.05    15.999
   13111      Ob       1     SIL   O02Lv       1     -1.05    15.999
   13112      Ob       1     SIL   O02Lw       1     -1.05    15.999
   13113      Si       1     SIL   Si1Az       1       2.1    28.086
   13114      Si       1     SIL   Si1B0       1       2.1    28.086
   13115      Si       1     SIL   Si1B1       1       2.1    28.086
   13116      Ob       1     SIL   O02Lx       1     -1.05    15.999
   13117      Ob       1     SIL   O02Ly       1     -1.05    15.999
   13118      Ob       1     SIL   O02Lz       1     -1.05    15.999
   13119      Ob       1     SIL   O02M0       1     -1.05    15.999
   13120      Ob       1     SIL   O02M1       1     -1.05    15.999
   13121      Ob       1     SIL   O02M2       1     -1.05    15.999
   13122      Si       1     SIL   Si1B2       1       2.1    28.086
   13123      Si       1     SIL   Si1B3       1       2.1    28.086
   13124      Si       1     SIL   Si1B4       1       2.1    28.086
   13125      Ob       1     SIL   O02M3       1     -1.05    15.999
   13126      Ob       1     SIL   O02M4       1     -1.05    15.999
   13127      Ob       1     SIL   O02M5       1     -1.05    15.999
   13128      Ob       1     SIL   O02M6       1     -1.05    15.999
   13129      Ob       1     SIL   O02M7       1     -1.05    15.999
   13130      Ob       1     SIL   O02M8       1     -1.05    15.999
   13131      Si       1     SIL   Si1B5       1       2.1    28.086
   13132      Si       1     SIL   Si1B6       1       2.1    28.086
   13133      Si       1     SIL   Si1B7       1       2.1    28.086
   13134      Ob       1     SIL   O02M9       1     -1.05    15.999
   13135      Ob       1     SIL   O02MA       1     -1.05    15.999
   13136      Ob       1     SIL   O02MB       1     -1.05    15.999
   13137      Ob       1     SIL   O02MC       1     -1.05    15.999
   13138      Ob       1     SIL   O02MD       1     -1.05    15.999
   13139      Ob       1     SIL   O02ME       1     -1.05    15.999
   13140      Si       1     SIL   Si1B8       1       2.1    28.086
   13141      Si       1     SIL   Si1B9       1       2.1    28.086
   13142      Si       1     SIL   Si1BA       1       2.1    28.086
   13143      Ob       1     SIL   O02MF       1     -1.05    15.999
   13144      Ob       1     SIL   O02MG       1     -1.05    15.999
   13145      Ob       1     SIL   O02MH       1     -1.05    15.999
   13146      Ob       1     SIL   O02MI       1     -1.05    15.999
   13147      Ob       1     SIL   O02MJ       1     -1.05    15.999
   13148      Ob       1     SIL   O02MK       1     -1.05    15.999
   13149      Si       1     SIL   Si1BB       1       2.1    28.086
   13150      Si       1     SIL   Si1BC       1       2.1    28.086
   13151      Si       1     SIL   Si1BD       1       2.1    28.086
   13152      Ob       1     SIL   O02ML       1     -1.05    15.999
   13153      Ob       1     SIL   O02MM       1     -1.05    15.999
   13154      Ob       1     SIL   O02MN       1     -1.05    15.999
   13155      Ob       1     SIL   O02MO       1     -1.05    15.999
   13156      Ob       1     SIL   O02MP       1     -1.05    15.999
   13157      Ob       1     SIL   O02MQ       1     -1.05    15.999
   13158      Si       1     SIL   Si1BE       1       2.1    28.086
   13159      Si       1     SIL   Si1BF       1       2.1    28.086
   13160      Si       1     SIL   Si1BG       1       2.1    28.086
   13161      Ob       1     SIL   O02MR       1     -1.05    15.999
   13162      Ob       1     SIL   O02MS       1     -1.05    15.999
   13163      Ob       1     SIL   O02MT       1     -1.05    15.999
   13164      Ob       1     SIL   O02MU       1     -1.05    15.999
   13165      Ob       1     SIL   O02MV       1     -1.05    15.999
   13166      Ob       1     SIL   O02MW       1     -1.05    15.999
   13167      Si       1     SIL   Si1BH       1       2.1    28.086
   13168      Si       1     SIL   Si1BI       1       2.1    28.086
   13169      Si       1     SIL   Si1BJ       1       2.1    28.086
   13170      Ob       1     SIL   O02MX       1     -1.05    15.999
   13171      Ob       1     SIL   O02MY       1     -1.05    15.999
   13172      Ob       1     SIL   O02MZ       1     -1.05    15.999
   13173      Ob       1     SIL   O02Ma       1     -1.05    15.999
   13174      Ob       1     SIL   O02Mb       1     -1.05    15.999
   13175      Ob       1     SIL   O02Mc       1     -1.05    15.999
   13176      Si       1     SIL   Si1BK       1       2.1    28.086
   13177      Si       1     SIL   Si1BL       1       2.1    28.086
   13178      Si       1     SIL   Si1BM       1       2.1    28.086
   13179      Ob       1     SIL   O02Md       1     -1.05    15.999
   13180      Ob       1     SIL   O02Me       1     -1.05    15.999
   13181      Ob       1     SIL   O02Mf       1     -1.05    15.999
   13182      Ob       1     SIL   O02Mg       1     -1.05    15.999
   13183      Ob       1     SIL   O02Mh       1     -1.05    15.999
   13184      Ob       1     SIL   O02Mi       1     -1.05    15.999
   13185      Si       1     SIL   Si1BN       1       2.1    28.086
   13186      Si       1     SIL   Si1BO       1       2.1    28.086
   13187      Si       1     SIL   Si1BP       1       2.1    28.086
   13188      Ob       1     SIL   O02Mj       1     -1.05    15.999
   13189      Ob       1     SIL   O02Mk       1     -1.05    15.999
   13190      Ob       1     SIL   O02Ml       1     -1.05    15.999
   13191      Ob       1     SIL   O02Mm       1     -1.05    15.999
   13192      Ob       1     SIL   O02Mn       1     -1.05    15.999
   13193      Ob       1     SIL   O02Mo       1     -1.05    15.999
   13194      Si       1     SIL   Si1BQ       1       2.1    28.086
   13195      Si       1     SIL   Si1BR       1       2.1    28.086
   13196      Si       1     SIL   Si1BS       1       2.1    28.086
   13197      Ob       1     SIL   O02Mp       1     -1.05    15.999
   13198       O       1     SIL   O02Mq       1    -0.525    15.999
   13199       O       1     SIL   O02Mr       1    -0.525    15.999
   13200      Ob       1     SIL   O02Ms       1     -1.05    15.999
   13201      Ob       1     SIL   O02Mt       1     -1.05    15.999
   13202      Ob       1     SIL   O02Mu       1     -1.05    15.999
   13203      Si       1     SIL   Si1BT       1       2.1    28.086
   13204      Si       1     SIL   Si1BU       1       2.1    28.086
   13205      Si       1     SIL   Si1BV       1       2.1    28.086
   13206      Ob       1     SIL   O02Mv       1     -1.05    15.999
   13207      Ob       1     SIL   O02Mw       1     -1.05    15.999
   13208      Ob       1     SIL   O02Mx       1     -1.05    15.999
   13209      Ob       1     SIL   O02My       1     -1.05    15.999
   13210      Ob       1     SIL   O02Mz       1     -1.05    15.999
   13211      Ob       1     SIL   O02N0       1     -1.05    15.999
   13212      Si       1     SIL   Si1BW       1       2.1    28.086
   13213      Si       1     SIL   Si1BX       1       2.1    28.086
   13214      Si       1     SIL   Si1BY       1       2.1    28.086
   13215      Ob       1     SIL   O02N1       1     -1.05    15.999
   13216      Ob       1     SIL   O02N2       1     -1.05    15.999
   13217      Ob       1     SIL   O02N3       1     -1.05    15.999
   13218      Ob       1     SIL   O02N4       1     -1.05    15.999
   13219      Ob       1     SIL   O02N5       1     -1.05    15.999
   13220      Ob       1     SIL   O02N6       1     -1.05    15.999
   13221      Si       1     SIL   Si1BZ       1       2.1    28.086
   13222      Si       1     SIL   Si1Ba       1       2.1    28.086
   13223      Si       1     SIL   Si1Bb       1       2.1    28.086
   13224      Ob       1     SIL   O02N7       1     -1.05    15.999
   13225      Ob       1     SIL   O02N8       1     -1.05    15.999
   13226      Ob       1     SIL   O02N9       1     -1.05    15.999
   13227      Ob       1     SIL   O02NA       1     -1.05    15.999
   13228      Ob       1     SIL   O02NB       1     -1.05    15.999
   13229      Ob       1     SIL   O02NC       1     -1.05    15.999
   13230      Si       1     SIL   Si1Bc       1       2.1    28.086
   13231      Si       1     SIL   Si1Bd       1       2.1    28.086
   13232      Si       1     SIL   Si1Be       1       2.1    28.086
   13233      Ob       1     SIL   O02ND       1     -1.05    15.999
   13234      Ob       1     SIL   O02NE       1     -1.05    15.999
   13235      Ob       1     SIL   O02NF       1     -1.05    15.999
   13236      Ob       1     SIL   O02NG       1     -1.05    15.999
   13237      Ob       1     SIL   O02NH       1     -1.05    15.999
   13238      Ob       1     SIL   O02NI       1     -1.05    15.999
   13239      Si       1     SIL   Si1Bf       1       2.1    28.086
   13240      Si       1     SIL   Si1Bg       1       2.1    28.086
   13241      Si       1     SIL   Si1Bh       1       2.1    28.086
   13242      Ob       1     SIL   O02NJ       1     -1.05    15.999
   13243      Ob       1     SIL   O02NK       1     -1.05    15.999
   13244      Ob       1     SIL   O02NL       1     -1.05    15.999
   13245      Ob       1     SIL   O02NM       1     -1.05    15.999
   13246      Ob       1     SIL   O02NN       1     -1.05    15.999
   13247      Ob       1     SIL   O02NO       1     -1.05    15.999
   13248      Si       1     SIL   Si1Bi       1       2.1    28.086
   13249      Si       1     SIL   Si1Bj       1       2.1    28.086
   13250      Si       1     SIL   Si1Bk       1       2.1    28.086
   13251      Ob       1     SIL   O02NP       1     -1.05    15.999
   13252      Ob       1     SIL   O02NQ       1     -1.05    15.999
   13253      Ob       1     SIL   O02NR       1     -1.05    15.999
   13254      Ob       1     SIL   O02NS       1     -1.05    15.999
   13255      Ob       1     SIL   O02NT       1     -1.05    15.999
   13256      Ob       1     SIL   O02NU       1     -1.05    15.999
   13257      Si       1     SIL   Si1Bl       1       2.1    28.086
   13258      Si       1     SIL   Si1Bm       1       2.1    28.086
   13259      Si       1     SIL   Si1Bn       1       2.1    28.086
   13260      Ob       1     SIL   O02NV       1     -1.05    15.999
   13261      Ob       1     SIL   O02NW       1     -1.05    15.999
   13262      Ob       1     SIL   O02NX       1     -1.05    15.999
   13263      Ob       1     SIL   O02NY       1     -1.05    15.999
   13264      Ob       1     SIL   O02NZ       1     -1.05    15.999
   13265      Ob       1     SIL   O02Na       1     -1.05    15.999
   13266      Si       1     SIL   Si1Bo       1       2.1    28.086
   13267      Si       1     SIL   Si1Bp       1       2.1    28.086
   13268      Si       1     SIL   Si1Bq       1       2.1    28.086
   13269      Ob       1     SIL   O02Nb       1     -1.05    15.999
   13270      Ob       1     SIL   O02Nc       1     -1.05    15.999
   13271      Ob       1     SIL   O02Nd       1     -1.05    15.999
   13272      Ob       1     SIL   O02Ne       1     -1.05    15.999
   13273      Ob       1     SIL   O02Nf       1     -1.05    15.999
   13274      Ob       1     SIL   O02Ng       1     -1.05    15.999
   13275      Si       1     SIL   Si1Br       1       2.1    28.086
   13276      Si       1     SIL   Si1Bs       1       2.1    28.086
   13277      Si       1     SIL   Si1Bt       1       2.1    28.086
   13278      Ob       1     SIL   O02Nh       1     -1.05    15.999
   13279      Ob       1     SIL   O02Ni       1     -1.05    15.999
   13280      Ob       1     SIL   O02Nj       1     -1.05    15.999
   13281      Ob       1     SIL   O02Nk       1     -1.05    15.999
   13282      Ob       1     SIL   O02Nl       1     -1.05    15.999
   13283      Ob       1     SIL   O02Nm       1     -1.05    15.999
   13284      Si       1     SIL   Si1Bu       1       2.1    28.086
   13285      Si       1     SIL   Si1Bv       1       2.1    28.086
   13286      Si       1     SIL   Si1Bw       1       2.1    28.086
   13287      Ob       1     SIL   O02Nn       1     -1.05    15.999
   13288      Ob       1     SIL   O02No       1     -1.05    15.999
   13289      Ob       1     SIL   O02Np       1     -1.05    15.999
   13290      Ob       1     SIL   O02Nq       1     -1.05    15.999
   13291      Ob       1     SIL   O02Nr       1     -1.05    15.999
   13292      Ob       1     SIL   O02Ns       1     -1.05    15.999
   13293      Si       1     SIL   Si1Bx       1       2.1    28.086
   13294      Si       1     SIL   Si1By       1       2.1    28.086
   13295      Si       1     SIL   Si1Bz       1       2.1    28.086
   13296      Ob       1     SIL   O02Nt       1     -1.05    15.999
   13297      Ob       1     SIL   O02Nu       1     -1.05    15.999
   13298      Ob       1     SIL   O02Nv       1     -1.05    15.999
   13299      Ob       1     SIL   O02Nw       1     -1.05    15.999
   13300      Ob       1     SIL   O02Nx       1     -1.05    15.999
   13301      Ob       1     SIL   O02Ny       1     -1.05    15.999
   13302      Si       1     SIL   Si1C0       1       2.1    28.086
   13303      Si       1     SIL   Si1C1       1       2.1    28.086
   13304      Si       1     SIL   Si1C2       1       2.1    28.086
   13305      Ob       1     SIL   O02Nz       1     -1.05    15.999
   13306      Ob       1     SIL   O02O0       1     -1.05    15.999
   13307      Ob       1     SIL   O02O1       1     -1.05    15.999
   13308      Ob       1     SIL   O02O2       1     -1.05    15.999
   13309      Ob       1     SIL   O02O3       1     -1.05    15.999
   13310      Ob       1     SIL   O02O4       1     -1.05    15.999
   13311      Si       1     SIL   Si1C3       1       2.1    28.086
   13312      Si       1     SIL   Si1C4       1       2.1    28.086
   13313      Si       1     SIL   Si1C5       1       2.1    28.086
   13314      Ob       1     SIL   O02O5       1     -1.05    15.999
   13315      Ob       1     SIL   O02O6       1     -1.05    15.999
   13316      Ob       1     SIL   O02O7       1     -1.05    15.999
   13317      Ob       1     SIL   O02O8       1     -1.05    15.999
   13318      Ob       1     SIL   O02O9       1     -1.05    15.999
   13319      Ob       1     SIL   O02OA       1     -1.05    15.999
   13320      Si       1     SIL   Si1C6       1       2.1    28.086
   13321      Si       1     SIL   Si1C7       1       2.1    28.086
   13322      Si       1     SIL   Si1C8       1       2.1    28.086
   13323      Ob       1     SIL   O02OB       1     -1.05    15.999
   13324      Ob       1     SIL   O02OC       1     -1.05    15.999
   13325      Ob       1     SIL   O02OD       1     -1.05    15.999
   13326      Ob       1     SIL   O02OE       1     -1.05    15.999
   13327      Ob       1     SIL   O02OF       1     -1.05    15.999
   13328      Ob       1     SIL   O02OG       1     -1.05    15.999
   13329      Si       1     SIL   Si1C9       1       2.1    28.086
   13330      Si       1     SIL   Si1CA       1       2.1    28.086
   13331      Si       1     SIL   Si1CB       1       2.1    28.086
   13332      Ob       1     SIL   O02OH       1     -1.05    15.999
   13333      Ob       1     SIL   O02OI       1     -1.05    15.999
   13334      Ob       1     SIL   O02OJ       1     -1.05    15.999
   13335      Ob       1     SIL   O02OK       1     -1.05    15.999
   13336      Ob       1     SIL   O02OL       1     -1.05    15.999
   13337      Ob       1     SIL   O02OM       1     -1.05    15.999
   13338      Si       1     SIL   Si1CC       1       2.1    28.086
   13339      Si       1     SIL   Si1CD       1       2.1    28.086
   13340      Si       1     SIL   Si1CE       1       2.1    28.086
   13341      Ob       1     SIL   O02ON       1     -1.05    15.999
   13342      Ob       1     SIL   O02OO       1     -1.05    15.999
   13343      Ob       1     SIL   O02OP       1     -1.05    15.999
   13344      Ob       1     SIL   O02OQ       1     -1.05    15.999
   13345      Ob       1     SIL   O02OR       1     -1.05    15.999
   13346      Ob       1     SIL   O02OS       1     -1.05    15.999
   13347      Si       1     SIL   Si1CF       1       2.1    28.086
   13348      Si       1     SIL   Si1CG       1       2.1    28.086
   13349      Si       1     SIL   Si1CH       1       2.1    28.086
   13350      Ob       1     SIL   O02OT       1     -1.05    15.999
   13351      Ob       1     SIL   O02OU       1     -1.05    15.999
   13352      Ob       1     SIL   O02OV       1     -1.05    15.999
   13353      Ob       1     SIL   O02OW       1     -1.05    15.999
   13354      Ob       1     SIL   O02OX       1     -1.05    15.999
   13355      Ob       1     SIL   O02OY       1     -1.05    15.999
   13356      Si       1     SIL   Si1CI       1       2.1    28.086
   13357      Si       1     SIL   Si1CJ       1       2.1    28.086
   13358      Si       1     SIL   Si1CK       1       2.1    28.086
   13359      Ob       1     SIL   O02OZ       1     -1.05    15.999
   13360      Ob       1     SIL   O02Oa       1     -1.05    15.999
   13361      Ob       1     SIL   O02Ob       1     -1.05    15.999
   13362      Ob       1     SIL   O02Oc       1     -1.05    15.999
   13363      Ob       1     SIL   O02Od       1     -1.05    15.999
   13364      Ob       1     SIL   O02Oe       1     -1.05    15.999
   13365      Si       1     SIL   Si1CL       1       2.1    28.086
   13366      Si       1     SIL   Si1CM       1       2.1    28.086
   13367      Si       1     SIL   Si1CN       1       2.1    28.086
   13368      Ob       1     SIL   O02Of       1     -1.05    15.999
   13369      Ob       1     SIL   O02Og       1     -1.05    15.999
   13370      Ob       1     SIL   O02Oh       1     -1.05    15.999
   13371      Ob       1     SIL   O02Oi       1     -1.05    15.999
   13372      Ob       1     SIL   O02Oj       1     -1.05    15.999
   13373      Ob       1     SIL   O02Ok       1     -1.05    15.999
   13374      Si       1     SIL   Si1CO       1       2.1    28.086
   13375      Si       1     SIL   Si1CP       1       2.1    28.086
   13376      Si       1     SIL   Si1CQ       1       2.1    28.086
   13377      Ob       1     SIL   O02Ol       1     -1.05    15.999
   13378      Ob       1     SIL   O02Om       1     -1.05    15.999
   13379      Ob       1     SIL   O02On       1     -1.05    15.999
   13380      Ob       1     SIL   O02Oo       1     -1.05    15.999
   13381      Ob       1     SIL   O02Op       1     -1.05    15.999
   13382      Ob       1     SIL   O02Oq       1     -1.05    15.999
   13383      Si       1     SIL   Si1CR       1       2.1    28.086
   13384      Si       1     SIL   Si1CS       1       2.1    28.086
   13385      Si       1     SIL   Si1CT       1       2.1    28.086
   13386      Ob       1     SIL   O02Or       1     -1.05    15.999
   13387      Ob       1     SIL   O02Os       1     -1.05    15.999
   13388      Ob       1     SIL   O02Ot       1     -1.05    15.999
   13389      Ob       1     SIL   O02Ou       1     -1.05    15.999
   13390      Ob       1     SIL   O02Ov       1     -1.05    15.999
   13391      Ob       1     SIL   O02Ow       1     -1.05    15.999
   13392      Si       1     SIL   Si1CU       1       2.1    28.086
   13393      Si       1     SIL   Si1CV       1       2.1    28.086
   13394      Si       1     SIL   Si1CW       1       2.1    28.086
   13395      Ob       1     SIL   O02Ox       1     -1.05    15.999
   13396      Ob       1     SIL   O02Oy       1     -1.05    15.999
   13397      Ob       1     SIL   O02Oz       1     -1.05    15.999
   13398      Ob       1     SIL   O02P0       1     -1.05    15.999
   13399      Ob       1     SIL   O02P1       1     -1.05    15.999
   13400      Ob       1     SIL   O02P2       1     -1.05    15.999
   13401      Si       1     SIL   Si1CX       1       2.1    28.086
   13402      Si       1     SIL   Si1CY       1       2.1    28.086
   13403      Si       1     SIL   Si1CZ       1       2.1    28.086
   13404      Ob       1     SIL   O02P3       1     -1.05    15.999
   13405       O       1     SIL   O02P4       1    -0.525    15.999
   13406       O       1     SIL   O02P5       1    -0.525    15.999
   13407      Ob       1     SIL   O02P6       1     -1.05    15.999
   13408      Ob       1     SIL   O02P7       1     -1.05    15.999
   13409      Ob       1     SIL   O02P8       1     -1.05    15.999
   13410      Si       1     SIL   Si1Ca       1       2.1    28.086
   13411      Si       1     SIL   Si1Cb       1       2.1    28.086
   13412      Si       1     SIL   Si1Cc       1       2.1    28.086
   13413      Ob       1     SIL   O02P9       1     -1.05    15.999
   13414      Ob       1     SIL   O02PA       1     -1.05    15.999
   13415      Ob       1     SIL   O02PB       1     -1.05    15.999
   13416      Ob       1     SIL   O02PC       1     -1.05    15.999
   13417      Ob       1     SIL   O02PD       1     -1.05    15.999
   13418      Ob       1     SIL   O02PE       1     -1.05    15.999
   13419      Si       1     SIL   Si1Cd       1       2.1    28.086
   13420      Si       1     SIL   Si1Ce       1       2.1    28.086
   13421      Si       1     SIL   Si1Cf       1       2.1    28.086
   13422      Ob       1     SIL   O02PF       1     -1.05    15.999
   13423      Ob       1     SIL   O02PG       1     -1.05    15.999
   13424      Ob       1     SIL   O02PH       1     -1.05    15.999
   13425      Ob       1     SIL   O02PI       1     -1.05    15.999
   13426      Ob       1     SIL   O02PJ       1     -1.05    15.999
   13427      Ob       1     SIL   O02PK       1     -1.05    15.999
   13428      Si       1     SIL   Si1Cg       1       2.1    28.086
   13429      Si       1     SIL   Si1Ch       1       2.1    28.086
   13430      Si       1     SIL   Si1Ci       1       2.1    28.086
   13431      Ob       1     SIL   O02PL       1     -1.05    15.999
   13432      Ob       1     SIL   O02PM       1     -1.05    15.999
   13433      Ob       1     SIL   O02PN       1     -1.05    15.999
   13434      Ob       1     SIL   O02PO       1     -1.05    15.999
   13435      Ob       1     SIL   O02PP       1     -1.05    15.999
   13436      Ob       1     SIL   O02PQ       1     -1.05    15.999
   13437      Si       1     SIL   Si1Cj       1       2.1    28.086
   13438      Si       1     SIL   Si1Ck       1       2.1    28.086
   13439      Si       1     SIL   Si1Cl       1       2.1    28.086
   13440      Ob       1     SIL   O02PR       1     -1.05    15.999
   13441      Ob       1     SIL   O02PS       1     -1.05    15.999
   13442      Ob       1     SIL   O02PT       1     -1.05    15.999
   13443      Ob       1     SIL   O02PU       1     -1.05    15.999
   13444      Ob       1     SIL   O02PV       1     -1.05    15.999
   13445      Ob       1     SIL   O02PW       1     -1.05    15.999
   13446      Si       1     SIL   Si1Cm       1       2.1    28.086
   13447      Si       1     SIL   Si1Cn       1       2.1    28.086
   13448      Si       1     SIL   Si1Co       1       2.1    28.086
   13449      Ob       1     SIL   O02PX       1     -1.05    15.999
   13450      Ob       1     SIL   O02PY       1     -1.05    15.999
   13451      Ob       1     SIL   O02PZ       1     -1.05    15.999
   13452      Ob       1     SIL   O02Pa       1     -1.05    15.999
   13453      Ob       1     SIL   O02Pb       1     -1.05    15.999
   13454      Ob       1     SIL   O02Pc       1     -1.05    15.999
   13455      Si       1     SIL   Si1Cp       1       2.1    28.086
   13456      Si       1     SIL   Si1Cq       1       2.1    28.086
   13457      Si       1     SIL   Si1Cr       1       2.1    28.086
   13458      Ob       1     SIL   O02Pd       1     -1.05    15.999
   13459      Ob       1     SIL   O02Pe       1     -1.05    15.999
   13460      Ob       1     SIL   O02Pf       1     -1.05    15.999
   13461      Ob       1     SIL   O02Pg       1     -1.05    15.999
   13462      Ob       1     SIL   O02Ph       1     -1.05    15.999
   13463      Ob       1     SIL   O02Pi       1     -1.05    15.999
   13464      Si       1     SIL   Si1Cs       1       2.1    28.086
   13465      Si       1     SIL   Si1Ct       1       2.1    28.086
   13466      Si       1     SIL   Si1Cu       1       2.1    28.086
   13467      Ob       1     SIL   O02Pj       1     -1.05    15.999
   13468      Ob       1     SIL   O02Pk       1     -1.05    15.999
   13469      Ob       1     SIL   O02Pl       1     -1.05    15.999
   13470      Ob       1     SIL   O02Pm       1     -1.05    15.999
   13471      Ob       1     SIL   O02Pn       1     -1.05    15.999
   13472      Ob       1     SIL   O02Po       1     -1.05    15.999
   13473      Si       1     SIL   Si1Cv       1       2.1    28.086
   13474      Si       1     SIL   Si1Cw       1       2.1    28.086
   13475      Si       1     SIL   Si1Cx       1       2.1    28.086
   13476      Ob       1     SIL   O02Pp       1     -1.05    15.999
   13477      Ob       1     SIL   O02Pq       1     -1.05    15.999
   13478      Ob       1     SIL   O02Pr       1     -1.05    15.999
   13479      Ob       1     SIL   O02Ps       1     -1.05    15.999
   13480      Ob       1     SIL   O02Pt       1     -1.05    15.999
   13481      Ob       1     SIL   O02Pu       1     -1.05    15.999
   13482      Si       1     SIL   Si1Cy       1       2.1    28.086
   13483      Si       1     SIL   Si1Cz       1       2.1    28.086
   13484      Si       1     SIL   Si1D0       1       2.1    28.086
   13485      Ob       1     SIL   O02Pv       1     -1.05    15.999
   13486      Ob       1     SIL   O02Pw       1     -1.05    15.999
   13487      Ob       1     SIL   O02Px       1     -1.05    15.999
   13488      Ob       1     SIL   O02Py       1     -1.05    15.999
   13489      Ob       1     SIL   O02Pz       1     -1.05    15.999
   13490      Ob       1     SIL   O02Q0       1     -1.05    15.999
   13491      Si       1     SIL   Si1D1       1       2.1    28.086
   13492      Si       1     SIL   Si1D2       1       2.1    28.086
   13493      Si       1     SIL   Si1D3       1       2.1    28.086
   13494      Ob       1     SIL   O02Q1       1     -1.05    15.999
   13495      Ob       1     SIL   O02Q2       1     -1.05    15.999
   13496      Ob       1     SIL   O02Q3       1     -1.05    15.999
   13497      Ob       1     SIL   O02Q4       1     -1.05    15.999
   13498      Ob       1     SIL   O02Q5       1     -1.05    15.999
   13499      Ob       1     SIL   O02Q6       1     -1.05    15.999
   13500      Si       1     SIL   Si1D4       1       2.1    28.086
   13501      Si       1     SIL   Si1D5       1       2.1    28.086
   13502      Si       1     SIL   Si1D6       1       2.1    28.086
   13503      Ob       1     SIL   O02Q7       1     -1.05    15.999
   13504      Ob       1     SIL   O02Q8       1     -1.05    15.999
   13505      Ob       1     SIL   O02Q9       1     -1.05    15.999
   13506      Ob       1     SIL   O02QA       1     -1.05    15.999
   13507      Ob       1     SIL   O02QB       1     -1.05    15.999
   13508      Ob       1     SIL   O02QC       1     -1.05    15.999
   13509      Si       1     SIL   Si1D7       1       2.1    28.086
   13510      Si       1     SIL   Si1D8       1       2.1    28.086
   13511      Si       1     SIL   Si1D9       1       2.1    28.086
   13512      Ob       1     SIL   O02QD       1     -1.05    15.999
   13513      Ob       1     SIL   O02QE       1     -1.05    15.999
   13514      Ob       1     SIL   O02QF       1     -1.05    15.999
   13515      Ob       1     SIL   O02QG       1     -1.05    15.999
   13516      Ob       1     SIL   O02QH       1     -1.05    15.999
   13517      Ob       1     SIL   O02QI       1     -1.05    15.999
   13518      Si       1     SIL   Si1DA       1       2.1    28.086
   13519      Si       1     SIL   Si1DB       1       2.1    28.086
   13520      Si       1     SIL   Si1DC       1       2.1    28.086
   13521      Ob       1     SIL   O02QJ       1     -1.05    15.999
   13522      Ob       1     SIL   O02QK       1     -1.05    15.999
   13523      Ob       1     SIL   O02QL       1     -1.05    15.999
   13524      Ob       1     SIL   O02QM       1     -1.05    15.999
   13525      Ob       1     SIL   O02QN       1     -1.05    15.999
   13526      Ob       1     SIL   O02QO       1     -1.05    15.999
   13527      Si       1     SIL   Si1DD       1       2.1    28.086
   13528      Si       1     SIL   Si1DE       1       2.1    28.086
   13529      Si       1     SIL   Si1DF       1       2.1    28.086
   13530      Ob       1     SIL   O02QP       1     -1.05    15.999
   13531      Ob       1     SIL   O02QQ       1     -1.05    15.999
   13532      Ob       1     SIL   O02QR       1     -1.05    15.999
   13533      Ob       1     SIL   O02QS       1     -1.05    15.999
   13534      Ob       1     SIL   O02QT       1     -1.05    15.999
   13535      Ob       1     SIL   O02QU       1     -1.05    15.999
   13536      Si       1     SIL   Si1DG       1       2.1    28.086
   13537      Si       1     SIL   Si1DH       1       2.1    28.086
   13538      Si       1     SIL   Si1DI       1       2.1    28.086
   13539      Ob       1     SIL   O02QV       1     -1.05    15.999
   13540      Ob       1     SIL   O02QW       1     -1.05    15.999
   13541      Ob       1     SIL   O02QX       1     -1.05    15.999
   13542      Ob       1     SIL   O02QY       1     -1.05    15.999
   13543      Ob       1     SIL   O02QZ       1     -1.05    15.999
   13544      Ob       1     SIL   O02Qa       1     -1.05    15.999
   13545      Si       1     SIL   Si1DJ       1       2.1    28.086
   13546      Si       1     SIL   Si1DK       1       2.1    28.086
   13547      Si       1     SIL   Si1DL       1       2.1    28.086
   13548      Ob       1     SIL   O02Qb       1     -1.05    15.999
   13549      Ob       1     SIL   O02Qc       1     -1.05    15.999
   13550      Ob       1     SIL   O02Qd       1     -1.05    15.999
   13551      Ob       1     SIL   O02Qe       1     -1.05    15.999
   13552      Ob       1     SIL   O02Qf       1     -1.05    15.999
   13553      Ob       1     SIL   O02Qg       1     -1.05    15.999
   13554      Si       1     SIL   Si1DM       1       2.1    28.086
   13555      Si       1     SIL   Si1DN       1       2.1    28.086
   13556      Si       1     SIL   Si1DO       1       2.1    28.086
   13557      Ob       1     SIL   O02Qh       1     -1.05    15.999
   13558      Ob       1     SIL   O02Qi       1     -1.05    15.999
   13559      Ob       1     SIL   O02Qj       1     -1.05    15.999
   13560      Ob       1     SIL   O02Qk       1     -1.05    15.999
   13561      Ob       1     SIL   O02Ql       1     -1.05    15.999
   13562      Ob       1     SIL   O02Qm       1     -1.05    15.999
   13563      Si       1     SIL   Si1DP       1       2.1    28.086
   13564      Si       1     SIL   Si1DQ       1       2.1    28.086
   13565      Si       1     SIL   Si1DR       1       2.1    28.086
   13566      Ob       1     SIL   O02Qn       1     -1.05    15.999
   13567      Ob       1     SIL   O02Qo       1     -1.05    15.999
   13568      Ob       1     SIL   O02Qp       1     -1.05    15.999
   13569      Ob       1     SIL   O02Qq       1     -1.05    15.999
   13570      Ob       1     SIL   O02Qr       1     -1.05    15.999
   13571      Ob       1     SIL   O02Qs       1     -1.05    15.999
   13572      Si       1     SIL   Si1DS       1       2.1    28.086
   13573      Si       1     SIL   Si1DT       1       2.1    28.086
   13574      Si       1     SIL   Si1DU       1       2.1    28.086
   13575      Ob       1     SIL   O02Qt       1     -1.05    15.999
   13576      Ob       1     SIL   O02Qu       1     -1.05    15.999
   13577      Ob       1     SIL   O02Qv       1     -1.05    15.999
   13578      Ob       1     SIL   O02Qw       1     -1.05    15.999
   13579      Ob       1     SIL   O02Qx       1     -1.05    15.999
   13580      Ob       1     SIL   O02Qy       1     -1.05    15.999
   13581      Si       1     SIL   Si1DV       1       2.1    28.086
   13582      Si       1     SIL   Si1DW       1       2.1    28.086
   13583      Si       1     SIL   Si1DX       1       2.1    28.086
   13584      Ob       1     SIL   O02Qz       1     -1.05    15.999
   13585      Ob       1     SIL   O02R0       1     -1.05    15.999
   13586      Ob       1     SIL   O02R1       1     -1.05    15.999
   13587      Ob       1     SIL   O02R2       1     -1.05    15.999
   13588      Ob       1     SIL   O02R3       1     -1.05    15.999
   13589      Ob       1     SIL   O02R4       1     -1.05    15.999
   13590      Si       1     SIL   Si1DY       1       2.1    28.086
   13591      Si       1     SIL   Si1DZ       1       2.1    28.086
   13592      Si       1     SIL   Si1Da       1       2.1    28.086
   13593      Ob       1     SIL   O02R5       1     -1.05    15.999
   13594      Ob       1     SIL   O02R6       1     -1.05    15.999
   13595      Ob       1     SIL   O02R7       1     -1.05    15.999
   13596      Ob       1     SIL   O02R8       1     -1.05    15.999
   13597      Ob       1     SIL   O02R9       1     -1.05    15.999
   13598      Ob       1     SIL   O02RA       1     -1.05    15.999
   13599      Si       1     SIL   Si1Db       1       2.1    28.086
   13600      Si       1     SIL   Si1Dc       1       2.1    28.086
   13601      Si       1     SIL   Si1Dd       1       2.1    28.086
   13602      Ob       1     SIL   O02RB       1     -1.05    15.999
   13603      Ob       1     SIL   O02RC       1     -1.05    15.999
   13604      Ob       1     SIL   O02RD       1     -1.05    15.999
   13605      Ob       1     SIL   O02RE       1     -1.05    15.999
   13606      Ob       1     SIL   O02RF       1     -1.05    15.999
   13607      Ob       1     SIL   O02RG       1     -1.05    15.999
   13608      Si       1     SIL   Si1De       1       2.1    28.086
   13609      Si       1     SIL   Si1Df       1       2.1    28.086
   13610      Si       1     SIL   Si1Dg       1       2.1    28.086
   13611      Ob       1     SIL   O02RH       1     -1.05    15.999
   13612       O       1     SIL   O02RI       1    -0.525    15.999
   13613       O       1     SIL   O02RJ       1    -0.525    15.999
   13614      Ob       1     SIL   O02RK       1     -1.05    15.999
   13615      Ob       1     SIL   O02RL       1     -1.05    15.999
   13616      Ob       1     SIL   O02RM       1     -1.05    15.999
   13617      Si       1     SIL   Si1Dh       1       2.1    28.086
   13618      Si       1     SIL   Si1Di       1       2.1    28.086
   13619      Si       1     SIL   Si1Dj       1       2.1    28.086
   13620      Ob       1     SIL   O02RN       1     -1.05    15.999
   13621      Ob       1     SIL   O02RO       1     -1.05    15.999
   13622      Ob       1     SIL   O02RP       1     -1.05    15.999
   13623      Ob       1     SIL   O02RQ       1     -1.05    15.999
   13624      Ob       1     SIL   O02RR       1     -1.05    15.999
   13625      Ob       1     SIL   O02RS       1     -1.05    15.999
   13626      Si       1     SIL   Si1Dk       1       2.1    28.086
   13627      Si       1     SIL   Si1Dl       1       2.1    28.086
   13628      Si       1     SIL   Si1Dm       1       2.1    28.086
   13629      Ob       1     SIL   O02RT       1     -1.05    15.999
   13630      Ob       1     SIL   O02RU       1     -1.05    15.999
   13631      Ob       1     SIL   O02RV       1     -1.05    15.999
   13632      Ob       1     SIL   O02RW       1     -1.05    15.999
   13633      Ob       1     SIL   O02RX       1     -1.05    15.999
   13634      Ob       1     SIL   O02RY       1     -1.05    15.999
   13635      Si       1     SIL   Si1Dn       1       2.1    28.086
   13636      Si       1     SIL   Si1Do       1       2.1    28.086
   13637      Si       1     SIL   Si1Dp       1       2.1    28.086
   13638      Ob       1     SIL   O02RZ       1     -1.05    15.999
   13639      Ob       1     SIL   O02Ra       1     -1.05    15.999
   13640      Ob       1     SIL   O02Rb       1     -1.05    15.999
   13641      Ob       1     SIL   O02Rc       1     -1.05    15.999
   13642      Ob       1     SIL   O02Rd       1     -1.05    15.999
   13643      Ob       1     SIL   O02Re       1     -1.05    15.999
   13644      Si       1     SIL   Si1Dq       1       2.1    28.086
   13645      Si       1     SIL   Si1Dr       1       2.1    28.086
   13646      Si       1     SIL   Si1Ds       1       2.1    28.086
   13647      Ob       1     SIL   O02Rf       1     -1.05    15.999
   13648      Ob       1     SIL   O02Rg       1     -1.05    15.999
   13649      Ob       1     SIL   O02Rh       1     -1.05    15.999
   13650      Ob       1     SIL   O02Ri       1     -1.05    15.999
   13651      Ob       1     SIL   O02Rj       1     -1.05    15.999
   13652      Ob       1     SIL   O02Rk       1     -1.05    15.999
   13653      Si       1     SIL   Si1Dt       1       2.1    28.086
   13654      Si       1     SIL   Si1Du       1       2.1    28.086
   13655      Si       1     SIL   Si1Dv       1       2.1    28.086
   13656      Ob       1     SIL   O02Rl       1     -1.05    15.999
   13657      Ob       1     SIL   O02Rm       1     -1.05    15.999
   13658      Ob       1     SIL   O02Rn       1     -1.05    15.999
   13659      Ob       1     SIL   O02Ro       1     -1.05    15.999
   13660      Ob       1     SIL   O02Rp       1     -1.05    15.999
   13661      Ob       1     SIL   O02Rq       1     -1.05    15.999
   13662      Si       1     SIL   Si1Dw       1       2.1    28.086
   13663      Si       1     SIL   Si1Dx       1       2.1    28.086
   13664      Si       1     SIL   Si1Dy       1       2.1    28.086
   13665      Ob       1     SIL   O02Rr       1     -1.05    15.999
   13666      Ob       1     SIL   O02Rs       1     -1.05    15.999
   13667      Ob       1     SIL   O02Rt       1     -1.05    15.999
   13668      Ob       1     SIL   O02Ru       1     -1.05    15.999
   13669      Ob       1     SIL   O02Rv       1     -1.05    15.999
   13670      Ob       1     SIL   O02Rw       1     -1.05    15.999
   13671      Si       1     SIL   Si1Dz       1       2.1    28.086
   13672      Si       1     SIL   Si1E0       1       2.1    28.086
   13673      Si       1     SIL   Si1E1       1       2.1    28.086
   13674      Ob       1     SIL   O02Rx       1     -1.05    15.999
   13675      Ob       1     SIL   O02Ry       1     -1.05    15.999
   13676      Ob       1     SIL   O02Rz       1     -1.05    15.999
   13677      Ob       1     SIL   O02S0       1     -1.05    15.999
   13678      Ob       1     SIL   O02S1       1     -1.05    15.999
   13679      Ob       1     SIL   O02S2       1     -1.05    15.999
   13680      Si       1     SIL   Si1E2       1       2.1    28.086
   13681      Si       1     SIL   Si1E3       1       2.1    28.086
   13682      Si       1     SIL   Si1E4       1       2.1    28.086
   13683      Ob       1     SIL   O02S3       1     -1.05    15.999
   13684      Ob       1     SIL   O02S4       1     -1.05    15.999
   13685      Ob       1     SIL   O02S5       1     -1.05    15.999
   13686      Ob       1     SIL   O02S6       1     -1.05    15.999
   13687      Ob       1     SIL   O02S7       1     -1.05    15.999
   13688      Ob       1     SIL   O02S8       1     -1.05    15.999
   13689      Si       1     SIL   Si1E5       1       2.1    28.086
   13690      Si       1     SIL   Si1E6       1       2.1    28.086
   13691      Si       1     SIL   Si1E7       1       2.1    28.086
   13692      Ob       1     SIL   O02S9       1     -1.05    15.999
   13693      Ob       1     SIL   O02SA       1     -1.05    15.999
   13694      Ob       1     SIL   O02SB       1     -1.05    15.999
   13695      Ob       1     SIL   O02SC       1     -1.05    15.999
   13696      Ob       1     SIL   O02SD       1     -1.05    15.999
   13697      Ob       1     SIL   O02SE       1     -1.05    15.999
   13698      Si       1     SIL   Si1E8       1       2.1    28.086
   13699      Si       1     SIL   Si1E9       1       2.1    28.086
   13700      Si       1     SIL   Si1EA       1       2.1    28.086
   13701      Ob       1     SIL   O02SF       1     -1.05    15.999
   13702      Ob       1     SIL   O02SG       1     -1.05    15.999
   13703      Ob       1     SIL   O02SH       1     -1.05    15.999
   13704      Ob       1     SIL   O02SI       1     -1.05    15.999
   13705      Ob       1     SIL   O02SJ       1     -1.05    15.999
   13706      Ob       1     SIL   O02SK       1     -1.05    15.999
   13707      Si       1     SIL   Si1EB       1       2.1    28.086
   13708      Si       1     SIL   Si1EC       1       2.1    28.086
   13709      Si       1     SIL   Si1ED       1       2.1    28.086
   13710      Ob       1     SIL   O02SL       1     -1.05    15.999
   13711      Ob       1     SIL   O02SM       1     -1.05    15.999
   13712      Ob       1     SIL   O02SN       1     -1.05    15.999
   13713      Ob       1     SIL   O02SO       1     -1.05    15.999
   13714      Ob       1     SIL   O02SP       1     -1.05    15.999
   13715      Ob       1     SIL   O02SQ       1     -1.05    15.999
   13716      Si       1     SIL   Si1EE       1       2.1    28.086
   13717      Si       1     SIL   Si1EF       1       2.1    28.086
   13718      Si       1     SIL   Si1EG       1       2.1    28.086
   13719      Ob       1     SIL   O02SR       1     -1.05    15.999
   13720      Ob       1     SIL   O02SS       1     -1.05    15.999
   13721      Ob       1     SIL   O02ST       1     -1.05    15.999
   13722      Ob       1     SIL   O02SU       1     -1.05    15.999
   13723      Ob       1     SIL   O02SV       1     -1.05    15.999
   13724      Ob       1     SIL   O02SW       1     -1.05    15.999
   13725      Si       1     SIL   Si1EH       1       2.1    28.086
   13726      Si       1     SIL   Si1EI       1       2.1    28.086
   13727      Si       1     SIL   Si1EJ       1       2.1    28.086
   13728      Ob       1     SIL   O02SX       1     -1.05    15.999
   13729      Ob       1     SIL   O02SY       1     -1.05    15.999
   13730      Ob       1     SIL   O02SZ       1     -1.05    15.999
   13731      Ob       1     SIL   O02Sa       1     -1.05    15.999
   13732      Ob       1     SIL   O02Sb       1     -1.05    15.999
   13733      Ob       1     SIL   O02Sc       1     -1.05    15.999
   13734      Si       1     SIL   Si1EK       1       2.1    28.086
   13735      Si       1     SIL   Si1EL       1       2.1    28.086
   13736      Si       1     SIL   Si1EM       1       2.1    28.086
   13737      Ob       1     SIL   O02Sd       1     -1.05    15.999
   13738      Ob       1     SIL   O02Se       1     -1.05    15.999
   13739      Ob       1     SIL   O02Sf       1     -1.05    15.999
   13740      Ob       1     SIL   O02Sg       1     -1.05    15.999
   13741      Ob       1     SIL   O02Sh       1     -1.05    15.999
   13742      Ob       1     SIL   O02Si       1     -1.05    15.999
   13743      Si       1     SIL   Si1EN       1       2.1    28.086
   13744      Si       1     SIL   Si1EO       1       2.1    28.086
   13745      Si       1     SIL   Si1EP       1       2.1    28.086
   13746      Ob       1     SIL   O02Sj       1     -1.05    15.999
   13747      Ob       1     SIL   O02Sk       1     -1.05    15.999
   13748      Ob       1     SIL   O02Sl       1     -1.05    15.999
   13749      Ob       1     SIL   O02Sm       1     -1.05    15.999
   13750      Ob       1     SIL   O02Sn       1     -1.05    15.999
   13751      Ob       1     SIL   O02So       1     -1.05    15.999
   13752      Si       1     SIL   Si1EQ       1       2.1    28.086
   13753      Si       1     SIL   Si1ER       1       2.1    28.086
   13754      Si       1     SIL   Si1ES       1       2.1    28.086
   13755      Ob       1     SIL   O02Sp       1     -1.05    15.999
   13756      Ob       1     SIL   O02Sq       1     -1.05    15.999
   13757      Ob       1     SIL   O02Sr       1     -1.05    15.999
   13758      Ob       1     SIL   O02Ss       1     -1.05    15.999
   13759      Ob       1     SIL   O02St       1     -1.05    15.999
   13760      Ob       1     SIL   O02Su       1     -1.05    15.999
   13761      Si       1     SIL   Si1ET       1       2.1    28.086
   13762      Si       1     SIL   Si1EU       1       2.1    28.086
   13763      Si       1     SIL   Si1EV       1       2.1    28.086
   13764      Ob       1     SIL   O02Sv       1     -1.05    15.999
   13765      Ob       1     SIL   O02Sw       1     -1.05    15.999
   13766      Ob       1     SIL   O02Sx       1     -1.05    15.999
   13767      Ob       1     SIL   O02Sy       1     -1.05    15.999
   13768      Ob       1     SIL   O02Sz       1     -1.05    15.999
   13769      Ob       1     SIL   O02T0       1     -1.05    15.999
   13770      Si       1     SIL   Si1EW       1       2.1    28.086
   13771      Si       1     SIL   Si1EX       1       2.1    28.086
   13772      Si       1     SIL   Si1EY       1       2.1    28.086
   13773      Ob       1     SIL   O02T1       1     -1.05    15.999
   13774      Ob       1     SIL   O02T2       1     -1.05    15.999
   13775      Ob       1     SIL   O02T3       1     -1.05    15.999
   13776      Ob       1     SIL   O02T4       1     -1.05    15.999
   13777      Ob       1     SIL   O02T5       1     -1.05    15.999
   13778      Ob       1     SIL   O02T6       1     -1.05    15.999
   13779      Si       1     SIL   Si1EZ       1       2.1    28.086
   13780      Si       1     SIL   Si1Ea       1       2.1    28.086
   13781      Si       1     SIL   Si1Eb       1       2.1    28.086
   13782      Ob       1     SIL   O02T7       1     -1.05    15.999
   13783      Ob       1     SIL   O02T8       1     -1.05    15.999
   13784      Ob       1     SIL   O02T9       1     -1.05    15.999
   13785      Ob       1     SIL   O02TA       1     -1.05    15.999
   13786      Ob       1     SIL   O02TB       1     -1.05    15.999
   13787      Ob       1     SIL   O02TC       1     -1.05    15.999
   13788      Si       1     SIL   Si1Ec       1       2.1    28.086
   13789      Si       1     SIL   Si1Ed       1       2.1    28.086
   13790      Si       1     SIL   Si1Ee       1       2.1    28.086
   13791      Ob       1     SIL   O02TD       1     -1.05    15.999
   13792      Ob       1     SIL   O02TE       1     -1.05    15.999
   13793      Ob       1     SIL   O02TF       1     -1.05    15.999
   13794      Ob       1     SIL   O02TG       1     -1.05    15.999
   13795      Ob       1     SIL   O02TH       1     -1.05    15.999
   13796      Ob       1     SIL   O02TI       1     -1.05    15.999
   13797      Si       1     SIL   Si1Ef       1       2.1    28.086
   13798      Si       1     SIL   Si1Eg       1       2.1    28.086
   13799      Si       1     SIL   Si1Eh       1       2.1    28.086
   13800      Ob       1     SIL   O02TJ       1     -1.05    15.999
   13801      Ob       1     SIL   O02TK       1     -1.05    15.999
   13802      Ob       1     SIL   O02TL       1     -1.05    15.999
   13803      Ob       1     SIL   O02TM       1     -1.05    15.999
   13804      Ob       1     SIL   O02TN       1     -1.05    15.999
   13805      Ob       1     SIL   O02TO       1     -1.05    15.999
   13806      Si       1     SIL   Si1Ei       1       2.1    28.086
   13807      Si       1     SIL   Si1Ej       1       2.1    28.086
   13808      Si       1     SIL   Si1Ek       1       2.1    28.086
   13809      Ob       1     SIL   O02TP       1     -1.05    15.999
   13810      Ob       1     SIL   O02TQ       1     -1.05    15.999
   13811      Ob       1     SIL   O02TR       1     -1.05    15.999
   13812      Ob       1     SIL   O02TS       1     -1.05    15.999
   13813      Ob       1     SIL   O02TT       1     -1.05    15.999
   13814      Ob       1     SIL   O02TU       1     -1.05    15.999
   13815      Si       1     SIL   Si1El       1       2.1    28.086
   13816      Si       1     SIL   Si1Em       1       2.1    28.086
   13817      Si       1     SIL   Si1En       1       2.1    28.086
   13818      Ob       1     SIL   O02TV       1     -1.05    15.999
   13819       O       1     SIL   O02TW       1    -0.525    15.999
   13820       O       1     SIL   O02TX       1    -0.525    15.999
   13821      Ob       1     SIL   O02TY       1     -1.05    15.999
   13822      Ob       1     SIL   O02TZ       1     -1.05    15.999
   13823      Ob       1     SIL   O02Ta       1     -1.05    15.999
   13824      Si       1     SIL   Si1Eo       1       2.1    28.086
   13825      Si       1     SIL   Si1Ep       1       2.1    28.086
   13826      Si       1     SIL   Si1Eq       1       2.1    28.086
   13827      Ob       1     SIL   O02Tb       1     -1.05    15.999
   13828      Ob       1     SIL   O02Tc       1     -1.05    15.999
   13829      Ob       1     SIL   O02Td       1     -1.05    15.999
   13830      Ob       1     SIL   O02Te       1     -1.05    15.999
   13831      Ob       1     SIL   O02Tf       1     -1.05    15.999
   13832      Ob       1     SIL   O02Tg       1     -1.05    15.999
   13833      Si       1     SIL   Si1Er       1       2.1    28.086
   13834      Si       1     SIL   Si1Es       1       2.1    28.086
   13835      Si       1     SIL   Si1Et       1       2.1    28.086
   13836      Ob       1     SIL   O02Th       1     -1.05    15.999
   13837      Ob       1     SIL   O02Ti       1     -1.05    15.999
   13838      Ob       1     SIL   O02Tj       1     -1.05    15.999
   13839      Ob       1     SIL   O02Tk       1     -1.05    15.999
   13840      Ob       1     SIL   O02Tl       1     -1.05    15.999
   13841      Ob       1     SIL   O02Tm       1     -1.05    15.999
   13842      Si       1     SIL   Si1Eu       1       2.1    28.086
   13843      Si       1     SIL   Si1Ev       1       2.1    28.086
   13844      Si       1     SIL   Si1Ew       1       2.1    28.086
   13845      Ob       1     SIL   O02Tn       1     -1.05    15.999
   13846      Ob       1     SIL   O02To       1     -1.05    15.999
   13847      Ob       1     SIL   O02Tp       1     -1.05    15.999
   13848      Ob       1     SIL   O02Tq       1     -1.05    15.999
   13849      Ob       1     SIL   O02Tr       1     -1.05    15.999
   13850      Ob       1     SIL   O02Ts       1     -1.05    15.999
   13851      Si       1     SIL   Si1Ex       1       2.1    28.086
   13852      Si       1     SIL   Si1Ey       1       2.1    28.086
   13853      Si       1     SIL   Si1Ez       1       2.1    28.086
   13854      Ob       1     SIL   O02Tt       1     -1.05    15.999
   13855      Ob       1     SIL   O02Tu       1     -1.05    15.999
   13856      Ob       1     SIL   O02Tv       1     -1.05    15.999
   13857      Ob       1     SIL   O02Tw       1     -1.05    15.999
   13858      Ob       1     SIL   O02Tx       1     -1.05    15.999
   13859      Ob       1     SIL   O02Ty       1     -1.05    15.999
   13860      Si       1     SIL   Si1F0       1       2.1    28.086
   13861      Si       1     SIL   Si1F1       1       2.1    28.086
   13862      Si       1     SIL   Si1F2       1       2.1    28.086
   13863      Ob       1     SIL   O02Tz       1     -1.05    15.999
   13864      Ob       1     SIL   O02U0       1     -1.05    15.999
   13865      Ob       1     SIL   O02U1       1     -1.05    15.999
   13866      Ob       1     SIL   O02U2       1     -1.05    15.999
   13867      Ob       1     SIL   O02U3       1     -1.05    15.999
   13868      Ob       1     SIL   O02U4       1     -1.05    15.999
   13869      Si       1     SIL   Si1F3       1       2.1    28.086
   13870      Si       1     SIL   Si1F4       1       2.1    28.086
   13871      Si       1     SIL   Si1F5       1       2.1    28.086
   13872      Ob       1     SIL   O02U5       1     -1.05    15.999
   13873      Ob       1     SIL   O02U6       1     -1.05    15.999
   13874      Ob       1     SIL   O02U7       1     -1.05    15.999
   13875      Ob       1     SIL   O02U8       1     -1.05    15.999
   13876      Ob       1     SIL   O02U9       1     -1.05    15.999
   13877      Ob       1     SIL   O02UA       1     -1.05    15.999
   13878      Si       1     SIL   Si1F6       1       2.1    28.086
   13879      Si       1     SIL   Si1F7       1       2.1    28.086
   13880      Si       1     SIL   Si1F8       1       2.1    28.086
   13881      Ob       1     SIL   O02UB       1     -1.05    15.999
   13882      Ob       1     SIL   O02UC       1     -1.05    15.999
   13883      Ob       1     SIL   O02UD       1     -1.05    15.999
   13884      Ob       1     SIL   O02UE       1     -1.05    15.999
   13885      Ob       1     SIL   O02UF       1     -1.05    15.999
   13886      Ob       1     SIL   O02UG       1     -1.05    15.999
   13887      Si       1     SIL   Si1F9       1       2.1    28.086
   13888      Si       1     SIL   Si1FA       1       2.1    28.086
   13889      Si       1     SIL   Si1FB       1       2.1    28.086
   13890      Ob       1     SIL   O02UH       1     -1.05    15.999
   13891      Ob       1     SIL   O02UI       1     -1.05    15.999
   13892      Ob       1     SIL   O02UJ       1     -1.05    15.999
   13893      Ob       1     SIL   O02UK       1     -1.05    15.999
   13894      Ob       1     SIL   O02UL       1     -1.05    15.999
   13895      Ob       1     SIL   O02UM       1     -1.05    15.999
   13896      Si       1     SIL   Si1FC       1       2.1    28.086
   13897      Si       1     SIL   Si1FD       1       2.1    28.086
   13898      Si       1     SIL   Si1FE       1       2.1    28.086
   13899      Ob       1     SIL   O02UN       1     -1.05    15.999
   13900      Ob       1     SIL   O02UO       1     -1.05    15.999
   13901      Ob       1     SIL   O02UP       1     -1.05    15.999
   13902      Ob       1     SIL   O02UQ       1     -1.05    15.999
   13903      Ob       1     SIL   O02UR       1     -1.05    15.999
   13904      Ob       1     SIL   O02US       1     -1.05    15.999
   13905      Si       1     SIL   Si1FF       1       2.1    28.086
   13906      Si       1     SIL   Si1FG       1       2.1    28.086
   13907      Si       1     SIL   Si1FH       1       2.1    28.086
   13908      Ob       1     SIL   O02UT       1     -1.05    15.999
   13909      Ob       1     SIL   O02UU       1     -1.05    15.999
   13910      Ob       1     SIL   O02UV       1     -1.05    15.999
   13911      Ob       1     SIL   O02UW       1     -1.05    15.999
   13912      Ob       1     SIL   O02UX       1     -1.05    15.999
   13913      Ob       1     SIL   O02UY       1     -1.05    15.999
   13914      Si       1     SIL   Si1FI       1       2.1    28.086
   13915      Si       1     SIL   Si1FJ       1       2.1    28.086
   13916      Si       1     SIL   Si1FK       1       2.1    28.086
   13917      Ob       1     SIL   O02UZ       1     -1.05    15.999
   13918      Ob       1     SIL   O02Ua       1     -1.05    15.999
   13919      Ob       1     SIL   O02Ub       1     -1.05    15.999
   13920      Ob       1     SIL   O02Uc       1     -1.05    15.999
   13921      Ob       1     SIL   O02Ud       1     -1.05    15.999
   13922      Ob       1     SIL   O02Ue       1     -1.05    15.999
   13923      Si       1     SIL   Si1FL       1       2.1    28.086
   13924      Si       1     SIL   Si1FM       1       2.1    28.086
   13925      Si       1     SIL   Si1FN       1       2.1    28.086
   13926      Ob       1     SIL   O02Uf       1     -1.05    15.999
   13927      Ob       1     SIL   O02Ug       1     -1.05    15.999
   13928      Ob       1     SIL   O02Uh       1     -1.05    15.999
   13929      Ob       1     SIL   O02Ui       1     -1.05    15.999
   13930      Ob       1     SIL   O02Uj       1     -1.05    15.999
   13931      Ob       1     SIL   O02Uk       1     -1.05    15.999
   13932      Si       1     SIL   Si1FO       1       2.1    28.086
   13933      Si       1     SIL   Si1FP       1       2.1    28.086
   13934      Si       1     SIL   Si1FQ       1       2.1    28.086
   13935      Ob       1     SIL   O02Ul       1     -1.05    15.999
   13936      Ob       1     SIL   O02Um       1     -1.05    15.999
   13937      Ob       1     SIL   O02Un       1     -1.05    15.999
   13938      Ob       1     SIL   O02Uo       1     -1.05    15.999
   13939      Ob       1     SIL   O02Up       1     -1.05    15.999
   13940      Ob       1     SIL   O02Uq       1     -1.05    15.999
   13941      Si       1     SIL   Si1FR       1       2.1    28.086
   13942      Si       1     SIL   Si1FS       1       2.1    28.086
   13943      Si       1     SIL   Si1FT       1       2.1    28.086
   13944      Ob       1     SIL   O02Ur       1     -1.05    15.999
   13945      Ob       1     SIL   O02Us       1     -1.05    15.999
   13946      Ob       1     SIL   O02Ut       1     -1.05    15.999
   13947      Ob       1     SIL   O02Uu       1     -1.05    15.999
   13948      Ob       1     SIL   O02Uv       1     -1.05    15.999
   13949      Ob       1     SIL   O02Uw       1     -1.05    15.999
   13950      Si       1     SIL   Si1FU       1       2.1    28.086
   13951      Si       1     SIL   Si1FV       1       2.1    28.086
   13952      Si       1     SIL   Si1FW       1       2.1    28.086
   13953      Ob       1     SIL   O02Ux       1     -1.05    15.999
   13954      Ob       1     SIL   O02Uy       1     -1.05    15.999
   13955      Ob       1     SIL   O02Uz       1     -1.05    15.999
   13956      Ob       1     SIL   O02V0       1     -1.05    15.999
   13957      Ob       1     SIL   O02V1       1     -1.05    15.999
   13958      Ob       1     SIL   O02V2       1     -1.05    15.999
   13959      Si       1     SIL   Si1FX       1       2.1    28.086
   13960      Si       1     SIL   Si1FY       1       2.1    28.086
   13961      Si       1     SIL   Si1FZ       1       2.1    28.086
   13962      Ob       1     SIL   O02V3       1     -1.05    15.999
   13963      Ob       1     SIL   O02V4       1     -1.05    15.999
   13964      Ob       1     SIL   O02V5       1     -1.05    15.999
   13965      Ob       1     SIL   O02V6       1     -1.05    15.999
   13966      Ob       1     SIL   O02V7       1     -1.05    15.999
   13967      Ob       1     SIL   O02V8       1     -1.05    15.999
   13968      Si       1     SIL   Si1Fa       1       2.1    28.086
   13969      Si       1     SIL   Si1Fb       1       2.1    28.086
   13970      Si       1     SIL   Si1Fc       1       2.1    28.086
   13971      Ob       1     SIL   O02V9       1     -1.05    15.999
   13972      Ob       1     SIL   O02VA       1     -1.05    15.999
   13973      Ob       1     SIL   O02VB       1     -1.05    15.999
   13974      Ob       1     SIL   O02VC       1     -1.05    15.999
   13975      Ob       1     SIL   O02VD       1     -1.05    15.999
   13976      Ob       1     SIL   O02VE       1     -1.05    15.999
   13977      Si       1     SIL   Si1Fd       1       2.1    28.086
   13978      Si       1     SIL   Si1Fe       1       2.1    28.086
   13979      Si       1     SIL   Si1Ff       1       2.1    28.086
   13980      Ob       1     SIL   O02VF       1     -1.05    15.999
   13981      Ob       1     SIL   O02VG       1     -1.05    15.999
   13982      Ob       1     SIL   O02VH       1     -1.05    15.999
   13983      Ob       1     SIL   O02VI       1     -1.05    15.999
   13984      Ob       1     SIL   O02VJ       1     -1.05    15.999
   13985      Ob       1     SIL   O02VK       1     -1.05    15.999
   13986      Si       1     SIL   Si1Fg       1       2.1    28.086
   13987      Si       1     SIL   Si1Fh       1       2.1    28.086
   13988      Si       1     SIL   Si1Fi       1       2.1    28.086
   13989      Ob       1     SIL   O02VL       1     -1.05    15.999
   13990      Ob       1     SIL   O02VM       1     -1.05    15.999
   13991      Ob       1     SIL   O02VN       1     -1.05    15.999
   13992      Ob       1     SIL   O02VO       1     -1.05    15.999
   13993      Ob       1     SIL   O02VP       1     -1.05    15.999
   13994      Ob       1     SIL   O02VQ       1     -1.05    15.999
   13995      Si       1     SIL   Si1Fj       1       2.1    28.086
   13996      Si       1     SIL   Si1Fk       1       2.1    28.086
   13997      Si       1     SIL   Si1Fl       1       2.1    28.086
   13998      Ob       1     SIL   O02VR       1     -1.05    15.999
   13999      Ob       1     SIL   O02VS       1     -1.05    15.999
   14000      Ob       1     SIL   O02VT       1     -1.05    15.999
   14001      Ob       1     SIL   O02VU       1     -1.05    15.999
   14002      Ob       1     SIL   O02VV       1     -1.05    15.999
   14003      Ob       1     SIL   O02VW       1     -1.05    15.999
   14004      Si       1     SIL   Si1Fm       1       2.1    28.086
   14005      Si       1     SIL   Si1Fn       1       2.1    28.086
   14006      Si       1     SIL   Si1Fo       1       2.1    28.086
   14007      Ob       1     SIL   O02VX       1     -1.05    15.999
   14008      Ob       1     SIL   O02VY       1     -1.05    15.999
   14009      Ob       1     SIL   O02VZ       1     -1.05    15.999
   14010      Ob       1     SIL   O02Va       1     -1.05    15.999
   14011      Ob       1     SIL   O02Vb       1     -1.05    15.999
   14012      Ob       1     SIL   O02Vc       1     -1.05    15.999
   14013      Si       1     SIL   Si1Fp       1       2.1    28.086
   14014      Si       1     SIL   Si1Fq       1       2.1    28.086
   14015      Si       1     SIL   Si1Fr       1       2.1    28.086
   14016      Ob       1     SIL   O02Vd       1     -1.05    15.999
   14017      Ob       1     SIL   O02Ve       1     -1.05    15.999
   14018      Ob       1     SIL   O02Vf       1     -1.05    15.999
   14019      Ob       1     SIL   O02Vg       1     -1.05    15.999
   14020      Ob       1     SIL   O02Vh       1     -1.05    15.999
   14021      Ob       1     SIL   O02Vi       1     -1.05    15.999
   14022      Si       1     SIL   Si1Fs       1       2.1    28.086
   14023      Si       1     SIL   Si1Ft       1       2.1    28.086
   14024      Si       1     SIL   Si1Fu       1       2.1    28.086
   14025      Ob       1     SIL   O02Vj       1     -1.05    15.999
   14026       O       1     SIL   O02Vk       1    -0.525    15.999
   14027       O       1     SIL   O02Vl       1    -0.525    15.999
   14028      Ob       1     SIL   O02Vm       1     -1.05    15.999
   14029      Ob       1     SIL   O02Vn       1     -1.05    15.999
   14030      Ob       1     SIL   O02Vo       1     -1.05    15.999
   14031      Si       1     SIL   Si1Fv       1       2.1    28.086
   14032      Si       1     SIL   Si1Fw       1       2.1    28.086
   14033      Si       1     SIL   Si1Fx       1       2.1    28.086
   14034      Ob       1     SIL   O02Vp       1     -1.05    15.999
   14035      Ob       1     SIL   O02Vq       1     -1.05    15.999
   14036      Ob       1     SIL   O02Vr       1     -1.05    15.999
   14037      Ob       1     SIL   O02Vs       1     -1.05    15.999
   14038      Ob       1     SIL   O02Vt       1     -1.05    15.999
   14039      Ob       1     SIL   O02Vu       1     -1.05    15.999
   14040      Si       1     SIL   Si1Fy       1       2.1    28.086
   14041      Si       1     SIL   Si1Fz       1       2.1    28.086
   14042      Si       1     SIL   Si1G0       1       2.1    28.086
   14043      Ob       1     SIL   O02Vv       1     -1.05    15.999
   14044      Ob       1     SIL   O02Vw       1     -1.05    15.999
   14045      Ob       1     SIL   O02Vx       1     -1.05    15.999
   14046      Ob       1     SIL   O02Vy       1     -1.05    15.999
   14047      Ob       1     SIL   O02Vz       1     -1.05    15.999
   14048      Ob       1     SIL   O02W0       1     -1.05    15.999
   14049      Si       1     SIL   Si1G1       1       2.1    28.086
   14050      Si       1     SIL   Si1G2       1       2.1    28.086
   14051      Si       1     SIL   Si1G3       1       2.1    28.086
   14052      Ob       1     SIL   O02W1       1     -1.05    15.999
   14053      Ob       1     SIL   O02W2       1     -1.05    15.999
   14054      Ob       1     SIL   O02W3       1     -1.05    15.999
   14055      Ob       1     SIL   O02W4       1     -1.05    15.999
   14056      Ob       1     SIL   O02W5       1     -1.05    15.999
   14057      Ob       1     SIL   O02W6       1     -1.05    15.999
   14058      Si       1     SIL   Si1G4       1       2.1    28.086
   14059      Si       1     SIL   Si1G5       1       2.1    28.086
   14060      Si       1     SIL   Si1G6       1       2.1    28.086
   14061      Ob       1     SIL   O02W7       1     -1.05    15.999
   14062      Ob       1     SIL   O02W8       1     -1.05    15.999
   14063      Ob       1     SIL   O02W9       1     -1.05    15.999
   14064      Ob       1     SIL   O02WA       1     -1.05    15.999
   14065      Ob       1     SIL   O02WB       1     -1.05    15.999
   14066      Ob       1     SIL   O02WC       1     -1.05    15.999
   14067      Si       1     SIL   Si1G7       1       2.1    28.086
   14068      Si       1     SIL   Si1G8       1       2.1    28.086
   14069      Si       1     SIL   Si1G9       1       2.1    28.086
   14070      Ob       1     SIL   O02WD       1     -1.05    15.999
   14071      Ob       1     SIL   O02WE       1     -1.05    15.999
   14072      Ob       1     SIL   O02WF       1     -1.05    15.999
   14073      Ob       1     SIL   O02WG       1     -1.05    15.999
   14074      Ob       1     SIL   O02WH       1     -1.05    15.999
   14075      Ob       1     SIL   O02WI       1     -1.05    15.999
   14076      Si       1     SIL   Si1GA       1       2.1    28.086
   14077      Si       1     SIL   Si1GB       1       2.1    28.086
   14078      Si       1     SIL   Si1GC       1       2.1    28.086
   14079      Ob       1     SIL   O02WJ       1     -1.05    15.999
   14080      Ob       1     SIL   O02WK       1     -1.05    15.999
   14081      Ob       1     SIL   O02WL       1     -1.05    15.999
   14082      Ob       1     SIL   O02WM       1     -1.05    15.999
   14083      Ob       1     SIL   O02WN       1     -1.05    15.999
   14084      Ob       1     SIL   O02WO       1     -1.05    15.999
   14085      Si       1     SIL   Si1GD       1       2.1    28.086
   14086      Si       1     SIL   Si1GE       1       2.1    28.086
   14087      Si       1     SIL   Si1GF       1       2.1    28.086
   14088      Ob       1     SIL   O02WP       1     -1.05    15.999
   14089      Ob       1     SIL   O02WQ       1     -1.05    15.999
   14090      Ob       1     SIL   O02WR       1     -1.05    15.999
   14091      Ob       1     SIL   O02WS       1     -1.05    15.999
   14092      Ob       1     SIL   O02WT       1     -1.05    15.999
   14093      Ob       1     SIL   O02WU       1     -1.05    15.999
   14094      Si       1     SIL   Si1GG       1       2.1    28.086
   14095      Si       1     SIL   Si1GH       1       2.1    28.086
   14096      Si       1     SIL   Si1GI       1       2.1    28.086
   14097      Ob       1     SIL   O02WV       1     -1.05    15.999
   14098      Ob       1     SIL   O02WW       1     -1.05    15.999
   14099      Ob       1     SIL   O02WX       1     -1.05    15.999
   14100      Ob       1     SIL   O02WY       1     -1.05    15.999
   14101      Ob       1     SIL   O02WZ       1     -1.05    15.999
   14102      Ob       1     SIL   O02Wa       1     -1.05    15.999
   14103      Si       1     SIL   Si1GJ       1       2.1    28.086
   14104      Si       1     SIL   Si1GK       1       2.1    28.086
   14105      Si       1     SIL   Si1GL       1       2.1    28.086
   14106      Ob       1     SIL   O02Wb       1     -1.05    15.999
   14107      Ob       1     SIL   O02Wc       1     -1.05    15.999
   14108      Ob       1     SIL   O02Wd       1     -1.05    15.999
   14109      Ob       1     SIL   O02We       1     -1.05    15.999
   14110      Ob       1     SIL   O02Wf       1     -1.05    15.999
   14111      Ob       1     SIL   O02Wg       1     -1.05    15.999
   14112      Si       1     SIL   Si1GM       1       2.1    28.086
   14113      Si       1     SIL   Si1GN       1       2.1    28.086
   14114      Si       1     SIL   Si1GO       1       2.1    28.086
   14115      Ob       1     SIL   O02Wh       1     -1.05    15.999
   14116      Ob       1     SIL   O02Wi       1     -1.05    15.999
   14117      Ob       1     SIL   O02Wj       1     -1.05    15.999
   14118      Ob       1     SIL   O02Wk       1     -1.05    15.999
   14119      Ob       1     SIL   O02Wl       1     -1.05    15.999
   14120      Ob       1     SIL   O02Wm       1     -1.05    15.999
   14121      Si       1     SIL   Si1GP       1       2.1    28.086
   14122      Si       1     SIL   Si1GQ       1       2.1    28.086
   14123      Si       1     SIL   Si1GR       1       2.1    28.086
   14124      Ob       1     SIL   O02Wn       1     -1.05    15.999
   14125      Ob       1     SIL   O02Wo       1     -1.05    15.999
   14126      Ob       1     SIL   O02Wp       1     -1.05    15.999
   14127      Ob       1     SIL   O02Wq       1     -1.05    15.999
   14128      Ob       1     SIL   O02Wr       1     -1.05    15.999
   14129      Ob       1     SIL   O02Ws       1     -1.05    15.999
   14130      Si       1     SIL   Si1GS       1       2.1    28.086
   14131      Si       1     SIL   Si1GT       1       2.1    28.086
   14132      Si       1     SIL   Si1GU       1       2.1    28.086
   14133      Ob       1     SIL   O02Wt       1     -1.05    15.999
   14134      Ob       1     SIL   O02Wu       1     -1.05    15.999
   14135      Ob       1     SIL   O02Wv       1     -1.05    15.999
   14136      Ob       1     SIL   O02Ww       1     -1.05    15.999
   14137      Ob       1     SIL   O02Wx       1     -1.05    15.999
   14138      Ob       1     SIL   O02Wy       1     -1.05    15.999
   14139      Si       1     SIL   Si1GV       1       2.1    28.086
   14140      Si       1     SIL   Si1GW       1       2.1    28.086
   14141      Si       1     SIL   Si1GX       1       2.1    28.086
   14142      Ob       1     SIL   O02Wz       1     -1.05    15.999
   14143      Ob       1     SIL   O02X0       1     -1.05    15.999
   14144      Ob       1     SIL   O02X1       1     -1.05    15.999
   14145      Ob       1     SIL   O02X2       1     -1.05    15.999
   14146      Ob       1     SIL   O02X3       1     -1.05    15.999
   14147      Ob       1     SIL   O02X4       1     -1.05    15.999
   14148      Si       1     SIL   Si1GY       1       2.1    28.086
   14149      Si       1     SIL   Si1GZ       1       2.1    28.086
   14150      Si       1     SIL   Si1Ga       1       2.1    28.086
   14151      Ob       1     SIL   O02X5       1     -1.05    15.999
   14152      Ob       1     SIL   O02X6       1     -1.05    15.999
   14153      Ob       1     SIL   O02X7       1     -1.05    15.999
   14154      Ob       1     SIL   O02X8       1     -1.05    15.999
   14155      Ob       1     SIL   O02X9       1     -1.05    15.999
   14156      Ob       1     SIL   O02XA       1     -1.05    15.999
   14157      Si       1     SIL   Si1Gb       1       2.1    28.086
   14158      Si       1     SIL   Si1Gc       1       2.1    28.086
   14159      Si       1     SIL   Si1Gd       1       2.1    28.086
   14160      Ob       1     SIL   O02XB       1     -1.05    15.999
   14161      Ob       1     SIL   O02XC       1     -1.05    15.999
   14162      Ob       1     SIL   O02XD       1     -1.05    15.999
   14163      Ob       1     SIL   O02XE       1     -1.05    15.999
   14164      Ob       1     SIL   O02XF       1     -1.05    15.999
   14165      Ob       1     SIL   O02XG       1     -1.05    15.999
   14166      Si       1     SIL   Si1Ge       1       2.1    28.086
   14167      Si       1     SIL   Si1Gf       1       2.1    28.086
   14168      Si       1     SIL   Si1Gg       1       2.1    28.086
   14169      Ob       1     SIL   O02XH       1     -1.05    15.999
   14170      Ob       1     SIL   O02XI       1     -1.05    15.999
   14171      Ob       1     SIL   O02XJ       1     -1.05    15.999
   14172      Ob       1     SIL   O02XK       1     -1.05    15.999
   14173      Ob       1     SIL   O02XL       1     -1.05    15.999
   14174      Ob       1     SIL   O02XM       1     -1.05    15.999
   14175      Si       1     SIL   Si1Gh       1       2.1    28.086
   14176      Si       1     SIL   Si1Gi       1       2.1    28.086
   14177      Si       1     SIL   Si1Gj       1       2.1    28.086
   14178      Ob       1     SIL   O02XN       1     -1.05    15.999
   14179      Ob       1     SIL   O02XO       1     -1.05    15.999
   14180      Ob       1     SIL   O02XP       1     -1.05    15.999
   14181      Ob       1     SIL   O02XQ       1     -1.05    15.999
   14182      Ob       1     SIL   O02XR       1     -1.05    15.999
   14183      Ob       1     SIL   O02XS       1     -1.05    15.999
   14184      Si       1     SIL   Si1Gk       1       2.1    28.086
   14185      Si       1     SIL   Si1Gl       1       2.1    28.086
   14186      Si       1     SIL   Si1Gm       1       2.1    28.086
   14187      Ob       1     SIL   O02XT       1     -1.05    15.999
   14188      Ob       1     SIL   O02XU       1     -1.05    15.999
   14189      Ob       1     SIL   O02XV       1     -1.05    15.999
   14190      Ob       1     SIL   O02XW       1     -1.05    15.999
   14191      Ob       1     SIL   O02XX       1     -1.05    15.999
   14192      Ob       1     SIL   O02XY       1     -1.05    15.999
   14193      Si       1     SIL   Si1Gn       1       2.1    28.086
   14194      Si       1     SIL   Si1Go       1       2.1    28.086
   14195      Si       1     SIL   Si1Gp       1       2.1    28.086
   14196      Ob       1     SIL   O02XZ       1     -1.05    15.999
   14197      Ob       1     SIL   O02Xa       1     -1.05    15.999
   14198      Ob       1     SIL   O02Xb       1     -1.05    15.999
   14199      Ob       1     SIL   O02Xc       1     -1.05    15.999
   14200      Ob       1     SIL   O02Xd       1     -1.05    15.999
   14201      Ob       1     SIL   O02Xe       1     -1.05    15.999
   14202      Si       1     SIL   Si1Gq       1       2.1    28.086
   14203      Si       1     SIL   Si1Gr       1       2.1    28.086
   14204      Si       1     SIL   Si1Gs       1       2.1    28.086
   14205      Ob       1     SIL   O02Xf       1     -1.05    15.999
   14206      Ob       1     SIL   O02Xg       1     -1.05    15.999
   14207      Ob       1     SIL   O02Xh       1     -1.05    15.999
   14208      Ob       1     SIL   O02Xi       1     -1.05    15.999
   14209      Ob       1     SIL   O02Xj       1     -1.05    15.999
   14210      Ob       1     SIL   O02Xk       1     -1.05    15.999
   14211      Si       1     SIL   Si1Gt       1       2.1    28.086
   14212      Si       1     SIL   Si1Gu       1       2.1    28.086
   14213      Si       1     SIL   Si1Gv       1       2.1    28.086
   14214      Ob       1     SIL   O02Xl       1     -1.05    15.999
   14215      Ob       1     SIL   O02Xm       1     -1.05    15.999
   14216      Ob       1     SIL   O02Xn       1     -1.05    15.999
   14217      Ob       1     SIL   O02Xo       1     -1.05    15.999
   14218      Ob       1     SIL   O02Xp       1     -1.05    15.999
   14219      Ob       1     SIL   O02Xq       1     -1.05    15.999
   14220      Si       1     SIL   Si1Gw       1       2.1    28.086
   14221      Si       1     SIL   Si1Gx       1       2.1    28.086
   14222      Si       1     SIL   Si1Gy       1       2.1    28.086
   14223      Ob       1     SIL   O02Xr       1     -1.05    15.999
   14224      Ob       1     SIL   O02Xs       1     -1.05    15.999
   14225      Ob       1     SIL   O02Xt       1     -1.05    15.999
   14226      Ob       1     SIL   O02Xu       1     -1.05    15.999
   14227      Ob       1     SIL   O02Xv       1     -1.05    15.999
   14228      Ob       1     SIL   O02Xw       1     -1.05    15.999
   14229      Si       1     SIL   Si1Gz       1       2.1    28.086
   14230      Si       1     SIL   Si1H0       1       2.1    28.086
   14231      Si       1     SIL   Si1H1       1       2.1    28.086
   14232      Ob       1     SIL   O02Xx       1     -1.05    15.999
   14233       O       1     SIL   O02Xy       1    -0.525    15.999
   14234       O       1     SIL   O02Xz       1    -0.525    15.999
   14235      Ob       1     SIL   O02Y0       1     -1.05    15.999
   14236      Ob       1     SIL   O02Y1       1     -1.05    15.999
   14237      Ob       1     SIL   O02Y2       1     -1.05    15.999
   14238      Si       1     SIL   Si1H2       1       2.1    28.086
   14239      Si       1     SIL   Si1H3       1       2.1    28.086
   14240      Si       1     SIL   Si1H4       1       2.1    28.086
   14241      Ob       1     SIL   O02Y3       1     -1.05    15.999
   14242      Ob       1     SIL   O02Y4       1     -1.05    15.999
   14243      Ob       1     SIL   O02Y5       1     -1.05    15.999
   14244      Ob       1     SIL   O02Y6       1     -1.05    15.999
   14245      Ob       1     SIL   O02Y7       1     -1.05    15.999
   14246      Ob       1     SIL   O02Y8       1     -1.05    15.999
   14247      Si       1     SIL   Si1H5       1       2.1    28.086
   14248      Si       1     SIL   Si1H6       1       2.1    28.086
   14249      Si       1     SIL   Si1H7       1       2.1    28.086
   14250      Ob       1     SIL   O02Y9       1     -1.05    15.999
   14251      Ob       1     SIL   O02YA       1     -1.05    15.999
   14252      Ob       1     SIL   O02YB       1     -1.05    15.999
   14253      Ob       1     SIL   O02YC       1     -1.05    15.999
   14254      Ob       1     SIL   O02YD       1     -1.05    15.999
   14255      Ob       1     SIL   O02YE       1     -1.05    15.999
   14256      Si       1     SIL   Si1H8       1       2.1    28.086
   14257      Si       1     SIL   Si1H9       1       2.1    28.086
   14258      Si       1     SIL   Si1HA       1       2.1    28.086
   14259      Ob       1     SIL   O02YF       1     -1.05    15.999
   14260      Ob       1     SIL   O02YG       1     -1.05    15.999
   14261      Ob       1     SIL   O02YH       1     -1.05    15.999
   14262      Ob       1     SIL   O02YI       1     -1.05    15.999
   14263      Ob       1     SIL   O02YJ       1     -1.05    15.999
   14264      Ob       1     SIL   O02YK       1     -1.05    15.999
   14265      Si       1     SIL   Si1HB       1       2.1    28.086
   14266      Si       1     SIL   Si1HC       1       2.1    28.086
   14267      Si       1     SIL   Si1HD       1       2.1    28.086
   14268      Ob       1     SIL   O02YL       1     -1.05    15.999
   14269      Ob       1     SIL   O02YM       1     -1.05    15.999
   14270      Ob       1     SIL   O02YN       1     -1.05    15.999
   14271      Ob       1     SIL   O02YO       1     -1.05    15.999
   14272      Ob       1     SIL   O02YP       1     -1.05    15.999
   14273      Ob       1     SIL   O02YQ       1     -1.05    15.999
   14274      Si       1     SIL   Si1HE       1       2.1    28.086
   14275      Si       1     SIL   Si1HF       1       2.1    28.086
   14276      Si       1     SIL   Si1HG       1       2.1    28.086
   14277      Ob       1     SIL   O02YR       1     -1.05    15.999
   14278      Ob       1     SIL   O02YS       1     -1.05    15.999
   14279      Ob       1     SIL   O02YT       1     -1.05    15.999
   14280      Ob       1     SIL   O02YU       1     -1.05    15.999
   14281      Ob       1     SIL   O02YV       1     -1.05    15.999
   14282      Ob       1     SIL   O02YW       1     -1.05    15.999
   14283      Si       1     SIL   Si1HH       1       2.1    28.086
   14284      Si       1     SIL   Si1HI       1       2.1    28.086
   14285      Si       1     SIL   Si1HJ       1       2.1    28.086
   14286      Ob       1     SIL   O02YX       1     -1.05    15.999
   14287      Ob       1     SIL   O02YY       1     -1.05    15.999
   14288      Ob       1     SIL   O02YZ       1     -1.05    15.999
   14289      Ob       1     SIL   O02Ya       1     -1.05    15.999
   14290      Ob       1     SIL   O02Yb       1     -1.05    15.999
   14291      Ob       1     SIL   O02Yc       1     -1.05    15.999
   14292      Si       1     SIL   Si1HK       1       2.1    28.086
   14293      Si       1     SIL   Si1HL       1       2.1    28.086
   14294      Si       1     SIL   Si1HM       1       2.1    28.086
   14295      Ob       1     SIL   O02Yd       1     -1.05    15.999
   14296      Ob       1     SIL   O02Ye       1     -1.05    15.999
   14297      Ob       1     SIL   O02Yf       1     -1.05    15.999
   14298      Ob       1     SIL   O02Yg       1     -1.05    15.999
   14299      Ob       1     SIL   O02Yh       1     -1.05    15.999
   14300      Ob       1     SIL   O02Yi       1     -1.05    15.999
   14301      Si       1     SIL   Si1HN       1       2.1    28.086
   14302      Si       1     SIL   Si1HO       1       2.1    28.086
   14303      Si       1     SIL   Si1HP       1       2.1    28.086
   14304      Ob       1     SIL   O02Yj       1     -1.05    15.999
   14305      Ob       1     SIL   O02Yk       1     -1.05    15.999
   14306      Ob       1     SIL   O02Yl       1     -1.05    15.999
   14307      Ob       1     SIL   O02Ym       1     -1.05    15.999
   14308      Ob       1     SIL   O02Yn       1     -1.05    15.999
   14309      Ob       1     SIL   O02Yo       1     -1.05    15.999
   14310      Si       1     SIL   Si1HQ       1       2.1    28.086
   14311      Si       1     SIL   Si1HR       1       2.1    28.086
   14312      Si       1     SIL   Si1HS       1       2.1    28.086
   14313      Ob       1     SIL   O02Yp       1     -1.05    15.999
   14314      Ob       1     SIL   O02Yq       1     -1.05    15.999
   14315      Ob       1     SIL   O02Yr       1     -1.05    15.999
   14316      Ob       1     SIL   O02Ys       1     -1.05    15.999
   14317      Ob       1     SIL   O02Yt       1     -1.05    15.999
   14318      Ob       1     SIL   O02Yu       1     -1.05    15.999
   14319      Si       1     SIL   Si1HT       1       2.1    28.086
   14320      Si       1     SIL   Si1HU       1       2.1    28.086
   14321      Si       1     SIL   Si1HV       1       2.1    28.086
   14322      Ob       1     SIL   O02Yv       1     -1.05    15.999
   14323      Ob       1     SIL   O02Yw       1     -1.05    15.999
   14324      Ob       1     SIL   O02Yx       1     -1.05    15.999
   14325      Ob       1     SIL   O02Yy       1     -1.05    15.999
   14326      Ob       1     SIL   O02Yz       1     -1.05    15.999
   14327      Ob       1     SIL   O02Z0       1     -1.05    15.999
   14328      Si       1     SIL   Si1HW       1       2.1    28.086
   14329      Si       1     SIL   Si1HX       1       2.1    28.086
   14330      Si       1     SIL   Si1HY       1       2.1    28.086
   14331      Ob       1     SIL   O02Z1       1     -1.05    15.999
   14332      Ob       1     SIL   O02Z2       1     -1.05    15.999
   14333      Ob       1     SIL   O02Z3       1     -1.05    15.999
   14334      Ob       1     SIL   O02Z4       1     -1.05    15.999
   14335      Ob       1     SIL   O02Z5       1     -1.05    15.999
   14336      Ob       1     SIL   O02Z6       1     -1.05    15.999
   14337      Si       1     SIL   Si1HZ       1       2.1    28.086
   14338      Si       1     SIL   Si1Ha       1       2.1    28.086
   14339      Si       1     SIL   Si1Hb       1       2.1    28.086
   14340      Ob       1     SIL   O02Z7       1     -1.05    15.999
   14341      Ob       1     SIL   O02Z8       1     -1.05    15.999
   14342      Ob       1     SIL   O02Z9       1     -1.05    15.999
   14343      Ob       1     SIL   O02ZA       1     -1.05    15.999
   14344      Ob       1     SIL   O02ZB       1     -1.05    15.999
   14345      Ob       1     SIL   O02ZC       1     -1.05    15.999
   14346      Si       1     SIL   Si1Hc       1       2.1    28.086
   14347      Si       1     SIL   Si1Hd       1       2.1    28.086
   14348      Si       1     SIL   Si1He       1       2.1    28.086
   14349      Ob       1     SIL   O02ZD       1     -1.05    15.999
   14350      Ob       1     SIL   O02ZE       1     -1.05    15.999
   14351      Ob       1     SIL   O02ZF       1     -1.05    15.999
   14352      Ob       1     SIL   O02ZG       1     -1.05    15.999
   14353      Ob       1     SIL   O02ZH       1     -1.05    15.999
   14354      Ob       1     SIL   O02ZI       1     -1.05    15.999
   14355      Si       1     SIL   Si1Hf       1       2.1    28.086
   14356      Si       1     SIL   Si1Hg       1       2.1    28.086
   14357      Si       1     SIL   Si1Hh       1       2.1    28.086
   14358      Ob       1     SIL   O02ZJ       1     -1.05    15.999
   14359      Ob       1     SIL   O02ZK       1     -1.05    15.999
   14360      Ob       1     SIL   O02ZL       1     -1.05    15.999
   14361      Ob       1     SIL   O02ZM       1     -1.05    15.999
   14362      Ob       1     SIL   O02ZN       1     -1.05    15.999
   14363      Ob       1     SIL   O02ZO       1     -1.05    15.999
   14364      Si       1     SIL   Si1Hi       1       2.1    28.086
   14365      Si       1     SIL   Si1Hj       1       2.1    28.086
   14366      Si       1     SIL   Si1Hk       1       2.1    28.086
   14367      Ob       1     SIL   O02ZP       1     -1.05    15.999
   14368      Ob       1     SIL   O02ZQ       1     -1.05    15.999
   14369      Ob       1     SIL   O02ZR       1     -1.05    15.999
   14370      Ob       1     SIL   O02ZS       1     -1.05    15.999
   14371      Ob       1     SIL   O02ZT       1     -1.05    15.999
   14372      Ob       1     SIL   O02ZU       1     -1.05    15.999
   14373      Si       1     SIL   Si1Hl       1       2.1    28.086
   14374      Si       1     SIL   Si1Hm       1       2.1    28.086
   14375      Si       1     SIL   Si1Hn       1       2.1    28.086
   14376      Ob       1     SIL   O02ZV       1     -1.05    15.999
   14377      Ob       1     SIL   O02ZW       1     -1.05    15.999
   14378      Ob       1     SIL   O02ZX       1     -1.05    15.999
   14379      Ob       1     SIL   O02ZY       1     -1.05    15.999
   14380      Ob       1     SIL   O02ZZ       1     -1.05    15.999
   14381      Ob       1     SIL   O02Za       1     -1.05    15.999
   14382      Si       1     SIL   Si1Ho       1       2.1    28.086
   14383      Si       1     SIL   Si1Hp       1       2.1    28.086
   14384      Si       1     SIL   Si1Hq       1       2.1    28.086
   14385      Ob       1     SIL   O02Zb       1     -1.05    15.999
   14386      Ob       1     SIL   O02Zc       1     -1.05    15.999
   14387      Ob       1     SIL   O02Zd       1     -1.05    15.999
   14388      Ob       1     SIL   O02Ze       1     -1.05    15.999
   14389      Ob       1     SIL   O02Zf       1     -1.05    15.999
   14390      Ob       1     SIL   O02Zg       1     -1.05    15.999
   14391      Si       1     SIL   Si1Hr       1       2.1    28.086
   14392      Si       1     SIL   Si1Hs       1       2.1    28.086
   14393      Si       1     SIL   Si1Ht       1       2.1    28.086
   14394      Ob       1     SIL   O02Zh       1     -1.05    15.999
   14395      Ob       1     SIL   O02Zi       1     -1.05    15.999
   14396      Ob       1     SIL   O02Zj       1     -1.05    15.999
   14397      Ob       1     SIL   O02Zk       1     -1.05    15.999
   14398      Ob       1     SIL   O02Zl       1     -1.05    15.999
   14399      Ob       1     SIL   O02Zm       1     -1.05    15.999
   14400      Si       1     SIL   Si1Hu       1       2.1    28.086
   14401      Si       1     SIL   Si1Hv       1       2.1    28.086
   14402      Si       1     SIL   Si1Hw       1       2.1    28.086
   14403      Ob       1     SIL   O02Zn       1     -1.05    15.999
   14404      Ob       1     SIL   O02Zo       1     -1.05    15.999
   14405      Ob       1     SIL   O02Zp       1     -1.05    15.999
   14406      Ob       1     SIL   O02Zq       1     -1.05    15.999
   14407      Ob       1     SIL   O02Zr       1     -1.05    15.999
   14408      Ob       1     SIL   O02Zs       1     -1.05    15.999
   14409      Si       1     SIL   Si1Hx       1       2.1    28.086
   14410      Si       1     SIL   Si1Hy       1       2.1    28.086
   14411      Si       1     SIL   Si1Hz       1       2.1    28.086
   14412      Ob       1     SIL   O02Zt       1     -1.05    15.999
   14413      Ob       1     SIL   O02Zu       1     -1.05    15.999
   14414      Ob       1     SIL   O02Zv       1     -1.05    15.999
   14415      Ob       1     SIL   O02Zw       1     -1.05    15.999
   14416      Ob       1     SIL   O02Zx       1     -1.05    15.999
   14417      Ob       1     SIL   O02Zy       1     -1.05    15.999
   14418      Si       1     SIL   Si1I0       1       2.1    28.086
   14419      Si       1     SIL   Si1I1       1       2.1    28.086
   14420      Si       1     SIL   Si1I2       1       2.1    28.086
   14421      Ob       1     SIL   O02Zz       1     -1.05    15.999
   14422      Ob       1     SIL   O02a0       1     -1.05    15.999
   14423      Ob       1     SIL   O02a1       1     -1.05    15.999
   14424      Ob       1     SIL   O02a2       1     -1.05    15.999
   14425      Ob       1     SIL   O02a3       1     -1.05    15.999
   14426      Ob       1     SIL   O02a4       1     -1.05    15.999
   14427      Si       1     SIL   Si1I3       1       2.1    28.086
   14428      Si       1     SIL   Si1I4       1       2.1    28.086
   14429      Si       1     SIL   Si1I5       1       2.1    28.086
   14430      Ob       1     SIL   O02a5       1     -1.05    15.999
   14431      Ob       1     SIL   O02a6       1     -1.05    15.999
   14432      Ob       1     SIL   O02a7       1     -1.05    15.999
   14433      Ob       1     SIL   O02a8       1     -1.05    15.999
   14434      Ob       1     SIL   O02a9       1     -1.05    15.999
   14435      Ob       1     SIL   O02aA       1     -1.05    15.999
   14436      Si       1     SIL   Si1I6       1       2.1    28.086
   14437      Si       1     SIL   Si1I7       1       2.1    28.086
   14438      Si       1     SIL   Si1I8       1       2.1    28.086
   14439      Ob       1     SIL   O02aB       1     -1.05    15.999
   14440       O       1     SIL   O02aC       1    -0.525    15.999
   14441       O       1     SIL   O02aD       1    -0.525    15.999
   14442      Ob       1     SIL   O02aE       1     -1.05    15.999
   14443      Ob       1     SIL   O02aF       1     -1.05    15.999
   14444      Ob       1     SIL   O02aG       1     -1.05    15.999
   14445      Si       1     SIL   Si1I9       1       2.1    28.086
   14446      Si       1     SIL   Si1IA       1       2.1    28.086
   14447      Si       1     SIL   Si1IB       1       2.1    28.086
   14448      Ob       1     SIL   O02aH       1     -1.05    15.999
   14449      Ob       1     SIL   O02aI       1     -1.05    15.999
   14450      Ob       1     SIL   O02aJ       1     -1.05    15.999
   14451      Ob       1     SIL   O02aK       1     -1.05    15.999
   14452      Ob       1     SIL   O02aL       1     -1.05    15.999
   14453      Ob       1     SIL   O02aM       1     -1.05    15.999
   14454      Si       1     SIL   Si1IC       1       2.1    28.086
   14455      Si       1     SIL   Si1ID       1       2.1    28.086
   14456      Si       1     SIL   Si1IE       1       2.1    28.086
   14457      Ob       1     SIL   O02aN       1     -1.05    15.999
   14458      Ob       1     SIL   O02aO       1     -1.05    15.999
   14459      Ob       1     SIL   O02aP       1     -1.05    15.999
   14460      Ob       1     SIL   O02aQ       1     -1.05    15.999
   14461      Ob       1     SIL   O02aR       1     -1.05    15.999
   14462      Ob       1     SIL   O02aS       1     -1.05    15.999
   14463      Si       1     SIL   Si1IF       1       2.1    28.086
   14464      Si       1     SIL   Si1IG       1       2.1    28.086
   14465      Si       1     SIL   Si1IH       1       2.1    28.086
   14466      Ob       1     SIL   O02aT       1     -1.05    15.999
   14467      Ob       1     SIL   O02aU       1     -1.05    15.999
   14468      Ob       1     SIL   O02aV       1     -1.05    15.999
   14469      Ob       1     SIL   O02aW       1     -1.05    15.999
   14470      Ob       1     SIL   O02aX       1     -1.05    15.999
   14471      Ob       1     SIL   O02aY       1     -1.05    15.999
   14472      Si       1     SIL   Si1II       1       2.1    28.086
   14473      Si       1     SIL   Si1IJ       1       2.1    28.086
   14474      Si       1     SIL   Si1IK       1       2.1    28.086
   14475      Ob       1     SIL   O02aZ       1     -1.05    15.999
   14476      Ob       1     SIL   O02aa       1     -1.05    15.999
   14477      Ob       1     SIL   O02ab       1     -1.05    15.999
   14478      Ob       1     SIL   O02ac       1     -1.05    15.999
   14479      Ob       1     SIL   O02ad       1     -1.05    15.999
   14480      Ob       1     SIL   O02ae       1     -1.05    15.999
   14481      Si       1     SIL   Si1IL       1       2.1    28.086
   14482      Si       1     SIL   Si1IM       1       2.1    28.086
   14483      Si       1     SIL   Si1IN       1       2.1    28.086
   14484      Ob       1     SIL   O02af       1     -1.05    15.999
   14485      Ob       1     SIL   O02ag       1     -1.05    15.999
   14486      Ob       1     SIL   O02ah       1     -1.05    15.999
   14487      Ob       1     SIL   O02ai       1     -1.05    15.999
   14488      Ob       1     SIL   O02aj       1     -1.05    15.999
   14489      Ob       1     SIL   O02ak       1     -1.05    15.999
   14490      Si       1     SIL   Si1IO       1       2.1    28.086
   14491      Si       1     SIL   Si1IP       1       2.1    28.086
   14492      Si       1     SIL   Si1IQ       1       2.1    28.086
   14493      Ob       1     SIL   O02al       1     -1.05    15.999
   14494      Ob       1     SIL   O02am       1     -1.05    15.999
   14495      Ob       1     SIL   O02an       1     -1.05    15.999
   14496      Ob       1     SIL   O02ao       1     -1.05    15.999
   14497      Ob       1     SIL   O02ap       1     -1.05    15.999
   14498      Ob       1     SIL   O02aq       1     -1.05    15.999
   14499      Si       1     SIL   Si1IR       1       2.1    28.086
   14500      Si       1     SIL   Si1IS       1       2.1    28.086
   14501      Si       1     SIL   Si1IT       1       2.1    28.086
   14502      Ob       1     SIL   O02ar       1     -1.05    15.999
   14503      Ob       1     SIL   O02as       1     -1.05    15.999
   14504      Ob       1     SIL   O02at       1     -1.05    15.999
   14505      Ob       1     SIL   O02au       1     -1.05    15.999
   14506      Ob       1     SIL   O02av       1     -1.05    15.999
   14507      Ob       1     SIL   O02aw       1     -1.05    15.999
   14508      Si       1     SIL   Si1IU       1       2.1    28.086
   14509      Si       1     SIL   Si1IV       1       2.1    28.086
   14510      Si       1     SIL   Si1IW       1       2.1    28.086
   14511      Ob       1     SIL   O02ax       1     -1.05    15.999
   14512      Ob       1     SIL   O02ay       1     -1.05    15.999
   14513      Ob       1     SIL   O02az       1     -1.05    15.999
   14514      Ob       1     SIL   O02b0       1     -1.05    15.999
   14515      Ob       1     SIL   O02b1       1     -1.05    15.999
   14516      Ob       1     SIL   O02b2       1     -1.05    15.999
   14517      Si       1     SIL   Si1IX       1       2.1    28.086
   14518      Si       1     SIL   Si1IY       1       2.1    28.086
   14519      Si       1     SIL   Si1IZ       1       2.1    28.086
   14520      Ob       1     SIL   O02b3       1     -1.05    15.999
   14521      Ob       1     SIL   O02b4       1     -1.05    15.999
   14522      Ob       1     SIL   O02b5       1     -1.05    15.999
   14523      Ob       1     SIL   O02b6       1     -1.05    15.999
   14524      Ob       1     SIL   O02b7       1     -1.05    15.999
   14525      Ob       1     SIL   O02b8       1     -1.05    15.999
   14526      Si       1     SIL   Si1Ia       1       2.1    28.086
   14527      Si       1     SIL   Si1Ib       1       2.1    28.086
   14528      Si       1     SIL   Si1Ic       1       2.1    28.086
   14529      Ob       1     SIL   O02b9       1     -1.05    15.999
   14530      Ob       1     SIL   O02bA       1     -1.05    15.999
   14531      Ob       1     SIL   O02bB       1     -1.05    15.999
   14532      Ob       1     SIL   O02bC       1     -1.05    15.999
   14533      Ob       1     SIL   O02bD       1     -1.05    15.999
   14534      Ob       1     SIL   O02bE       1     -1.05    15.999
   14535      Si       1     SIL   Si1Id       1       2.1    28.086
   14536      Si       1     SIL   Si1Ie       1       2.1    28.086
   14537      Si       1     SIL   Si1If       1       2.1    28.086
   14538      Ob       1     SIL   O02bF       1     -1.05    15.999
   14539      Ob       1     SIL   O02bG       1     -1.05    15.999
   14540      Ob       1     SIL   O02bH       1     -1.05    15.999
   14541      Ob       1     SIL   O02bI       1     -1.05    15.999
   14542      Ob       1     SIL   O02bJ       1     -1.05    15.999
   14543      Ob       1     SIL   O02bK       1     -1.05    15.999
   14544      Si       1     SIL   Si1Ig       1       2.1    28.086
   14545      Si       1     SIL   Si1Ih       1       2.1    28.086
   14546      Si       1     SIL   Si1Ii       1       2.1    28.086
   14547      Ob       1     SIL   O02bL       1     -1.05    15.999
   14548      Ob       1     SIL   O02bM       1     -1.05    15.999
   14549      Ob       1     SIL   O02bN       1     -1.05    15.999
   14550      Ob       1     SIL   O02bO       1     -1.05    15.999
   14551      Ob       1     SIL   O02bP       1     -1.05    15.999
   14552      Ob       1     SIL   O02bQ       1     -1.05    15.999
   14553      Si       1     SIL   Si1Ij       1       2.1    28.086
   14554      Si       1     SIL   Si1Ik       1       2.1    28.086
   14555      Si       1     SIL   Si1Il       1       2.1    28.086
   14556      Ob       1     SIL   O02bR       1     -1.05    15.999
   14557      Ob       1     SIL   O02bS       1     -1.05    15.999
   14558      Ob       1     SIL   O02bT       1     -1.05    15.999
   14559      Ob       1     SIL   O02bU       1     -1.05    15.999
   14560      Ob       1     SIL   O02bV       1     -1.05    15.999
   14561      Ob       1     SIL   O02bW       1     -1.05    15.999
   14562      Si       1     SIL   Si1Im       1       2.1    28.086
   14563      Si       1     SIL   Si1In       1       2.1    28.086
   14564      Si       1     SIL   Si1Io       1       2.1    28.086
   14565      Ob       1     SIL   O02bX       1     -1.05    15.999
   14566      Ob       1     SIL   O02bY       1     -1.05    15.999
   14567      Ob       1     SIL   O02bZ       1     -1.05    15.999
   14568      Ob       1     SIL   O02ba       1     -1.05    15.999
   14569      Ob       1     SIL   O02bb       1     -1.05    15.999
   14570      Ob       1     SIL   O02bc       1     -1.05    15.999
   14571      Si       1     SIL   Si1Ip       1       2.1    28.086
   14572      Si       1     SIL   Si1Iq       1       2.1    28.086
   14573      Si       1     SIL   Si1Ir       1       2.1    28.086
   14574      Ob       1     SIL   O02bd       1     -1.05    15.999
   14575      Ob       1     SIL   O02be       1     -1.05    15.999
   14576      Ob       1     SIL   O02bf       1     -1.05    15.999
   14577      Ob       1     SIL   O02bg       1     -1.05    15.999
   14578      Ob       1     SIL   O02bh       1     -1.05    15.999
   14579      Ob       1     SIL   O02bi       1     -1.05    15.999
   14580      Si       1     SIL   Si1Is       1       2.1    28.086
   14581      Si       1     SIL   Si1It       1       2.1    28.086
   14582      Si       1     SIL   Si1Iu       1       2.1    28.086
   14583      Ob       1     SIL   O02bj       1     -1.05    15.999
   14584      Ob       1     SIL   O02bk       1     -1.05    15.999
   14585      Ob       1     SIL   O02bl       1     -1.05    15.999
   14586      Ob       1     SIL   O02bm       1     -1.05    15.999
   14587      Ob       1     SIL   O02bn       1     -1.05    15.999
   14588      Ob       1     SIL   O02bo       1     -1.05    15.999
   14589      Si       1     SIL   Si1Iv       1       2.1    28.086
   14590      Si       1     SIL   Si1Iw       1       2.1    28.086
   14591      Si       1     SIL   Si1Ix       1       2.1    28.086
   14592      Ob       1     SIL   O02bp       1     -1.05    15.999
   14593      Ob       1     SIL   O02bq       1     -1.05    15.999
   14594      Ob       1     SIL   O02br       1     -1.05    15.999
   14595      Ob       1     SIL   O02bs       1     -1.05    15.999
   14596      Ob       1     SIL   O02bt       1     -1.05    15.999
   14597      Ob       1     SIL   O02bu       1     -1.05    15.999
   14598      Si       1     SIL   Si1Iy       1       2.1    28.086
   14599      Si       1     SIL   Si1Iz       1       2.1    28.086
   14600      Si       1     SIL   Si1J0       1       2.1    28.086
   14601      Ob       1     SIL   O02bv       1     -1.05    15.999
   14602      Ob       1     SIL   O02bw       1     -1.05    15.999
   14603      Ob       1     SIL   O02bx       1     -1.05    15.999
   14604      Ob       1     SIL   O02by       1     -1.05    15.999
   14605      Ob       1     SIL   O02bz       1     -1.05    15.999
   14606      Ob       1     SIL   O02c0       1     -1.05    15.999
   14607      Si       1     SIL   Si1J1       1       2.1    28.086
   14608      Si       1     SIL   Si1J2       1       2.1    28.086
   14609      Si       1     SIL   Si1J3       1       2.1    28.086
   14610      Ob       1     SIL   O02c1       1     -1.05    15.999
   14611      Ob       1     SIL   O02c2       1     -1.05    15.999
   14612      Ob       1     SIL   O02c3       1     -1.05    15.999
   14613      Ob       1     SIL   O02c4       1     -1.05    15.999
   14614      Ob       1     SIL   O02c5       1     -1.05    15.999
   14615      Ob       1     SIL   O02c6       1     -1.05    15.999
   14616      Si       1     SIL   Si1J4       1       2.1    28.086
   14617      Si       1     SIL   Si1J5       1       2.1    28.086
   14618      Si       1     SIL   Si1J6       1       2.1    28.086
   14619      Ob       1     SIL   O02c7       1     -1.05    15.999
   14620      Ob       1     SIL   O02c8       1     -1.05    15.999
   14621      Ob       1     SIL   O02c9       1     -1.05    15.999
   14622      Ob       1     SIL   O02cA       1     -1.05    15.999
   14623      Ob       1     SIL   O02cB       1     -1.05    15.999
   14624      Ob       1     SIL   O02cC       1     -1.05    15.999
   14625      Si       1     SIL   Si1J7       1       2.1    28.086
   14626      Si       1     SIL   Si1J8       1       2.1    28.086
   14627      Si       1     SIL   Si1J9       1       2.1    28.086
   14628      Ob       1     SIL   O02cD       1     -1.05    15.999
   14629      Ob       1     SIL   O02cE       1     -1.05    15.999
   14630      Ob       1     SIL   O02cF       1     -1.05    15.999
   14631      Ob       1     SIL   O02cG       1     -1.05    15.999
   14632      Ob       1     SIL   O02cH       1     -1.05    15.999
   14633      Ob       1     SIL   O02cI       1     -1.05    15.999
   14634      Si       1     SIL   Si1JA       1       2.1    28.086
   14635      Si       1     SIL   Si1JB       1       2.1    28.086
   14636      Si       1     SIL   Si1JC       1       2.1    28.086
   14637      Ob       1     SIL   O02cJ       1     -1.05    15.999
   14638      Ob       1     SIL   O02cK       1     -1.05    15.999
   14639      Ob       1     SIL   O02cL       1     -1.05    15.999
   14640      Ob       1     SIL   O02cM       1     -1.05    15.999
   14641      Ob       1     SIL   O02cN       1     -1.05    15.999
   14642      Ob       1     SIL   O02cO       1     -1.05    15.999
   14643      Si       1     SIL   Si1JD       1       2.1    28.086
   14644      Si       1     SIL   Si1JE       1       2.1    28.086
   14645      Si       1     SIL   Si1JF       1       2.1    28.086
   14646      Ob       1     SIL   O02cP       1     -1.05    15.999
   14647       O       1     SIL   O02cQ       1    -0.525    15.999
   14648       O       1     SIL   O02cR       1    -0.525    15.999
   14649      Ob       1     SIL   O02cS       1     -1.05    15.999
   14650      Ob       1     SIL   O02cT       1     -1.05    15.999
   14651      Ob       1     SIL   O02cU       1     -1.05    15.999
   14652      Si       1     SIL   Si1JG       1       2.1    28.086
   14653      Si       1     SIL   Si1JH       1       2.1    28.086
   14654      Si       1     SIL   Si1JI       1       2.1    28.086
   14655      Ob       1     SIL   O02cV       1     -1.05    15.999
   14656      Ob       1     SIL   O02cW       1     -1.05    15.999
   14657      Ob       1     SIL   O02cX       1     -1.05    15.999
   14658      Ob       1     SIL   O02cY       1     -1.05    15.999
   14659      Ob       1     SIL   O02cZ       1     -1.05    15.999
   14660      Ob       1     SIL   O02ca       1     -1.05    15.999
   14661      Si       1     SIL   Si1JJ       1       2.1    28.086
   14662      Si       1     SIL   Si1JK       1       2.1    28.086
   14663      Si       1     SIL   Si1JL       1       2.1    28.086
   14664      Ob       1     SIL   O02cb       1     -1.05    15.999
   14665      Ob       1     SIL   O02cc       1     -1.05    15.999
   14666      Ob       1     SIL   O02cd       1     -1.05    15.999
   14667      Ob       1     SIL   O02ce       1     -1.05    15.999
   14668      Ob       1     SIL   O02cf       1     -1.05    15.999
   14669      Ob       1     SIL   O02cg       1     -1.05    15.999
   14670      Si       1     SIL   Si1JM       1       2.1    28.086
   14671      Si       1     SIL   Si1JN       1       2.1    28.086
   14672      Si       1     SIL   Si1JO       1       2.1    28.086
   14673      Ob       1     SIL   O02ch       1     -1.05    15.999
   14674      Ob       1     SIL   O02ci       1     -1.05    15.999
   14675      Ob       1     SIL   O02cj       1     -1.05    15.999
   14676      Ob       1     SIL   O02ck       1     -1.05    15.999
   14677      Ob       1     SIL   O02cl       1     -1.05    15.999
   14678      Ob       1     SIL   O02cm       1     -1.05    15.999
   14679      Si       1     SIL   Si1JP       1       2.1    28.086
   14680      Si       1     SIL   Si1JQ       1       2.1    28.086
   14681      Si       1     SIL   Si1JR       1       2.1    28.086
   14682      Ob       1     SIL   O02cn       1     -1.05    15.999
   14683      Ob       1     SIL   O02co       1     -1.05    15.999
   14684      Ob       1     SIL   O02cp       1     -1.05    15.999
   14685      Ob       1     SIL   O02cq       1     -1.05    15.999
   14686      Ob       1     SIL   O02cr       1     -1.05    15.999
   14687      Ob       1     SIL   O02cs       1     -1.05    15.999
   14688      Si       1     SIL   Si1JS       1       2.1    28.086
   14689      Si       1     SIL   Si1JT       1       2.1    28.086
   14690      Si       1     SIL   Si1JU       1       2.1    28.086
   14691      Ob       1     SIL   O02ct       1     -1.05    15.999
   14692      Ob       1     SIL   O02cu       1     -1.05    15.999
   14693      Ob       1     SIL   O02cv       1     -1.05    15.999
   14694      Ob       1     SIL   O02cw       1     -1.05    15.999
   14695      Ob       1     SIL   O02cx       1     -1.05    15.999
   14696      Ob       1     SIL   O02cy       1     -1.05    15.999
   14697      Si       1     SIL   Si1JV       1       2.1    28.086
   14698      Si       1     SIL   Si1JW       1       2.1    28.086
   14699      Si       1     SIL   Si1JX       1       2.1    28.086
   14700      Ob       1     SIL   O02cz       1     -1.05    15.999
   14701      Ob       1     SIL   O02d0       1     -1.05    15.999
   14702      Ob       1     SIL   O02d1       1     -1.05    15.999
   14703      Ob       1     SIL   O02d2       1     -1.05    15.999
   14704      Ob       1     SIL   O02d3       1     -1.05    15.999
   14705      Ob       1     SIL   O02d4       1     -1.05    15.999
   14706      Si       1     SIL   Si1JY       1       2.1    28.086
   14707      Si       1     SIL   Si1JZ       1       2.1    28.086
   14708      Si       1     SIL   Si1Ja       1       2.1    28.086
   14709      Ob       1     SIL   O02d5       1     -1.05    15.999
   14710      Ob       1     SIL   O02d6       1     -1.05    15.999
   14711      Ob       1     SIL   O02d7       1     -1.05    15.999
   14712      Ob       1     SIL   O02d8       1     -1.05    15.999
   14713      Ob       1     SIL   O02d9       1     -1.05    15.999
   14714      Ob       1     SIL   O02dA       1     -1.05    15.999
   14715      Si       1     SIL   Si1Jb       1       2.1    28.086
   14716      Si       1     SIL   Si1Jc       1       2.1    28.086
   14717      Si       1     SIL   Si1Jd       1       2.1    28.086
   14718      Ob       1     SIL   O02dB       1     -1.05    15.999
   14719      Ob       1     SIL   O02dC       1     -1.05    15.999
   14720      Ob       1     SIL   O02dD       1     -1.05    15.999
   14721      Ob       1     SIL   O02dE       1     -1.05    15.999
   14722      Ob       1     SIL   O02dF       1     -1.05    15.999
   14723      Ob       1     SIL   O02dG       1     -1.05    15.999
   14724      Si       1     SIL   Si1Je       1       2.1    28.086
   14725      Si       1     SIL   Si1Jf       1       2.1    28.086
   14726      Si       1     SIL   Si1Jg       1       2.1    28.086
   14727      Ob       1     SIL   O02dH       1     -1.05    15.999
   14728      Ob       1     SIL   O02dI       1     -1.05    15.999
   14729      Ob       1     SIL   O02dJ       1     -1.05    15.999
   14730      Ob       1     SIL   O02dK       1     -1.05    15.999
   14731      Ob       1     SIL   O02dL       1     -1.05    15.999
   14732      Ob       1     SIL   O02dM       1     -1.05    15.999
   14733      Si       1     SIL   Si1Jh       1       2.1    28.086
   14734      Si       1     SIL   Si1Ji       1       2.1    28.086
   14735      Si       1     SIL   Si1Jj       1       2.1    28.086
   14736      Ob       1     SIL   O02dN       1     -1.05    15.999
   14737      Ob       1     SIL   O02dO       1     -1.05    15.999
   14738      Ob       1     SIL   O02dP       1     -1.05    15.999
   14739      Ob       1     SIL   O02dQ       1     -1.05    15.999
   14740      Ob       1     SIL   O02dR       1     -1.05    15.999
   14741      Ob       1     SIL   O02dS       1     -1.05    15.999
   14742      Si       1     SIL   Si1Jk       1       2.1    28.086
   14743      Si       1     SIL   Si1Jl       1       2.1    28.086
   14744      Si       1     SIL   Si1Jm       1       2.1    28.086
   14745      Ob       1     SIL   O02dT       1     -1.05    15.999
   14746      Ob       1     SIL   O02dU       1     -1.05    15.999
   14747      Ob       1     SIL   O02dV       1     -1.05    15.999
   14748      Ob       1     SIL   O02dW       1     -1.05    15.999
   14749      Ob       1     SIL   O02dX       1     -1.05    15.999
   14750      Ob       1     SIL   O02dY       1     -1.05    15.999
   14751      Si       1     SIL   Si1Jn       1       2.1    28.086
   14752      Si       1     SIL   Si1Jo       1       2.1    28.086
   14753      Si       1     SIL   Si1Jp       1       2.1    28.086
   14754      Ob       1     SIL   O02dZ       1     -1.05    15.999
   14755      Ob       1     SIL   O02da       1     -1.05    15.999
   14756      Ob       1     SIL   O02db       1     -1.05    15.999
   14757      Ob       1     SIL   O02dc       1     -1.05    15.999
   14758      Ob       1     SIL   O02dd       1     -1.05    15.999
   14759      Ob       1     SIL   O02de       1     -1.05    15.999
   14760      Si       1     SIL   Si1Jq       1       2.1    28.086
   14761      Si       1     SIL   Si1Jr       1       2.1    28.086
   14762      Si       1     SIL   Si1Js       1       2.1    28.086
   14763      Ob       1     SIL   O02df       1     -1.05    15.999
   14764      Ob       1     SIL   O02dg       1     -1.05    15.999
   14765      Ob       1     SIL   O02dh       1     -1.05    15.999
   14766      Ob       1     SIL   O02di       1     -1.05    15.999
   14767      Ob       1     SIL   O02dj       1     -1.05    15.999
   14768      Ob       1     SIL   O02dk       1     -1.05    15.999
   14769      Si       1     SIL   Si1Jt       1       2.1    28.086
   14770      Si       1     SIL   Si1Ju       1       2.1    28.086
   14771      Si       1     SIL   Si1Jv       1       2.1    28.086
   14772      Ob       1     SIL   O02dl       1     -1.05    15.999
   14773      Ob       1     SIL   O02dm       1     -1.05    15.999
   14774      Ob       1     SIL   O02dn       1     -1.05    15.999
   14775      Ob       1     SIL   O02do       1     -1.05    15.999
   14776      Ob       1     SIL   O02dp       1     -1.05    15.999
   14777      Ob       1     SIL   O02dq       1     -1.05    15.999
   14778      Si       1     SIL   Si1Jw       1       2.1    28.086
   14779      Si       1     SIL   Si1Jx       1       2.1    28.086
   14780      Si       1     SIL   Si1Jy       1       2.1    28.086
   14781      Ob       1     SIL   O02dr       1     -1.05    15.999
   14782      Ob       1     SIL   O02ds       1     -1.05    15.999
   14783      Ob       1     SIL   O02dt       1     -1.05    15.999
   14784      Ob       1     SIL   O02du       1     -1.05    15.999
   14785      Ob       1     SIL   O02dv       1     -1.05    15.999
   14786      Ob       1     SIL   O02dw       1     -1.05    15.999
   14787      Si       1     SIL   Si1Jz       1       2.1    28.086
   14788      Si       1     SIL   Si1K0       1       2.1    28.086
   14789      Si       1     SIL   Si1K1       1       2.1    28.086
   14790      Ob       1     SIL   O02dx       1     -1.05    15.999
   14791      Ob       1     SIL   O02dy       1     -1.05    15.999
   14792      Ob       1     SIL   O02dz       1     -1.05    15.999
   14793      Ob       1     SIL   O02e0       1     -1.05    15.999
   14794      Ob       1     SIL   O02e1       1     -1.05    15.999
   14795      Ob       1     SIL   O02e2       1     -1.05    15.999
   14796      Si       1     SIL   Si1K2       1       2.1    28.086
   14797      Si       1     SIL   Si1K3       1       2.1    28.086
   14798      Si       1     SIL   Si1K4       1       2.1    28.086
   14799      Ob       1     SIL   O02e3       1     -1.05    15.999
   14800      Ob       1     SIL   O02e4       1     -1.05    15.999
   14801      Ob       1     SIL   O02e5       1     -1.05    15.999
   14802      Ob       1     SIL   O02e6       1     -1.05    15.999
   14803      Ob       1     SIL   O02e7       1     -1.05    15.999
   14804      Ob       1     SIL   O02e8       1     -1.05    15.999
   14805      Si       1     SIL   Si1K5       1       2.1    28.086
   14806      Si       1     SIL   Si1K6       1       2.1    28.086
   14807      Si       1     SIL   Si1K7       1       2.1    28.086
   14808      Ob       1     SIL   O02e9       1     -1.05    15.999
   14809      Ob       1     SIL   O02eA       1     -1.05    15.999
   14810      Ob       1     SIL   O02eB       1     -1.05    15.999
   14811      Ob       1     SIL   O02eC       1     -1.05    15.999
   14812      Ob       1     SIL   O02eD       1     -1.05    15.999
   14813      Ob       1     SIL   O02eE       1     -1.05    15.999
   14814      Si       1     SIL   Si1K8       1       2.1    28.086
   14815      Si       1     SIL   Si1K9       1       2.1    28.086
   14816      Si       1     SIL   Si1KA       1       2.1    28.086
   14817      Ob       1     SIL   O02eF       1     -1.05    15.999
   14818      Ob       1     SIL   O02eG       1     -1.05    15.999
   14819      Ob       1     SIL   O02eH       1     -1.05    15.999
   14820      Ob       1     SIL   O02eI       1     -1.05    15.999
   14821      Ob       1     SIL   O02eJ       1     -1.05    15.999
   14822      Ob       1     SIL   O02eK       1     -1.05    15.999
   14823      Si       1     SIL   Si1KB       1       2.1    28.086
   14824      Si       1     SIL   Si1KC       1       2.1    28.086
   14825      Si       1     SIL   Si1KD       1       2.1    28.086
   14826      Ob       1     SIL   O02eL       1     -1.05    15.999
   14827      Ob       1     SIL   O02eM       1     -1.05    15.999
   14828      Ob       1     SIL   O02eN       1     -1.05    15.999
   14829      Ob       1     SIL   O02eO       1     -1.05    15.999
   14830      Ob       1     SIL   O02eP       1     -1.05    15.999
   14831      Ob       1     SIL   O02eQ       1     -1.05    15.999
   14832      Si       1     SIL   Si1KE       1       2.1    28.086
   14833      Si       1     SIL   Si1KF       1       2.1    28.086
   14834      Si       1     SIL   Si1KG       1       2.1    28.086
   14835      Ob       1     SIL   O02eR       1     -1.05    15.999
   14836      Ob       1     SIL   O02eS       1     -1.05    15.999
   14837      Ob       1     SIL   O02eT       1     -1.05    15.999
   14838      Ob       1     SIL   O02eU       1     -1.05    15.999
   14839      Ob       1     SIL   O02eV       1     -1.05    15.999
   14840      Ob       1     SIL   O02eW       1     -1.05    15.999
   14841      Si       1     SIL   Si1KH       1       2.1    28.086
   14842      Si       1     SIL   Si1KI       1       2.1    28.086
   14843      Si       1     SIL   Si1KJ       1       2.1    28.086
   14844      Ob       1     SIL   O02eX       1     -1.05    15.999
   14845      Ob       1     SIL   O02eY       1     -1.05    15.999
   14846      Ob       1     SIL   O02eZ       1     -1.05    15.999
   14847      Ob       1     SIL   O02ea       1     -1.05    15.999
   14848      Ob       1     SIL   O02eb       1     -1.05    15.999
   14849      Ob       1     SIL   O02ec       1     -1.05    15.999
   14850      Si       1     SIL   Si1KK       1       2.1    28.086
   14851      Si       1     SIL   Si1KL       1       2.1    28.086
   14852      Si       1     SIL   Si1KM       1       2.1    28.086
   14853      Ob       1     SIL   O02ed       1     -1.05    15.999
   14854       O       1     SIL   O02ee       1    -0.525    15.999
   14855       O       1     SIL   O02ef       1    -0.525    15.999
   14856      Ob       1     SIL   O02eg       1     -1.05    15.999
   14857      Ob       1     SIL   O02eh       1     -1.05    15.999
   14858      Ob       1     SIL   O02ei       1     -1.05    15.999
   14859      Si       1     SIL   Si1KN       1       2.1    28.086
   14860      Si       1     SIL   Si1KO       1       2.1    28.086
   14861      Si       1     SIL   Si1KP       1       2.1    28.086
   14862      Ob       1     SIL   O02ej       1     -1.05    15.999
   14863      Ob       1     SIL   O02ek       1     -1.05    15.999
   14864      Ob       1     SIL   O02el       1     -1.05    15.999
   14865      Ob       1     SIL   O02em       1     -1.05    15.999
   14866      Ob       1     SIL   O02en       1     -1.05    15.999
   14867      Ob       1     SIL   O02eo       1     -1.05    15.999
   14868      Si       1     SIL   Si1KQ       1       2.1    28.086
   14869      Si       1     SIL   Si1KR       1       2.1    28.086
   14870      Si       1     SIL   Si1KS       1       2.1    28.086
   14871      Ob       1     SIL   O02ep       1     -1.05    15.999
   14872      Ob       1     SIL   O02eq       1     -1.05    15.999
   14873      Ob       1     SIL   O02er       1     -1.05    15.999
   14874      Ob       1     SIL   O02es       1     -1.05    15.999
   14875      Ob       1     SIL   O02et       1     -1.05    15.999
   14876      Ob       1     SIL   O02eu       1     -1.05    15.999
   14877      Si       1     SIL   Si1KT       1       2.1    28.086
   14878      Si       1     SIL   Si1KU       1       2.1    28.086
   14879      Si       1     SIL   Si1KV       1       2.1    28.086
   14880      Ob       1     SIL   O02ev       1     -1.05    15.999
   14881      Ob       1     SIL   O02ew       1     -1.05    15.999
   14882      Ob       1     SIL   O02ex       1     -1.05    15.999
   14883      Ob       1     SIL   O02ey       1     -1.05    15.999
   14884      Ob       1     SIL   O02ez       1     -1.05    15.999
   14885      Ob       1     SIL   O02f0       1     -1.05    15.999
   14886      Si       1     SIL   Si1KW       1       2.1    28.086
   14887      Si       1     SIL   Si1KX       1       2.1    28.086
   14888      Si       1     SIL   Si1KY       1       2.1    28.086
   14889      Ob       1     SIL   O02f1       1     -1.05    15.999
   14890      Ob       1     SIL   O02f2       1     -1.05    15.999
   14891      Ob       1     SIL   O02f3       1     -1.05    15.999
   14892      Ob       1     SIL   O02f4       1     -1.05    15.999
   14893      Ob       1     SIL   O02f5       1     -1.05    15.999
   14894      Ob       1     SIL   O02f6       1     -1.05    15.999
   14895      Si       1     SIL   Si1KZ       1       2.1    28.086
   14896      Si       1     SIL   Si1Ka       1       2.1    28.086
   14897      Si       1     SIL   Si1Kb       1       2.1    28.086
   14898      Ob       1     SIL   O02f7       1     -1.05    15.999
   14899      Ob       1     SIL   O02f8       1     -1.05    15.999
   14900      Ob       1     SIL   O02f9       1     -1.05    15.999
   14901      Ob       1     SIL   O02fA       1     -1.05    15.999
   14902      Ob       1     SIL   O02fB       1     -1.05    15.999
   14903      Ob       1     SIL   O02fC       1     -1.05    15.999
   14904      Si       1     SIL   Si1Kc       1       2.1    28.086
   14905      Si       1     SIL   Si1Kd       1       2.1    28.086
   14906      Si       1     SIL   Si1Ke       1       2.1    28.086
   14907      Ob       1     SIL   O02fD       1     -1.05    15.999
   14908      Ob       1     SIL   O02fE       1     -1.05    15.999
   14909      Ob       1     SIL   O02fF       1     -1.05    15.999
   14910      Ob       1     SIL   O02fG       1     -1.05    15.999
   14911      Ob       1     SIL   O02fH       1     -1.05    15.999
   14912      Ob       1     SIL   O02fI       1     -1.05    15.999
   14913      Si       1     SIL   Si1Kf       1       2.1    28.086
   14914      Si       1     SIL   Si1Kg       1       2.1    28.086
   14915      Si       1     SIL   Si1Kh       1       2.1    28.086
   14916      Ob       1     SIL   O02fJ       1     -1.05    15.999
   14917      Ob       1     SIL   O02fK       1     -1.05    15.999
   14918      Ob       1     SIL   O02fL       1     -1.05    15.999
   14919      Ob       1     SIL   O02fM       1     -1.05    15.999
   14920      Ob       1     SIL   O02fN       1     -1.05    15.999
   14921      Ob       1     SIL   O02fO       1     -1.05    15.999
   14922      Si       1     SIL   Si1Ki       1       2.1    28.086
   14923      Si       1     SIL   Si1Kj       1       2.1    28.086
   14924      Si       1     SIL   Si1Kk       1       2.1    28.086
   14925      Ob       1     SIL   O02fP       1     -1.05    15.999
   14926      Ob       1     SIL   O02fQ       1     -1.05    15.999
   14927      Ob       1     SIL   O02fR       1     -1.05    15.999
   14928      Ob       1     SIL   O02fS       1     -1.05    15.999
   14929      Ob       1     SIL   O02fT       1     -1.05    15.999
   14930      Ob       1     SIL   O02fU       1     -1.05    15.999
   14931      Si       1     SIL   Si1Kl       1       2.1    28.086
   14932      Si       1     SIL   Si1Km       1       2.1    28.086
   14933      Si       1     SIL   Si1Kn       1       2.1    28.086
   14934      Ob       1     SIL   O02fV       1     -1.05    15.999
   14935      Ob       1     SIL   O02fW       1     -1.05    15.999
   14936      Ob       1     SIL   O02fX       1     -1.05    15.999
   14937      Ob       1     SIL   O02fY       1     -1.05    15.999
   14938      Ob       1     SIL   O02fZ       1     -1.05    15.999
   14939      Ob       1     SIL   O02fa       1     -1.05    15.999
   14940      Si       1     SIL   Si1Ko       1       2.1    28.086
   14941      Si       1     SIL   Si1Kp       1       2.1    28.086
   14942      Si       1     SIL   Si1Kq       1       2.1    28.086
   14943      Ob       1     SIL   O02fb       1     -1.05    15.999
   14944      Ob       1     SIL   O02fc       1     -1.05    15.999
   14945      Ob       1     SIL   O02fd       1     -1.05    15.999
   14946      Ob       1     SIL   O02fe       1     -1.05    15.999
   14947      Ob       1     SIL   O02ff       1     -1.05    15.999
   14948      Ob       1     SIL   O02fg       1     -1.05    15.999
   14949      Si       1     SIL   Si1Kr       1       2.1    28.086
   14950      Si       1     SIL   Si1Ks       1       2.1    28.086
   14951      Si       1     SIL   Si1Kt       1       2.1    28.086
   14952      Ob       1     SIL   O02fh       1     -1.05    15.999
   14953      Ob       1     SIL   O02fi       1     -1.05    15.999
   14954      Ob       1     SIL   O02fj       1     -1.05    15.999
   14955      Ob       1     SIL   O02fk       1     -1.05    15.999
   14956      Ob       1     SIL   O02fl       1     -1.05    15.999
   14957      Ob       1     SIL   O02fm       1     -1.05    15.999
   14958      Si       1     SIL   Si1Ku       1       2.1    28.086
   14959      Si       1     SIL   Si1Kv       1       2.1    28.086
   14960      Si       1     SIL   Si1Kw       1       2.1    28.086
   14961      Ob       1     SIL   O02fn       1     -1.05    15.999
   14962      Ob       1     SIL   O02fo       1     -1.05    15.999
   14963      Ob       1     SIL   O02fp       1     -1.05    15.999
   14964      Ob       1     SIL   O02fq       1     -1.05    15.999
   14965      Ob       1     SIL   O02fr       1     -1.05    15.999
   14966      Ob       1     SIL   O02fs       1     -1.05    15.999
   14967      Si       1     SIL   Si1Kx       1       2.1    28.086
   14968      Si       1     SIL   Si1Ky       1       2.1    28.086
   14969      Si       1     SIL   Si1Kz       1       2.1    28.086
   14970      Ob       1     SIL   O02ft       1     -1.05    15.999
   14971      Ob       1     SIL   O02fu       1     -1.05    15.999
   14972      Ob       1     SIL   O02fv       1     -1.05    15.999
   14973      Ob       1     SIL   O02fw       1     -1.05    15.999
   14974      Ob       1     SIL   O02fx       1     -1.05    15.999
   14975      Ob       1     SIL   O02fy       1     -1.05    15.999
   14976      Si       1     SIL   Si1L0       1       2.1    28.086
   14977      Si       1     SIL   Si1L1       1       2.1    28.086
   14978      Si       1     SIL   Si1L2       1       2.1    28.086
   14979      Ob       1     SIL   O02fz       1     -1.05    15.999
   14980      Ob       1     SIL   O02g0       1     -1.05    15.999
   14981      Ob       1     SIL   O02g1       1     -1.05    15.999
   14982      Ob       1     SIL   O02g2       1     -1.05    15.999
   14983      Ob       1     SIL   O02g3       1     -1.05    15.999
   14984      Ob       1     SIL   O02g4       1     -1.05    15.999
   14985      Si       1     SIL   Si1L3       1       2.1    28.086
   14986      Si       1     SIL   Si1L4       1       2.1    28.086
   14987      Si       1     SIL   Si1L5       1       2.1    28.086
   14988      Ob       1     SIL   O02g5       1     -1.05    15.999
   14989      Ob       1     SIL   O02g6       1     -1.05    15.999
   14990      Ob       1     SIL   O02g7       1     -1.05    15.999
   14991      Ob       1     SIL   O02g8       1     -1.05    15.999
   14992      Ob       1     SIL   O02g9       1     -1.05    15.999
   14993      Ob       1     SIL   O02gA       1     -1.05    15.999
   14994      Si       1     SIL   Si1L6       1       2.1    28.086
   14995      Si       1     SIL   Si1L7       1       2.1    28.086
   14996      Si       1     SIL   Si1L8       1       2.1    28.086
   14997      Ob       1     SIL   O02gB       1     -1.05    15.999
   14998      Ob       1     SIL   O02gC       1     -1.05    15.999
   14999      Ob       1     SIL   O02gD       1     -1.05    15.999
   15000      Ob       1     SIL   O02gE       1     -1.05    15.999
   15001      Ob       1     SIL   O02gF       1     -1.05    15.999
   15002      Ob       1     SIL   O02gG       1     -1.05    15.999
   15003      Si       1     SIL   Si1L9       1       2.1    28.086
   15004      Si       1     SIL   Si1LA       1       2.1    28.086
   15005      Si       1     SIL   Si1LB       1       2.1    28.086
   15006      Ob       1     SIL   O02gH       1     -1.05    15.999
   15007      Ob       1     SIL   O02gI       1     -1.05    15.999
   15008      Ob       1     SIL   O02gJ       1     -1.05    15.999
   15009      Ob       1     SIL   O02gK       1     -1.05    15.999
   15010      Ob       1     SIL   O02gL       1     -1.05    15.999
   15011      Ob       1     SIL   O02gM       1     -1.05    15.999
   15012      Si       1     SIL   Si1LC       1       2.1    28.086
   15013      Si       1     SIL   Si1LD       1       2.1    28.086
   15014      Si       1     SIL   Si1LE       1       2.1    28.086
   15015      Ob       1     SIL   O02gN       1     -1.05    15.999
   15016      Ob       1     SIL   O02gO       1     -1.05    15.999
   15017      Ob       1     SIL   O02gP       1     -1.05    15.999
   15018      Ob       1     SIL   O02gQ       1     -1.05    15.999
   15019      Ob       1     SIL   O02gR       1     -1.05    15.999
   15020      Ob       1     SIL   O02gS       1     -1.05    15.999
   15021      Si       1     SIL   Si1LF       1       2.1    28.086
   15022      Si       1     SIL   Si1LG       1       2.1    28.086
   15023      Si       1     SIL   Si1LH       1       2.1    28.086
   15024      Ob       1     SIL   O02gT       1     -1.05    15.999
   15025      Ob       1     SIL   O02gU       1     -1.05    15.999
   15026      Ob       1     SIL   O02gV       1     -1.05    15.999
   15027      Ob       1     SIL   O02gW       1     -1.05    15.999
   15028      Ob       1     SIL   O02gX       1     -1.05    15.999
   15029      Ob       1     SIL   O02gY       1     -1.05    15.999
   15030      Si       1     SIL   Si1LI       1       2.1    28.086
   15031      Si       1     SIL   Si1LJ       1       2.1    28.086
   15032      Si       1     SIL   Si1LK       1       2.1    28.086
   15033      Ob       1     SIL   O02gZ       1     -1.05    15.999
   15034      Ob       1     SIL   O02ga       1     -1.05    15.999
   15035      Ob       1     SIL   O02gb       1     -1.05    15.999
   15036      Ob       1     SIL   O02gc       1     -1.05    15.999
   15037      Ob       1     SIL   O02gd       1     -1.05    15.999
   15038      Ob       1     SIL   O02ge       1     -1.05    15.999
   15039      Si       1     SIL   Si1LL       1       2.1    28.086
   15040      Si       1     SIL   Si1LM       1       2.1    28.086
   15041      Si       1     SIL   Si1LN       1       2.1    28.086
   15042      Ob       1     SIL   O02gf       1     -1.05    15.999
   15043      Ob       1     SIL   O02gg       1     -1.05    15.999
   15044      Ob       1     SIL   O02gh       1     -1.05    15.999
   15045      Ob       1     SIL   O02gi       1     -1.05    15.999
   15046      Ob       1     SIL   O02gj       1     -1.05    15.999
   15047      Ob       1     SIL   O02gk       1     -1.05    15.999
   15048      Si       1     SIL   Si1LO       1       2.1    28.086
   15049      Si       1     SIL   Si1LP       1       2.1    28.086
   15050      Si       1     SIL   Si1LQ       1       2.1    28.086
   15051      Ob       1     SIL   O02gl       1     -1.05    15.999
   15052      Ob       1     SIL   O02gm       1     -1.05    15.999
   15053      Ob       1     SIL   O02gn       1     -1.05    15.999
   15054      Ob       1     SIL   O02go       1     -1.05    15.999
   15055      Ob       1     SIL   O02gp       1     -1.05    15.999
   15056      Ob       1     SIL   O02gq       1     -1.05    15.999
   15057      Si       1     SIL   Si1LR       1       2.1    28.086
   15058      Si       1     SIL   Si1LS       1       2.1    28.086
   15059      Si       1     SIL   Si1LT       1       2.1    28.086
   15060      Ob       1     SIL   O02gr       1     -1.05    15.999
   15061       O       1     SIL   O02gs       1    -0.525    15.999
   15062       O       1     SIL   O02gt       1    -0.525    15.999
   15063      Ob       1     SIL   O02gu       1     -1.05    15.999
   15064      Ob       1     SIL   O02gv       1     -1.05    15.999
   15065      Ob       1     SIL   O02gw       1     -1.05    15.999
   15066      Si       1     SIL   Si1LU       1       2.1    28.086
   15067      Si       1     SIL   Si1LV       1       2.1    28.086
   15068      Si       1     SIL   Si1LW       1       2.1    28.086
   15069      Ob       1     SIL   O02gx       1     -1.05    15.999
   15070      Ob       1     SIL   O02gy       1     -1.05    15.999
   15071      Ob       1     SIL   O02gz       1     -1.05    15.999
   15072      Ob       1     SIL   O02h0       1     -1.05    15.999
   15073      Ob       1     SIL   O02h1       1     -1.05    15.999
   15074      Ob       1     SIL   O02h2       1     -1.05    15.999
   15075      Si       1     SIL   Si1LX       1       2.1    28.086
   15076      Si       1     SIL   Si1LY       1       2.1    28.086
   15077      Si       1     SIL   Si1LZ       1       2.1    28.086
   15078      Ob       1     SIL   O02h3       1     -1.05    15.999
   15079      Ob       1     SIL   O02h4       1     -1.05    15.999
   15080      Ob       1     SIL   O02h5       1     -1.05    15.999
   15081      Ob       1     SIL   O02h6       1     -1.05    15.999
   15082      Ob       1     SIL   O02h7       1     -1.05    15.999
   15083      Ob       1     SIL   O02h8       1     -1.05    15.999
   15084      Si       1     SIL   Si1La       1       2.1    28.086
   15085      Si       1     SIL   Si1Lb       1       2.1    28.086
   15086      Si       1     SIL   Si1Lc       1       2.1    28.086
   15087      Ob       1     SIL   O02h9       1     -1.05    15.999
   15088      Ob       1     SIL   O02hA       1     -1.05    15.999
   15089      Ob       1     SIL   O02hB       1     -1.05    15.999
   15090      Ob       1     SIL   O02hC       1     -1.05    15.999
   15091      Ob       1     SIL   O02hD       1     -1.05    15.999
   15092      Ob       1     SIL   O02hE       1     -1.05    15.999
   15093      Si       1     SIL   Si1Ld       1       2.1    28.086
   15094      Si       1     SIL   Si1Le       1       2.1    28.086
   15095      Si       1     SIL   Si1Lf       1       2.1    28.086
   15096      Ob       1     SIL   O02hF       1     -1.05    15.999
   15097      Ob       1     SIL   O02hG       1     -1.05    15.999
   15098      Ob       1     SIL   O02hH       1     -1.05    15.999
   15099      Ob       1     SIL   O02hI       1     -1.05    15.999
   15100      Ob       1     SIL   O02hJ       1     -1.05    15.999
   15101      Ob       1     SIL   O02hK       1     -1.05    15.999
   15102      Si       1     SIL   Si1Lg       1       2.1    28.086
   15103      Si       1     SIL   Si1Lh       1       2.1    28.086
   15104      Si       1     SIL   Si1Li       1       2.1    28.086
   15105      Ob       1     SIL   O02hL       1     -1.05    15.999
   15106      Ob       1     SIL   O02hM       1     -1.05    15.999
   15107      Ob       1     SIL   O02hN       1     -1.05    15.999
   15108      Ob       1     SIL   O02hO       1     -1.05    15.999
   15109      Ob       1     SIL   O02hP       1     -1.05    15.999
   15110      Ob       1     SIL   O02hQ       1     -1.05    15.999
   15111      Si       1     SIL   Si1Lj       1       2.1    28.086
   15112      Si       1     SIL   Si1Lk       1       2.1    28.086
   15113      Si       1     SIL   Si1Ll       1       2.1    28.086
   15114      Ob       1     SIL   O02hR       1     -1.05    15.999
   15115      Ob       1     SIL   O02hS       1     -1.05    15.999
   15116      Ob       1     SIL   O02hT       1     -1.05    15.999
   15117      Ob       1     SIL   O02hU       1     -1.05    15.999
   15118      Ob       1     SIL   O02hV       1     -1.05    15.999
   15119      Ob       1     SIL   O02hW       1     -1.05    15.999
   15120      Si       1     SIL   Si1Lm       1       2.1    28.086
   15121      Si       1     SIL   Si1Ln       1       2.1    28.086
   15122      Si       1     SIL   Si1Lo       1       2.1    28.086
   15123      Ob       1     SIL   O02hX       1     -1.05    15.999
   15124      Ob       1     SIL   O02hY       1     -1.05    15.999
   15125      Ob       1     SIL   O02hZ       1     -1.05    15.999
   15126      Ob       1     SIL   O02ha       1     -1.05    15.999
   15127      Ob       1     SIL   O02hb       1     -1.05    15.999
   15128      Ob       1     SIL   O02hc       1     -1.05    15.999
   15129      Si       1     SIL   Si1Lp       1       2.1    28.086
   15130      Si       1     SIL   Si1Lq       1       2.1    28.086
   15131      Si       1     SIL   Si1Lr       1       2.1    28.086
   15132      Ob       1     SIL   O02hd       1     -1.05    15.999
   15133      Ob       1     SIL   O02he       1     -1.05    15.999
   15134      Ob       1     SIL   O02hf       1     -1.05    15.999
   15135      Ob       1     SIL   O02hg       1     -1.05    15.999
   15136      Ob       1     SIL   O02hh       1     -1.05    15.999
   15137      Ob       1     SIL   O02hi       1     -1.05    15.999
   15138      Si       1     SIL   Si1Ls       1       2.1    28.086
   15139      Si       1     SIL   Si1Lt       1       2.1    28.086
   15140      Si       1     SIL   Si1Lu       1       2.1    28.086
   15141      Ob       1     SIL   O02hj       1     -1.05    15.999
   15142      Ob       1     SIL   O02hk       1     -1.05    15.999
   15143      Ob       1     SIL   O02hl       1     -1.05    15.999
   15144      Ob       1     SIL   O02hm       1     -1.05    15.999
   15145      Ob       1     SIL   O02hn       1     -1.05    15.999
   15146      Ob       1     SIL   O02ho       1     -1.05    15.999
   15147      Si       1     SIL   Si1Lv       1       2.1    28.086
   15148      Si       1     SIL   Si1Lw       1       2.1    28.086
   15149      Si       1     SIL   Si1Lx       1       2.1    28.086
   15150      Ob       1     SIL   O02hp       1     -1.05    15.999
   15151      Ob       1     SIL   O02hq       1     -1.05    15.999
   15152      Ob       1     SIL   O02hr       1     -1.05    15.999
   15153      Ob       1     SIL   O02hs       1     -1.05    15.999
   15154      Ob       1     SIL   O02ht       1     -1.05    15.999
   15155      Ob       1     SIL   O02hu       1     -1.05    15.999
   15156      Si       1     SIL   Si1Ly       1       2.1    28.086
   15157      Si       1     SIL   Si1Lz       1       2.1    28.086
   15158      Si       1     SIL   Si1M0       1       2.1    28.086
   15159      Ob       1     SIL   O02hv       1     -1.05    15.999
   15160      Ob       1     SIL   O02hw       1     -1.05    15.999
   15161      Ob       1     SIL   O02hx       1     -1.05    15.999
   15162      Ob       1     SIL   O02hy       1     -1.05    15.999
   15163      Ob       1     SIL   O02hz       1     -1.05    15.999
   15164      Ob       1     SIL   O02i0       1     -1.05    15.999
   15165      Si       1     SIL   Si1M1       1       2.1    28.086
   15166      Si       1     SIL   Si1M2       1       2.1    28.086
   15167      Si       1     SIL   Si1M3       1       2.1    28.086
   15168      Ob       1     SIL   O02i1       1     -1.05    15.999
   15169      Ob       1     SIL   O02i2       1     -1.05    15.999
   15170      Ob       1     SIL   O02i3       1     -1.05    15.999
   15171      Ob       1     SIL   O02i4       1     -1.05    15.999
   15172      Ob       1     SIL   O02i5       1     -1.05    15.999
   15173      Ob       1     SIL   O02i6       1     -1.05    15.999
   15174      Si       1     SIL   Si1M4       1       2.1    28.086
   15175      Si       1     SIL   Si1M5       1       2.1    28.086
   15176      Si       1     SIL   Si1M6       1       2.1    28.086
   15177      Ob       1     SIL   O02i7       1     -1.05    15.999
   15178      Ob       1     SIL   O02i8       1     -1.05    15.999
   15179      Ob       1     SIL   O02i9       1     -1.05    15.999
   15180      Ob       1     SIL   O02iA       1     -1.05    15.999
   15181      Ob       1     SIL   O02iB       1     -1.05    15.999
   15182      Ob       1     SIL   O02iC       1     -1.05    15.999
   15183      Si       1     SIL   Si1M7       1       2.1    28.086
   15184      Si       1     SIL   Si1M8       1       2.1    28.086
   15185      Si       1     SIL   Si1M9       1       2.1    28.086
   15186      Ob       1     SIL   O02iD       1     -1.05    15.999
   15187      Ob       1     SIL   O02iE       1     -1.05    15.999
   15188      Ob       1     SIL   O02iF       1     -1.05    15.999
   15189      Ob       1     SIL   O02iG       1     -1.05    15.999
   15190      Ob       1     SIL   O02iH       1     -1.05    15.999
   15191      Ob       1     SIL   O02iI       1     -1.05    15.999
   15192      Si       1     SIL   Si1MA       1       2.1    28.086
   15193      Si       1     SIL   Si1MB       1       2.1    28.086
   15194      Si       1     SIL   Si1MC       1       2.1    28.086
   15195      Ob       1     SIL   O02iJ       1     -1.05    15.999
   15196      Ob       1     SIL   O02iK       1     -1.05    15.999
   15197      Ob       1     SIL   O02iL       1     -1.05    15.999
   15198      Ob       1     SIL   O02iM       1     -1.05    15.999
   15199      Ob       1     SIL   O02iN       1     -1.05    15.999
   15200      Ob       1     SIL   O02iO       1     -1.05    15.999
   15201      Si       1     SIL   Si1MD       1       2.1    28.086
   15202      Si       1     SIL   Si1ME       1       2.1    28.086
   15203      Si       1     SIL   Si1MF       1       2.1    28.086
   15204      Ob       1     SIL   O02iP       1     -1.05    15.999
   15205      Ob       1     SIL   O02iQ       1     -1.05    15.999
   15206      Ob       1     SIL   O02iR       1     -1.05    15.999
   15207      Ob       1     SIL   O02iS       1     -1.05    15.999
   15208      Ob       1     SIL   O02iT       1     -1.05    15.999
   15209      Ob       1     SIL   O02iU       1     -1.05    15.999
   15210      Si       1     SIL   Si1MG       1       2.1    28.086
   15211      Si       1     SIL   Si1MH       1       2.1    28.086
   15212      Si       1     SIL   Si1MI       1       2.1    28.086
   15213      Ob       1     SIL   O02iV       1     -1.05    15.999
   15214      Ob       1     SIL   O02iW       1     -1.05    15.999
   15215      Ob       1     SIL   O02iX       1     -1.05    15.999
   15216      Ob       1     SIL   O02iY       1     -1.05    15.999
   15217      Ob       1     SIL   O02iZ       1     -1.05    15.999
   15218      Ob       1     SIL   O02ia       1     -1.05    15.999
   15219      Si       1     SIL   Si1MJ       1       2.1    28.086
   15220      Si       1     SIL   Si1MK       1       2.1    28.086
   15221      Si       1     SIL   Si1ML       1       2.1    28.086
   15222      Ob       1     SIL   O02ib       1     -1.05    15.999
   15223      Ob       1     SIL   O02ic       1     -1.05    15.999
   15224      Ob       1     SIL   O02id       1     -1.05    15.999
   15225      Ob       1     SIL   O02ie       1     -1.05    15.999
   15226      Ob       1     SIL   O02if       1     -1.05    15.999
   15227      Ob       1     SIL   O02ig       1     -1.05    15.999
   15228      Si       1     SIL   Si1MM       1       2.1    28.086
   15229      Si       1     SIL   Si1MN       1       2.1    28.086
   15230      Si       1     SIL   Si1MO       1       2.1    28.086
   15231      Ob       1     SIL   O02ih       1     -1.05    15.999
   15232      Ob       1     SIL   O02ii       1     -1.05    15.999
   15233      Ob       1     SIL   O02ij       1     -1.05    15.999
   15234      Ob       1     SIL   O02ik       1     -1.05    15.999
   15235      Ob       1     SIL   O02il       1     -1.05    15.999
   15236      Ob       1     SIL   O02im       1     -1.05    15.999
   15237      Si       1     SIL   Si1MP       1       2.1    28.086
   15238      Si       1     SIL   Si1MQ       1       2.1    28.086
   15239      Si       1     SIL   Si1MR       1       2.1    28.086
   15240      Ob       1     SIL   O02in       1     -1.05    15.999
   15241      Ob       1     SIL   O02io       1     -1.05    15.999
   15242      Ob       1     SIL   O02ip       1     -1.05    15.999
   15243      Ob       1     SIL   O02iq       1     -1.05    15.999
   15244      Ob       1     SIL   O02ir       1     -1.05    15.999
   15245      Ob       1     SIL   O02is       1     -1.05    15.999
   15246      Si       1     SIL   Si1MS       1       2.1    28.086
   15247      Si       1     SIL   Si1MT       1       2.1    28.086
   15248      Si       1     SIL   Si1MU       1       2.1    28.086
   15249      Ob       1     SIL   O02it       1     -1.05    15.999
   15250      Ob       1     SIL   O02iu       1     -1.05    15.999
   15251      Ob       1     SIL   O02iv       1     -1.05    15.999
   15252      Ob       1     SIL   O02iw       1     -1.05    15.999
   15253      Ob       1     SIL   O02ix       1     -1.05    15.999
   15254      Ob       1     SIL   O02iy       1     -1.05    15.999
   15255      Si       1     SIL   Si1MV       1       2.1    28.086
   15256      Si       1     SIL   Si1MW       1       2.1    28.086
   15257      Si       1     SIL   Si1MX       1       2.1    28.086
   15258      Ob       1     SIL   O02iz       1     -1.05    15.999
   15259      Ob       1     SIL   O02j0       1     -1.05    15.999
   15260      Ob       1     SIL   O02j1       1     -1.05    15.999
   15261      Ob       1     SIL   O02j2       1     -1.05    15.999
   15262      Ob       1     SIL   O02j3       1     -1.05    15.999
   15263      Ob       1     SIL   O02j4       1     -1.05    15.999
   15264      Si       1     SIL   Si1MY       1       2.1    28.086
   15265      Si       1     SIL   Si1MZ       1       2.1    28.086
   15266      Si       1     SIL   Si1Ma       1       2.1    28.086
   15267      Ob       1     SIL   O02j5       1     -1.05    15.999
   15268       O       1     SIL   O02j6       1    -0.525    15.999
   15269       O       1     SIL   O02j7       1    -0.525    15.999
   15270      Ob       1     SIL   O02j8       1     -1.05    15.999
   15271      Ob       1     SIL   O02j9       1     -1.05    15.999
   15272      Ob       1     SIL   O02jA       1     -1.05    15.999
   15273      Si       1     SIL   Si1Mb       1       2.1    28.086
   15274      Si       1     SIL   Si1Mc       1       2.1    28.086
   15275      Si       1     SIL   Si1Md       1       2.1    28.086
   15276      Ob       1     SIL   O02jB       1     -1.05    15.999
   15277      Ob       1     SIL   O02jC       1     -1.05    15.999
   15278      Ob       1     SIL   O02jD       1     -1.05    15.999
   15279      Ob       1     SIL   O02jE       1     -1.05    15.999
   15280      Ob       1     SIL   O02jF       1     -1.05    15.999
   15281      Ob       1     SIL   O02jG       1     -1.05    15.999
   15282      Si       1     SIL   Si1Me       1       2.1    28.086
   15283      Si       1     SIL   Si1Mf       1       2.1    28.086
   15284      Si       1     SIL   Si1Mg       1       2.1    28.086
   15285      Ob       1     SIL   O02jH       1     -1.05    15.999
   15286      Ob       1     SIL   O02jI       1     -1.05    15.999
   15287      Ob       1     SIL   O02jJ       1     -1.05    15.999
   15288      Ob       1     SIL   O02jK       1     -1.05    15.999
   15289      Ob       1     SIL   O02jL       1     -1.05    15.999
   15290      Ob       1     SIL   O02jM       1     -1.05    15.999
   15291      Si       1     SIL   Si1Mh       1       2.1    28.086
   15292      Si       1     SIL   Si1Mi       1       2.1    28.086
   15293      Si       1     SIL   Si1Mj       1       2.1    28.086
   15294      Ob       1     SIL   O02jN       1     -1.05    15.999
   15295      Ob       1     SIL   O02jO       1     -1.05    15.999
   15296      Ob       1     SIL   O02jP       1     -1.05    15.999
   15297      Ob       1     SIL   O02jQ       1     -1.05    15.999
   15298      Ob       1     SIL   O02jR       1     -1.05    15.999
   15299      Ob       1     SIL   O02jS       1     -1.05    15.999
   15300      Si       1     SIL   Si1Mk       1       2.1    28.086
   15301      Si       1     SIL   Si1Ml       1       2.1    28.086
   15302      Si       1     SIL   Si1Mm       1       2.1    28.086
   15303      Ob       1     SIL   O02jT       1     -1.05    15.999
   15304      Ob       1     SIL   O02jU       1     -1.05    15.999
   15305      Ob       1     SIL   O02jV       1     -1.05    15.999
   15306      Ob       1     SIL   O02jW       1     -1.05    15.999
   15307      Ob       1     SIL   O02jX       1     -1.05    15.999
   15308      Ob       1     SIL   O02jY       1     -1.05    15.999
   15309      Si       1     SIL   Si1Mn       1       2.1    28.086
   15310      Si       1     SIL   Si1Mo       1       2.1    28.086
   15311      Si       1     SIL   Si1Mp       1       2.1    28.086
   15312      Ob       1     SIL   O02jZ       1     -1.05    15.999
   15313      Ob       1     SIL   O02ja       1     -1.05    15.999
   15314      Ob       1     SIL   O02jb       1     -1.05    15.999
   15315      Ob       1     SIL   O02jc       1     -1.05    15.999
   15316      Ob       1     SIL   O02jd       1     -1.05    15.999
   15317      Ob       1     SIL   O02je       1     -1.05    15.999
   15318      Si       1     SIL   Si1Mq       1       2.1    28.086
   15319      Si       1     SIL   Si1Mr       1       2.1    28.086
   15320      Si       1     SIL   Si1Ms       1       2.1    28.086
   15321      Ob       1     SIL   O02jf       1     -1.05    15.999
   15322      Ob       1     SIL   O02jg       1     -1.05    15.999
   15323      Ob       1     SIL   O02jh       1     -1.05    15.999
   15324      Ob       1     SIL   O02ji       1     -1.05    15.999
   15325      Ob       1     SIL   O02jj       1     -1.05    15.999
   15326      Ob       1     SIL   O02jk       1     -1.05    15.999
   15327      Si       1     SIL   Si1Mt       1       2.1    28.086
   15328      Si       1     SIL   Si1Mu       1       2.1    28.086
   15329      Si       1     SIL   Si1Mv       1       2.1    28.086
   15330      Ob       1     SIL   O02jl       1     -1.05    15.999
   15331      Ob       1     SIL   O02jm       1     -1.05    15.999
   15332      Ob       1     SIL   O02jn       1     -1.05    15.999
   15333      Ob       1     SIL   O02jo       1     -1.05    15.999
   15334      Ob       1     SIL   O02jp       1     -1.05    15.999
   15335      Ob       1     SIL   O02jq       1     -1.05    15.999
   15336      Si       1     SIL   Si1Mw       1       2.1    28.086
   15337      Si       1     SIL   Si1Mx       1       2.1    28.086
   15338      Si       1     SIL   Si1My       1       2.1    28.086
   15339      Ob       1     SIL   O02jr       1     -1.05    15.999
   15340      Ob       1     SIL   O02js       1     -1.05    15.999
   15341      Ob       1     SIL   O02jt       1     -1.05    15.999
   15342      Ob       1     SIL   O02ju       1     -1.05    15.999
   15343      Ob       1     SIL   O02jv       1     -1.05    15.999
   15344      Ob       1     SIL   O02jw       1     -1.05    15.999
   15345      Si       1     SIL   Si1Mz       1       2.1    28.086
   15346      Si       1     SIL   Si1N0       1       2.1    28.086
   15347      Si       1     SIL   Si1N1       1       2.1    28.086
   15348      Ob       1     SIL   O02jx       1     -1.05    15.999
   15349      Ob       1     SIL   O02jy       1     -1.05    15.999
   15350      Ob       1     SIL   O02jz       1     -1.05    15.999
   15351      Ob       1     SIL   O02k0       1     -1.05    15.999
   15352      Ob       1     SIL   O02k1       1     -1.05    15.999
   15353      Ob       1     SIL   O02k2       1     -1.05    15.999
   15354      Si       1     SIL   Si1N2       1       2.1    28.086
   15355      Si       1     SIL   Si1N3       1       2.1    28.086
   15356      Si       1     SIL   Si1N4       1       2.1    28.086
   15357      Ob       1     SIL   O02k3       1     -1.05    15.999
   15358      Ob       1     SIL   O02k4       1     -1.05    15.999
   15359      Ob       1     SIL   O02k5       1     -1.05    15.999
   15360      Ob       1     SIL   O02k6       1     -1.05    15.999
   15361      Ob       1     SIL   O02k7       1     -1.05    15.999
   15362      Ob       1     SIL   O02k8       1     -1.05    15.999
   15363      Si       1     SIL   Si1N5       1       2.1    28.086
   15364      Si       1     SIL   Si1N6       1       2.1    28.086
   15365      Si       1     SIL   Si1N7       1       2.1    28.086
   15366      Ob       1     SIL   O02k9       1     -1.05    15.999
   15367      Ob       1     SIL   O02kA       1     -1.05    15.999
   15368      Ob       1     SIL   O02kB       1     -1.05    15.999
   15369      Ob       1     SIL   O02kC       1     -1.05    15.999
   15370      Ob       1     SIL   O02kD       1     -1.05    15.999
   15371      Ob       1     SIL   O02kE       1     -1.05    15.999
   15372      Si       1     SIL   Si1N8       1       2.1    28.086
   15373      Si       1     SIL   Si1N9       1       2.1    28.086
   15374      Si       1     SIL   Si1NA       1       2.1    28.086
   15375      Ob       1     SIL   O02kF       1     -1.05    15.999
   15376      Ob       1     SIL   O02kG       1     -1.05    15.999
   15377      Ob       1     SIL   O02kH       1     -1.05    15.999
   15378      Ob       1     SIL   O02kI       1     -1.05    15.999
   15379      Ob       1     SIL   O02kJ       1     -1.05    15.999
   15380      Ob       1     SIL   O02kK       1     -1.05    15.999
   15381      Si       1     SIL   Si1NB       1       2.1    28.086
   15382      Si       1     SIL   Si1NC       1       2.1    28.086
   15383      Si       1     SIL   Si1ND       1       2.1    28.086
   15384      Ob       1     SIL   O02kL       1     -1.05    15.999
   15385      Ob       1     SIL   O02kM       1     -1.05    15.999
   15386      Ob       1     SIL   O02kN       1     -1.05    15.999
   15387      Ob       1     SIL   O02kO       1     -1.05    15.999
   15388      Ob       1     SIL   O02kP       1     -1.05    15.999
   15389      Ob       1     SIL   O02kQ       1     -1.05    15.999
   15390      Si       1     SIL   Si1NE       1       2.1    28.086
   15391      Si       1     SIL   Si1NF       1       2.1    28.086
   15392      Si       1     SIL   Si1NG       1       2.1    28.086
   15393      Ob       1     SIL   O02kR       1     -1.05    15.999
   15394      Ob       1     SIL   O02kS       1     -1.05    15.999
   15395      Ob       1     SIL   O02kT       1     -1.05    15.999
   15396      Ob       1     SIL   O02kU       1     -1.05    15.999
   15397      Ob       1     SIL   O02kV       1     -1.05    15.999
   15398      Ob       1     SIL   O02kW       1     -1.05    15.999
   15399      Si       1     SIL   Si1NH       1       2.1    28.086
   15400      Si       1     SIL   Si1NI       1       2.1    28.086
   15401      Si       1     SIL   Si1NJ       1       2.1    28.086
   15402      Ob       1     SIL   O02kX       1     -1.05    15.999
   15403      Ob       1     SIL   O02kY       1     -1.05    15.999
   15404      Ob       1     SIL   O02kZ       1     -1.05    15.999
   15405      Ob       1     SIL   O02ka       1     -1.05    15.999
   15406      Ob       1     SIL   O02kb       1     -1.05    15.999
   15407      Ob       1     SIL   O02kc       1     -1.05    15.999
   15408      Si       1     SIL   Si1NK       1       2.1    28.086
   15409      Si       1     SIL   Si1NL       1       2.1    28.086
   15410      Si       1     SIL   Si1NM       1       2.1    28.086
   15411      Ob       1     SIL   O02kd       1     -1.05    15.999
   15412      Ob       1     SIL   O02ke       1     -1.05    15.999
   15413      Ob       1     SIL   O02kf       1     -1.05    15.999
   15414      Ob       1     SIL   O02kg       1     -1.05    15.999
   15415      Ob       1     SIL   O02kh       1     -1.05    15.999
   15416      Ob       1     SIL   O02ki       1     -1.05    15.999
   15417      Si       1     SIL   Si1NN       1       2.1    28.086
   15418      Si       1     SIL   Si1NO       1       2.1    28.086
   15419      Si       1     SIL   Si1NP       1       2.1    28.086
   15420      Ob       1     SIL   O02kj       1     -1.05    15.999
   15421      Ob       1     SIL   O02kk       1     -1.05    15.999
   15422      Ob       1     SIL   O02kl       1     -1.05    15.999
   15423      Ob       1     SIL   O02km       1     -1.05    15.999
   15424      Ob       1     SIL   O02kn       1     -1.05    15.999
   15425      Ob       1     SIL   O02ko       1     -1.05    15.999
   15426      Si       1     SIL   Si1NQ       1       2.1    28.086
   15427      Si       1     SIL   Si1NR       1       2.1    28.086
   15428      Si       1     SIL   Si1NS       1       2.1    28.086
   15429      Ob       1     SIL   O02kp       1     -1.05    15.999
   15430      Ob       1     SIL   O02kq       1     -1.05    15.999
   15431      Ob       1     SIL   O02kr       1     -1.05    15.999
   15432      Ob       1     SIL   O02ks       1     -1.05    15.999
   15433      Ob       1     SIL   O02kt       1     -1.05    15.999
   15434      Ob       1     SIL   O02ku       1     -1.05    15.999
   15435      Si       1     SIL   Si1NT       1       2.1    28.086
   15436      Si       1     SIL   Si1NU       1       2.1    28.086
   15437      Si       1     SIL   Si1NV       1       2.1    28.086
   15438      Ob       1     SIL   O02kv       1     -1.05    15.999
   15439      Ob       1     SIL   O02kw       1     -1.05    15.999
   15440      Ob       1     SIL   O02kx       1     -1.05    15.999
   15441      Ob       1     SIL   O02ky       1     -1.05    15.999
   15442      Ob       1     SIL   O02kz       1     -1.05    15.999
   15443      Ob       1     SIL   O02l0       1     -1.05    15.999
   15444      Si       1     SIL   Si1NW       1       2.1    28.086
   15445      Si       1     SIL   Si1NX       1       2.1    28.086
   15446      Si       1     SIL   Si1NY       1       2.1    28.086
   15447      Ob       1     SIL   O02l1       1     -1.05    15.999
   15448      Ob       1     SIL   O02l2       1     -1.05    15.999
   15449      Ob       1     SIL   O02l3       1     -1.05    15.999
   15450      Ob       1     SIL   O02l4       1     -1.05    15.999
   15451      Ob       1     SIL   O02l5       1     -1.05    15.999
   15452      Ob       1     SIL   O02l6       1     -1.05    15.999
   15453      Si       1     SIL   Si1NZ       1       2.1    28.086
   15454      Si       1     SIL   Si1Na       1       2.1    28.086
   15455      Si       1     SIL   Si1Nb       1       2.1    28.086
   15456      Ob       1     SIL   O02l7       1     -1.05    15.999
   15457      Ob       1     SIL   O02l8       1     -1.05    15.999
   15458      Ob       1     SIL   O02l9       1     -1.05    15.999
   15459      Ob       1     SIL   O02lA       1     -1.05    15.999
   15460      Ob       1     SIL   O02lB       1     -1.05    15.999
   15461      Ob       1     SIL   O02lC       1     -1.05    15.999
   15462      Si       1     SIL   Si1Nc       1       2.1    28.086
   15463      Si       1     SIL   Si1Nd       1       2.1    28.086
   15464      Si       1     SIL   Si1Ne       1       2.1    28.086
   15465      Ob       1     SIL   O02lD       1     -1.05    15.999
   15466      Ob       1     SIL   O02lE       1     -1.05    15.999
   15467      Ob       1     SIL   O02lF       1     -1.05    15.999
   15468      Ob       1     SIL   O02lG       1     -1.05    15.999
   15469      Ob       1     SIL   O02lH       1     -1.05    15.999
   15470      Ob       1     SIL   O02lI       1     -1.05    15.999
   15471      Si       1     SIL   Si1Nf       1       2.1    28.086
   15472      Si       1     SIL   Si1Ng       1       2.1    28.086
   15473      Si       1     SIL   Si1Nh       1       2.1    28.086
   15474      Ob       1     SIL   O02lJ       1     -1.05    15.999
   15475       O       1     SIL   O02lK       1    -0.525    15.999
   15476       O       1     SIL   O02lL       1    -0.525    15.999
   15477      Ob       1     SIL   O02lM       1     -1.05    15.999
   15478      Ob       1     SIL   O02lN       1     -1.05    15.999
   15479      Ob       1     SIL   O02lO       1     -1.05    15.999
   15480      Si       1     SIL   Si1Ni       1       2.1    28.086
   15481      Si       1     SIL   Si1Nj       1       2.1    28.086
   15482      Si       1     SIL   Si1Nk       1       2.1    28.086
   15483      Ob       1     SIL   O02lP       1     -1.05    15.999
   15484      Ob       1     SIL   O02lQ       1     -1.05    15.999
   15485      Ob       1     SIL   O02lR       1     -1.05    15.999
   15486      Ob       1     SIL   O02lS       1     -1.05    15.999
   15487      Ob       1     SIL   O02lT       1     -1.05    15.999
   15488      Ob       1     SIL   O02lU       1     -1.05    15.999
   15489      Si       1     SIL   Si1Nl       1       2.1    28.086
   15490      Si       1     SIL   Si1Nm       1       2.1    28.086
   15491      Si       1     SIL   Si1Nn       1       2.1    28.086
   15492      Ob       1     SIL   O02lV       1     -1.05    15.999
   15493      Ob       1     SIL   O02lW       1     -1.05    15.999
   15494      Ob       1     SIL   O02lX       1     -1.05    15.999
   15495      Ob       1     SIL   O02lY       1     -1.05    15.999
   15496      Ob       1     SIL   O02lZ       1     -1.05    15.999
   15497      Ob       1     SIL   O02la       1     -1.05    15.999
   15498      Si       1     SIL   Si1No       1       2.1    28.086
   15499      Si       1     SIL   Si1Np       1       2.1    28.086
   15500      Si       1     SIL   Si1Nq       1       2.1    28.086
   15501      Ob       1     SIL   O02lb       1     -1.05    15.999
   15502      Ob       1     SIL   O02lc       1     -1.05    15.999
   15503      Ob       1     SIL   O02ld       1     -1.05    15.999
   15504      Ob       1     SIL   O02le       1     -1.05    15.999
   15505      Ob       1     SIL   O02lf       1     -1.05    15.999
   15506      Ob       1     SIL   O02lg       1     -1.05    15.999
   15507      Si       1     SIL   Si1Nr       1       2.1    28.086
   15508      Si       1     SIL   Si1Ns       1       2.1    28.086
   15509      Si       1     SIL   Si1Nt       1       2.1    28.086
   15510      Ob       1     SIL   O02lh       1     -1.05    15.999
   15511      Ob       1     SIL   O02li       1     -1.05    15.999
   15512      Ob       1     SIL   O02lj       1     -1.05    15.999
   15513      Ob       1     SIL   O02lk       1     -1.05    15.999
   15514      Ob       1     SIL   O02ll       1     -1.05    15.999
   15515      Ob       1     SIL   O02lm       1     -1.05    15.999
   15516      Si       1     SIL   Si1Nu       1       2.1    28.086
   15517      Si       1     SIL   Si1Nv       1       2.1    28.086
   15518      Si       1     SIL   Si1Nw       1       2.1    28.086
   15519      Ob       1     SIL   O02ln       1     -1.05    15.999
   15520      Ob       1     SIL   O02lo       1     -1.05    15.999
   15521      Ob       1     SIL   O02lp       1     -1.05    15.999
   15522      Ob       1     SIL   O02lq       1     -1.05    15.999
   15523      Ob       1     SIL   O02lr       1     -1.05    15.999
   15524      Ob       1     SIL   O02ls       1     -1.05    15.999
   15525      Si       1     SIL   Si1Nx       1       2.1    28.086
   15526      Si       1     SIL   Si1Ny       1       2.1    28.086
   15527      Si       1     SIL   Si1Nz       1       2.1    28.086
   15528      Ob       1     SIL   O02lt       1     -1.05    15.999
   15529      Ob       1     SIL   O02lu       1     -1.05    15.999
   15530      Ob       1     SIL   O02lv       1     -1.05    15.999
   15531      Ob       1     SIL   O02lw       1     -1.05    15.999
   15532      Ob       1     SIL   O02lx       1     -1.05    15.999
   15533      Ob       1     SIL   O02ly       1     -1.05    15.999
   15534      Si       1     SIL   Si1O0       1       2.1    28.086
   15535      Si       1     SIL   Si1O1       1       2.1    28.086
   15536      Si       1     SIL   Si1O2       1       2.1    28.086
   15537      Ob       1     SIL   O02lz       1     -1.05    15.999
   15538      Ob       1     SIL   O02m0       1     -1.05    15.999
   15539      Ob       1     SIL   O02m1       1     -1.05    15.999
   15540      Ob       1     SIL   O02m2       1     -1.05    15.999
   15541      Ob       1     SIL   O02m3       1     -1.05    15.999
   15542      Ob       1     SIL   O02m4       1     -1.05    15.999
   15543      Si       1     SIL   Si1O3       1       2.1    28.086
   15544      Si       1     SIL   Si1O4       1       2.1    28.086
   15545      Si       1     SIL   Si1O5       1       2.1    28.086
   15546      Ob       1     SIL   O02m5       1     -1.05    15.999
   15547      Ob       1     SIL   O02m6       1     -1.05    15.999
   15548      Ob       1     SIL   O02m7       1     -1.05    15.999
   15549      Ob       1     SIL   O02m8       1     -1.05    15.999
   15550      Ob       1     SIL   O02m9       1     -1.05    15.999
   15551      Ob       1     SIL   O02mA       1     -1.05    15.999
   15552      Si       1     SIL   Si1O6       1       2.1    28.086
   15553      Si       1     SIL   Si1O7       1       2.1    28.086
   15554      Si       1     SIL   Si1O8       1       2.1    28.086
   15555      Ob       1     SIL   O02mB       1     -1.05    15.999
   15556      Ob       1     SIL   O02mC       1     -1.05    15.999
   15557      Ob       1     SIL   O02mD       1     -1.05    15.999
   15558      Ob       1     SIL   O02mE       1     -1.05    15.999
   15559      Ob       1     SIL   O02mF       1     -1.05    15.999
   15560      Ob       1     SIL   O02mG       1     -1.05    15.999
   15561      Si       1     SIL   Si1O9       1       2.1    28.086
   15562      Si       1     SIL   Si1OA       1       2.1    28.086
   15563      Si       1     SIL   Si1OB       1       2.1    28.086
   15564      Ob       1     SIL   O02mH       1     -1.05    15.999
   15565      Ob       1     SIL   O02mI       1     -1.05    15.999
   15566      Ob       1     SIL   O02mJ       1     -1.05    15.999
   15567      Ob       1     SIL   O02mK       1     -1.05    15.999
   15568      Ob       1     SIL   O02mL       1     -1.05    15.999
   15569      Ob       1     SIL   O02mM       1     -1.05    15.999
   15570      Si       1     SIL   Si1OC       1       2.1    28.086
   15571      Si       1     SIL   Si1OD       1       2.1    28.086
   15572      Si       1     SIL   Si1OE       1       2.1    28.086
   15573      Ob       1     SIL   O02mN       1     -1.05    15.999
   15574      Ob       1     SIL   O02mO       1     -1.05    15.999
   15575      Ob       1     SIL   O02mP       1     -1.05    15.999
   15576      Ob       1     SIL   O02mQ       1     -1.05    15.999
   15577      Ob       1     SIL   O02mR       1     -1.05    15.999
   15578      Ob       1     SIL   O02mS       1     -1.05    15.999
   15579      Si       1     SIL   Si1OF       1       2.1    28.086
   15580      Si       1     SIL   Si1OG       1       2.1    28.086
   15581      Si       1     SIL   Si1OH       1       2.1    28.086
   15582      Ob       1     SIL   O02mT       1     -1.05    15.999
   15583      Ob       1     SIL   O02mU       1     -1.05    15.999
   15584      Ob       1     SIL   O02mV       1     -1.05    15.999
   15585      Ob       1     SIL   O02mW       1     -1.05    15.999
   15586      Ob       1     SIL   O02mX       1     -1.05    15.999
   15587      Ob       1     SIL   O02mY       1     -1.05    15.999
   15588      Si       1     SIL   Si1OI       1       2.1    28.086
   15589      Si       1     SIL   Si1OJ       1       2.1    28.086
   15590      Si       1     SIL   Si1OK       1       2.1    28.086
   15591      Ob       1     SIL   O02mZ       1     -1.05    15.999
   15592      Ob       1     SIL   O02ma       1     -1.05    15.999
   15593      Ob       1     SIL   O02mb       1     -1.05    15.999
   15594      Ob       1     SIL   O02mc       1     -1.05    15.999
   15595      Ob       1     SIL   O02md       1     -1.05    15.999
   15596      Ob       1     SIL   O02me       1     -1.05    15.999
   15597      Si       1     SIL   Si1OL       1       2.1    28.086
   15598      Si       1     SIL   Si1OM       1       2.1    28.086
   15599      Si       1     SIL   Si1ON       1       2.1    28.086
   15600      Ob       1     SIL   O02mf       1     -1.05    15.999
   15601      Ob       1     SIL   O02mg       1     -1.05    15.999
   15602      Ob       1     SIL   O02mh       1     -1.05    15.999
   15603      Ob       1     SIL   O02mi       1     -1.05    15.999
   15604      Ob       1     SIL   O02mj       1     -1.05    15.999
   15605      Ob       1     SIL   O02mk       1     -1.05    15.999
   15606      Si       1     SIL   Si1OO       1       2.1    28.086
   15607      Si       1     SIL   Si1OP       1       2.1    28.086
   15608      Si       1     SIL   Si1OQ       1       2.1    28.086
   15609      Ob       1     SIL   O02ml       1     -1.05    15.999
   15610      Ob       1     SIL   O02mm       1     -1.05    15.999
   15611      Ob       1     SIL   O02mn       1     -1.05    15.999
   15612      Ob       1     SIL   O02mo       1     -1.05    15.999
   15613      Ob       1     SIL   O02mp       1     -1.05    15.999
   15614      Ob       1     SIL   O02mq       1     -1.05    15.999
   15615      Si       1     SIL   Si1OR       1       2.1    28.086
   15616      Si       1     SIL   Si1OS       1       2.1    28.086
   15617      Si       1     SIL   Si1OT       1       2.1    28.086
   15618      Ob       1     SIL   O02mr       1     -1.05    15.999
   15619      Ob       1     SIL   O02ms       1     -1.05    15.999
   15620      Ob       1     SIL   O02mt       1     -1.05    15.999
   15621      Ob       1     SIL   O02mu       1     -1.05    15.999
   15622      Ob       1     SIL   O02mv       1     -1.05    15.999
   15623      Ob       1     SIL   O02mw       1     -1.05    15.999
   15624      Si       1     SIL   Si1OU       1       2.1    28.086
   15625      Si       1     SIL   Si1OV       1       2.1    28.086
   15626      Si       1     SIL   Si1OW       1       2.1    28.086
   15627      Ob       1     SIL   O02mx       1     -1.05    15.999
   15628      Ob       1     SIL   O02my       1     -1.05    15.999
   15629      Ob       1     SIL   O02mz       1     -1.05    15.999
   15630      Ob       1     SIL   O02n0       1     -1.05    15.999
   15631      Ob       1     SIL   O02n1       1     -1.05    15.999
   15632      Ob       1     SIL   O02n2       1     -1.05    15.999
   15633      Si       1     SIL   Si1OX       1       2.1    28.086
   15634      Si       1     SIL   Si1OY       1       2.1    28.086
   15635      Si       1     SIL   Si1OZ       1       2.1    28.086
   15636      Ob       1     SIL   O02n3       1     -1.05    15.999
   15637      Ob       1     SIL   O02n4       1     -1.05    15.999
   15638      Ob       1     SIL   O02n5       1     -1.05    15.999
   15639      Ob       1     SIL   O02n6       1     -1.05    15.999
   15640      Ob       1     SIL   O02n7       1     -1.05    15.999
   15641      Ob       1     SIL   O02n8       1     -1.05    15.999
   15642      Si       1     SIL   Si1Oa       1       2.1    28.086
   15643      Si       1     SIL   Si1Ob       1       2.1    28.086
   15644      Si       1     SIL   Si1Oc       1       2.1    28.086
   15645      Ob       1     SIL   O02n9       1     -1.05    15.999
   15646      Ob       1     SIL   O02nA       1     -1.05    15.999
   15647      Ob       1     SIL   O02nB       1     -1.05    15.999
   15648      Ob       1     SIL   O02nC       1     -1.05    15.999
   15649      Ob       1     SIL   O02nD       1     -1.05    15.999
   15650      Ob       1     SIL   O02nE       1     -1.05    15.999
   15651      Si       1     SIL   Si1Od       1       2.1    28.086
   15652      Si       1     SIL   Si1Oe       1       2.1    28.086
   15653      Si       1     SIL   Si1Of       1       2.1    28.086
   15654      Ob       1     SIL   O02nF       1     -1.05    15.999
   15655      Ob       1     SIL   O02nG       1     -1.05    15.999
   15656      Ob       1     SIL   O02nH       1     -1.05    15.999
   15657      Ob       1     SIL   O02nI       1     -1.05    15.999
   15658      Ob       1     SIL   O02nJ       1     -1.05    15.999
   15659      Ob       1     SIL   O02nK       1     -1.05    15.999
   15660      Si       1     SIL   Si1Og       1       2.1    28.086
   15661      Si       1     SIL   Si1Oh       1       2.1    28.086
   15662      Si       1     SIL   Si1Oi       1       2.1    28.086
   15663      Ob       1     SIL   O02nL       1     -1.05    15.999
   15664      Ob       1     SIL   O02nM       1     -1.05    15.999
   15665      Ob       1     SIL   O02nN       1     -1.05    15.999
   15666      Ob       1     SIL   O02nO       1     -1.05    15.999
   15667      Ob       1     SIL   O02nP       1     -1.05    15.999
   15668      Ob       1     SIL   O02nQ       1     -1.05    15.999
   15669      Si       1     SIL   Si1Oj       1       2.1    28.086
   15670      Si       1     SIL   Si1Ok       1       2.1    28.086
   15671      Si       1     SIL   Si1Ol       1       2.1    28.086
   15672      Ob       1     SIL   O02nR       1     -1.05    15.999
   15673      Ob       1     SIL   O02nS       1     -1.05    15.999
   15674      Ob       1     SIL   O02nT       1     -1.05    15.999
   15675      Ob       1     SIL   O02nU       1     -1.05    15.999
   15676      Ob       1     SIL   O02nV       1     -1.05    15.999
   15677      Ob       1     SIL   O02nW       1     -1.05    15.999
   15678      Si       1     SIL   Si1Om       1       2.1    28.086
   15679      Si       1     SIL   Si1On       1       2.1    28.086
   15680      Si       1     SIL   Si1Oo       1       2.1    28.086
   15681      Ob       1     SIL   O02nX       1     -1.05    15.999
   15682       O       1     SIL   O02nY       1    -0.525    15.999
   15683       O       1     SIL   O02nZ       1    -0.525    15.999
   15684      Ob       1     SIL   O02na       1     -1.05    15.999
   15685      Ob       1     SIL   O02nb       1     -1.05    15.999
   15686      Ob       1     SIL   O02nc       1     -1.05    15.999
   15687      Si       1     SIL   Si1Op       1       2.1    28.086
   15688      Si       1     SIL   Si1Oq       1       2.1    28.086
   15689      Si       1     SIL   Si1Or       1       2.1    28.086
   15690      Ob       1     SIL   O02nd       1     -1.05    15.999
   15691      Ob       1     SIL   O02ne       1     -1.05    15.999
   15692      Ob       1     SIL   O02nf       1     -1.05    15.999
   15693      Ob       1     SIL   O02ng       1     -1.05    15.999
   15694      Ob       1     SIL   O02nh       1     -1.05    15.999
   15695      Ob       1     SIL   O02ni       1     -1.05    15.999
   15696      Si       1     SIL   Si1Os       1       2.1    28.086
   15697      Si       1     SIL   Si1Ot       1       2.1    28.086
   15698      Si       1     SIL   Si1Ou       1       2.1    28.086
   15699      Ob       1     SIL   O02nj       1     -1.05    15.999
   15700      Ob       1     SIL   O02nk       1     -1.05    15.999
   15701      Ob       1     SIL   O02nl       1     -1.05    15.999
   15702      Ob       1     SIL   O02nm       1     -1.05    15.999
   15703      Ob       1     SIL   O02nn       1     -1.05    15.999
   15704      Ob       1     SIL   O02no       1     -1.05    15.999
   15705      Si       1     SIL   Si1Ov       1       2.1    28.086
   15706      Si       1     SIL   Si1Ow       1       2.1    28.086
   15707      Si       1     SIL   Si1Ox       1       2.1    28.086
   15708      Ob       1     SIL   O02np       1     -1.05    15.999
   15709      Ob       1     SIL   O02nq       1     -1.05    15.999
   15710      Ob       1     SIL   O02nr       1     -1.05    15.999
   15711      Ob       1     SIL   O02ns       1     -1.05    15.999
   15712      Ob       1     SIL   O02nt       1     -1.05    15.999
   15713      Ob       1     SIL   O02nu       1     -1.05    15.999
   15714      Si       1     SIL   Si1Oy       1       2.1    28.086
   15715      Si       1     SIL   Si1Oz       1       2.1    28.086
   15716      Si       1     SIL   Si1P0       1       2.1    28.086
   15717      Ob       1     SIL   O02nv       1     -1.05    15.999
   15718      Ob       1     SIL   O02nw       1     -1.05    15.999
   15719      Ob       1     SIL   O02nx       1     -1.05    15.999
   15720      Ob       1     SIL   O02ny       1     -1.05    15.999
   15721      Ob       1     SIL   O02nz       1     -1.05    15.999
   15722      Ob       1     SIL   O02o0       1     -1.05    15.999
   15723      Si       1     SIL   Si1P1       1       2.1    28.086
   15724      Si       1     SIL   Si1P2       1       2.1    28.086
   15725      Si       1     SIL   Si1P3       1       2.1    28.086
   15726      Ob       1     SIL   O02o1       1     -1.05    15.999
   15727      Ob       1     SIL   O02o2       1     -1.05    15.999
   15728      Ob       1     SIL   O02o3       1     -1.05    15.999
   15729      Ob       1     SIL   O02o4       1     -1.05    15.999
   15730      Ob       1     SIL   O02o5       1     -1.05    15.999
   15731      Ob       1     SIL   O02o6       1     -1.05    15.999
   15732      Si       1     SIL   Si1P4       1       2.1    28.086
   15733      Si       1     SIL   Si1P5       1       2.1    28.086
   15734      Si       1     SIL   Si1P6       1       2.1    28.086
   15735      Ob       1     SIL   O02o7       1     -1.05    15.999
   15736      Ob       1     SIL   O02o8       1     -1.05    15.999
   15737      Ob       1     SIL   O02o9       1     -1.05    15.999
   15738      Ob       1     SIL   O02oA       1     -1.05    15.999
   15739      Ob       1     SIL   O02oB       1     -1.05    15.999
   15740      Ob       1     SIL   O02oC       1     -1.05    15.999
   15741      Si       1     SIL   Si1P7       1       2.1    28.086
   15742      Si       1     SIL   Si1P8       1       2.1    28.086
   15743      Si       1     SIL   Si1P9       1       2.1    28.086
   15744      Ob       1     SIL   O02oD       1     -1.05    15.999
   15745      Ob       1     SIL   O02oE       1     -1.05    15.999
   15746      Ob       1     SIL   O02oF       1     -1.05    15.999
   15747      Ob       1     SIL   O02oG       1     -1.05    15.999
   15748      Ob       1     SIL   O02oH       1     -1.05    15.999
   15749      Ob       1     SIL   O02oI       1     -1.05    15.999
   15750      Si       1     SIL   Si1PA       1       2.1    28.086
   15751      Si       1     SIL   Si1PB       1       2.1    28.086
   15752      Si       1     SIL   Si1PC       1       2.1    28.086
   15753      Ob       1     SIL   O02oJ       1     -1.05    15.999
   15754      Ob       1     SIL   O02oK       1     -1.05    15.999
   15755      Ob       1     SIL   O02oL       1     -1.05    15.999
   15756      Ob       1     SIL   O02oM       1     -1.05    15.999
   15757      Ob       1     SIL   O02oN       1     -1.05    15.999
   15758      Ob       1     SIL   O02oO       1     -1.05    15.999
   15759      Si       1     SIL   Si1PD       1       2.1    28.086
   15760      Si       1     SIL   Si1PE       1       2.1    28.086
   15761      Si       1     SIL   Si1PF       1       2.1    28.086
   15762      Ob       1     SIL   O02oP       1     -1.05    15.999
   15763      Ob       1     SIL   O02oQ       1     -1.05    15.999
   15764      Ob       1     SIL   O02oR       1     -1.05    15.999
   15765      Ob       1     SIL   O02oS       1     -1.05    15.999
   15766      Ob       1     SIL   O02oT       1     -1.05    15.999
   15767      Ob       1     SIL   O02oU       1     -1.05    15.999
   15768      Si       1     SIL   Si1PG       1       2.1    28.086
   15769      Si       1     SIL   Si1PH       1       2.1    28.086
   15770      Si       1     SIL   Si1PI       1       2.1    28.086
   15771      Ob       1     SIL   O02oV       1     -1.05    15.999
   15772      Ob       1     SIL   O02oW       1     -1.05    15.999
   15773      Ob       1     SIL   O02oX       1     -1.05    15.999
   15774      Ob       1     SIL   O02oY       1     -1.05    15.999
   15775      Ob       1     SIL   O02oZ       1     -1.05    15.999
   15776      Ob       1     SIL   O02oa       1     -1.05    15.999
   15777      Si       1     SIL   Si1PJ       1       2.1    28.086
   15778      Si       1     SIL   Si1PK       1       2.1    28.086
   15779      Si       1     SIL   Si1PL       1       2.1    28.086
   15780      Ob       1     SIL   O02ob       1     -1.05    15.999
   15781      Ob       1     SIL   O02oc       1     -1.05    15.999
   15782      Ob       1     SIL   O02od       1     -1.05    15.999
   15783      Ob       1     SIL   O02oe       1     -1.05    15.999
   15784      Ob       1     SIL   O02of       1     -1.05    15.999
   15785      Ob       1     SIL   O02og       1     -1.05    15.999
   15786      Si       1     SIL   Si1PM       1       2.1    28.086
   15787      Si       1     SIL   Si1PN       1       2.1    28.086
   15788      Si       1     SIL   Si1PO       1       2.1    28.086
   15789      Ob       1     SIL   O02oh       1     -1.05    15.999
   15790      Ob       1     SIL   O02oi       1     -1.05    15.999
   15791      Ob       1     SIL   O02oj       1     -1.05    15.999
   15792      Ob       1     SIL   O02ok       1     -1.05    15.999
   15793      Ob       1     SIL   O02ol       1     -1.05    15.999
   15794      Ob       1     SIL   O02om       1     -1.05    15.999
   15795      Si       1     SIL   Si1PP       1       2.1    28.086
   15796      Si       1     SIL   Si1PQ       1       2.1    28.086
   15797      Si       1     SIL   Si1PR       1       2.1    28.086
   15798      Ob       1     SIL   O02on       1     -1.05    15.999
   15799      Ob       1     SIL   O02oo       1     -1.05    15.999
   15800      Ob       1     SIL   O02op       1     -1.05    15.999
   15801      Ob       1     SIL   O02oq       1     -1.05    15.999
   15802      Ob       1     SIL   O02or       1     -1.05    15.999
   15803      Ob       1     SIL   O02os       1     -1.05    15.999
   15804      Si       1     SIL   Si1PS       1       2.1    28.086
   15805      Si       1     SIL   Si1PT       1       2.1    28.086
   15806      Si       1     SIL   Si1PU       1       2.1    28.086
   15807      Ob       1     SIL   O02ot       1     -1.05    15.999
   15808      Ob       1     SIL   O02ou       1     -1.05    15.999
   15809      Ob       1     SIL   O02ov       1     -1.05    15.999
   15810      Ob       1     SIL   O02ow       1     -1.05    15.999
   15811      Ob       1     SIL   O02ox       1     -1.05    15.999
   15812      Ob       1     SIL   O02oy       1     -1.05    15.999
   15813      Si       1     SIL   Si1PV       1       2.1    28.086
   15814      Si       1     SIL   Si1PW       1       2.1    28.086
   15815      Si       1     SIL   Si1PX       1       2.1    28.086
   15816      Ob       1     SIL   O02oz       1     -1.05    15.999
   15817      Ob       1     SIL   O02p0       1     -1.05    15.999
   15818      Ob       1     SIL   O02p1       1     -1.05    15.999
   15819      Ob       1     SIL   O02p2       1     -1.05    15.999
   15820      Ob       1     SIL   O02p3       1     -1.05    15.999
   15821      Ob       1     SIL   O02p4       1     -1.05    15.999
   15822      Si       1     SIL   Si1PY       1       2.1    28.086
   15823      Si       1     SIL   Si1PZ       1       2.1    28.086
   15824      Si       1     SIL   Si1Pa       1       2.1    28.086
   15825      Ob       1     SIL   O02p5       1     -1.05    15.999
   15826      Ob       1     SIL   O02p6       1     -1.05    15.999
   15827      Ob       1     SIL   O02p7       1     -1.05    15.999
   15828      Ob       1     SIL   O02p8       1     -1.05    15.999
   15829      Ob       1     SIL   O02p9       1     -1.05    15.999
   15830      Ob       1     SIL   O02pA       1     -1.05    15.999
   15831      Si       1     SIL   Si1Pb       1       2.1    28.086
   15832      Si       1     SIL   Si1Pc       1       2.1    28.086
   15833      Si       1     SIL   Si1Pd       1       2.1    28.086
   15834      Ob       1     SIL   O02pB       1     -1.05    15.999
   15835      Ob       1     SIL   O02pC       1     -1.05    15.999
   15836      Ob       1     SIL   O02pD       1     -1.05    15.999
   15837      Ob       1     SIL   O02pE       1     -1.05    15.999
   15838      Ob       1     SIL   O02pF       1     -1.05    15.999
   15839      Ob       1     SIL   O02pG       1     -1.05    15.999
   15840      Si       1     SIL   Si1Pe       1       2.1    28.086
   15841      Si       1     SIL   Si1Pf       1       2.1    28.086
   15842      Si       1     SIL   Si1Pg       1       2.1    28.086
   15843      Ob       1     SIL   O02pH       1     -1.05    15.999
   15844      Ob       1     SIL   O02pI       1     -1.05    15.999
   15845      Ob       1     SIL   O02pJ       1     -1.05    15.999
   15846      Ob       1     SIL   O02pK       1     -1.05    15.999
   15847      Ob       1     SIL   O02pL       1     -1.05    15.999
   15848      Ob       1     SIL   O02pM       1     -1.05    15.999
   15849      Si       1     SIL   Si1Ph       1       2.1    28.086
   15850      Si       1     SIL   Si1Pi       1       2.1    28.086
   15851      Si       1     SIL   Si1Pj       1       2.1    28.086
   15852      Ob       1     SIL   O02pN       1     -1.05    15.999
   15853      Ob       1     SIL   O02pO       1     -1.05    15.999
   15854      Ob       1     SIL   O02pP       1     -1.05    15.999
   15855      Ob       1     SIL   O02pQ       1     -1.05    15.999
   15856      Ob       1     SIL   O02pR       1     -1.05    15.999
   15857      Ob       1     SIL   O02pS       1     -1.05    15.999
   15858      Si       1     SIL   Si1Pk       1       2.1    28.086
   15859      Si       1     SIL   Si1Pl       1       2.1    28.086
   15860      Si       1     SIL   Si1Pm       1       2.1    28.086
   15861      Ob       1     SIL   O02pT       1     -1.05    15.999
   15862      Ob       1     SIL   O02pU       1     -1.05    15.999
   15863      Ob       1     SIL   O02pV       1     -1.05    15.999
   15864      Ob       1     SIL   O02pW       1     -1.05    15.999
   15865      Ob       1     SIL   O02pX       1     -1.05    15.999
   15866      Ob       1     SIL   O02pY       1     -1.05    15.999
   15867      Si       1     SIL   Si1Pn       1       2.1    28.086
   15868      Si       1     SIL   Si1Po       1       2.1    28.086
   15869      Si       1     SIL   Si1Pp       1       2.1    28.086
   15870      Ob       1     SIL   O02pZ       1     -1.05    15.999
   15871      Ob       1     SIL   O02pa       1     -1.05    15.999
   15872      Ob       1     SIL   O02pb       1     -1.05    15.999
   15873      Ob       1     SIL   O02pc       1     -1.05    15.999
   15874      Ob       1     SIL   O02pd       1     -1.05    15.999
   15875      Ob       1     SIL   O02pe       1     -1.05    15.999
   15876      Si       1     SIL   Si1Pq       1       2.1    28.086
   15877      Si       1     SIL   Si1Pr       1       2.1    28.086
   15878      Si       1     SIL   Si1Ps       1       2.1    28.086
   15879      Ob       1     SIL   O02pf       1     -1.05    15.999
   15880      Ob       1     SIL   O02pg       1     -1.05    15.999
   15881      Ob       1     SIL   O02ph       1     -1.05    15.999
   15882      Ob       1     SIL   O02pi       1     -1.05    15.999
   15883      Ob       1     SIL   O02pj       1     -1.05    15.999
   15884      Ob       1     SIL   O02pk       1     -1.05    15.999
   15885      Si       1     SIL   Si1Pt       1       2.1    28.086
   15886      Si       1     SIL   Si1Pu       1       2.1    28.086
   15887      Si       1     SIL   Si1Pv       1       2.1    28.086
   15888      Ob       1     SIL   O02pl       1     -1.05    15.999
   15889       O       1     SIL   O02pm       1    -0.525    15.999
   15890       O       1     SIL   O02pn       1    -0.525    15.999
   15891      Ob       1     SIL   O02po       1     -1.05    15.999
   15892      Ob       1     SIL   O02pp       1     -1.05    15.999
   15893      Ob       1     SIL   O02pq       1     -1.05    15.999
   15894      Si       1     SIL   Si1Pw       1       2.1    28.086
   15895      Si       1     SIL   Si1Px       1       2.1    28.086
   15896      Si       1     SIL   Si1Py       1       2.1    28.086
   15897      Ob       1     SIL   O02pr       1     -1.05    15.999
   15898      Ob       1     SIL   O02ps       1     -1.05    15.999
   15899      Ob       1     SIL   O02pt       1     -1.05    15.999
   15900      Ob       1     SIL   O02pu       1     -1.05    15.999
   15901      Ob       1     SIL   O02pv       1     -1.05    15.999
   15902      Ob       1     SIL   O02pw       1     -1.05    15.999
   15903      Si       1     SIL   Si1Pz       1       2.1    28.086
   15904      Si       1     SIL   Si1Q0       1       2.1    28.086
   15905      Si       1     SIL   Si1Q1       1       2.1    28.086
   15906      Ob       1     SIL   O02px       1     -1.05    15.999
   15907      Ob       1     SIL   O02py       1     -1.05    15.999
   15908      Ob       1     SIL   O02pz       1     -1.05    15.999
   15909      Ob       1     SIL   O02q0       1     -1.05    15.999
   15910      Ob       1     SIL   O02q1       1     -1.05    15.999
   15911      Ob       1     SIL   O02q2       1     -1.05    15.999
   15912      Si       1     SIL   Si1Q2       1       2.1    28.086
   15913      Si       1     SIL   Si1Q3       1       2.1    28.086
   15914      Si       1     SIL   Si1Q4       1       2.1    28.086
   15915      Ob       1     SIL   O02q3       1     -1.05    15.999
   15916      Ob       1     SIL   O02q4       1     -1.05    15.999
   15917      Ob       1     SIL   O02q5       1     -1.05    15.999
   15918      Ob       1     SIL   O02q6       1     -1.05    15.999
   15919      Ob       1     SIL   O02q7       1     -1.05    15.999
   15920      Ob       1     SIL   O02q8       1     -1.05    15.999
   15921      Si       1     SIL   Si1Q5       1       2.1    28.086
   15922      Si       1     SIL   Si1Q6       1       2.1    28.086
   15923      Si       1     SIL   Si1Q7       1       2.1    28.086
   15924      Ob       1     SIL   O02q9       1     -1.05    15.999
   15925      Ob       1     SIL   O02qA       1     -1.05    15.999
   15926      Ob       1     SIL   O02qB       1     -1.05    15.999
   15927      Ob       1     SIL   O02qC       1     -1.05    15.999
   15928      Ob       1     SIL   O02qD       1     -1.05    15.999
   15929      Ob       1     SIL   O02qE       1     -1.05    15.999
   15930      Si       1     SIL   Si1Q8       1       2.1    28.086
   15931      Si       1     SIL   Si1Q9       1       2.1    28.086
   15932      Si       1     SIL   Si1QA       1       2.1    28.086
   15933      Ob       1     SIL   O02qF       1     -1.05    15.999
   15934      Ob       1     SIL   O02qG       1     -1.05    15.999
   15935      Ob       1     SIL   O02qH       1     -1.05    15.999
   15936      Ob       1     SIL   O02qI       1     -1.05    15.999
   15937      Ob       1     SIL   O02qJ       1     -1.05    15.999
   15938      Ob       1     SIL   O02qK       1     -1.05    15.999
   15939      Si       1     SIL   Si1QB       1       2.1    28.086
   15940      Si       1     SIL   Si1QC       1       2.1    28.086
   15941      Si       1     SIL   Si1QD       1       2.1    28.086
   15942      Ob       1     SIL   O02qL       1     -1.05    15.999
   15943      Ob       1     SIL   O02qM       1     -1.05    15.999
   15944      Ob       1     SIL   O02qN       1     -1.05    15.999
   15945      Ob       1     SIL   O02qO       1     -1.05    15.999
   15946      Ob       1     SIL   O02qP       1     -1.05    15.999
   15947      Ob       1     SIL   O02qQ       1     -1.05    15.999
   15948      Si       1     SIL   Si1QE       1       2.1    28.086
   15949      Si       1     SIL   Si1QF       1       2.1    28.086
   15950      Si       1     SIL   Si1QG       1       2.1    28.086
   15951      Ob       1     SIL   O02qR       1     -1.05    15.999
   15952      Ob       1     SIL   O02qS       1     -1.05    15.999
   15953      Ob       1     SIL   O02qT       1     -1.05    15.999
   15954      Ob       1     SIL   O02qU       1     -1.05    15.999
   15955      Ob       1     SIL   O02qV       1     -1.05    15.999
   15956      Ob       1     SIL   O02qW       1     -1.05    15.999
   15957      Si       1     SIL   Si1QH       1       2.1    28.086
   15958      Si       1     SIL   Si1QI       1       2.1    28.086
   15959      Si       1     SIL   Si1QJ       1       2.1    28.086
   15960      Ob       1     SIL   O02qX       1     -1.05    15.999
   15961      Ob       1     SIL   O02qY       1     -1.05    15.999
   15962      Ob       1     SIL   O02qZ       1     -1.05    15.999
   15963      Ob       1     SIL   O02qa       1     -1.05    15.999
   15964      Ob       1     SIL   O02qb       1     -1.05    15.999
   15965      Ob       1     SIL   O02qc       1     -1.05    15.999
   15966      Si       1     SIL   Si1QK       1       2.1    28.086
   15967      Si       1     SIL   Si1QL       1       2.1    28.086
   15968      Si       1     SIL   Si1QM       1       2.1    28.086
   15969      Ob       1     SIL   O02qd       1     -1.05    15.999
   15970      Ob       1     SIL   O02qe       1     -1.05    15.999
   15971      Ob       1     SIL   O02qf       1     -1.05    15.999
   15972      Ob       1     SIL   O02qg       1     -1.05    15.999
   15973      Ob       1     SIL   O02qh       1     -1.05    15.999
   15974      Ob       1     SIL   O02qi       1     -1.05    15.999
   15975      Si       1     SIL   Si1QN       1       2.1    28.086
   15976      Si       1     SIL   Si1QO       1       2.1    28.086
   15977      Si       1     SIL   Si1QP       1       2.1    28.086
   15978      Ob       1     SIL   O02qj       1     -1.05    15.999
   15979      Ob       1     SIL   O02qk       1     -1.05    15.999
   15980      Ob       1     SIL   O02ql       1     -1.05    15.999
   15981      Ob       1     SIL   O02qm       1     -1.05    15.999
   15982      Ob       1     SIL   O02qn       1     -1.05    15.999
   15983      Ob       1     SIL   O02qo       1     -1.05    15.999
   15984      Si       1     SIL   Si1QQ       1       2.1    28.086
   15985      Si       1     SIL   Si1QR       1       2.1    28.086
   15986      Si       1     SIL   Si1QS       1       2.1    28.086
   15987      Ob       1     SIL   O02qp       1     -1.05    15.999
   15988      Ob       1     SIL   O02qq       1     -1.05    15.999
   15989      Ob       1     SIL   O02qr       1     -1.05    15.999
   15990      Ob       1     SIL   O02qs       1     -1.05    15.999
   15991      Ob       1     SIL   O02qt       1     -1.05    15.999
   15992      Ob       1     SIL   O02qu       1     -1.05    15.999
   15993      Si       1     SIL   Si1QT       1       2.1    28.086
   15994      Si       1     SIL   Si1QU       1       2.1    28.086
   15995      Si       1     SIL   Si1QV       1       2.1    28.086
   15996      Ob       1     SIL   O02qv       1     -1.05    15.999
   15997      Ob       1     SIL   O02qw       1     -1.05    15.999
   15998      Ob       1     SIL   O02qx       1     -1.05    15.999
   15999      Ob       1     SIL   O02qy       1     -1.05    15.999
   16000      Ob       1     SIL   O02qz       1     -1.05    15.999
   16001      Ob       1     SIL   O02r0       1     -1.05    15.999
   16002      Si       1     SIL   Si1QW       1       2.1    28.086
   16003      Si       1     SIL   Si1QX       1       2.1    28.086
   16004      Si       1     SIL   Si1QY       1       2.1    28.086
   16005      Ob       1     SIL   O02r1       1     -1.05    15.999
   16006      Ob       1     SIL   O02r2       1     -1.05    15.999
   16007      Ob       1     SIL   O02r3       1     -1.05    15.999
   16008      Ob       1     SIL   O02r4       1     -1.05    15.999
   16009      Ob       1     SIL   O02r5       1     -1.05    15.999
   16010      Ob       1     SIL   O02r6       1     -1.05    15.999
   16011      Si       1     SIL   Si1QZ       1       2.1    28.086
   16012      Si       1     SIL   Si1Qa       1       2.1    28.086
   16013      Si       1     SIL   Si1Qb       1       2.1    28.086
   16014      Ob       1     SIL   O02r7       1     -1.05    15.999
   16015      Ob       1     SIL   O02r8       1     -1.05    15.999
   16016      Ob       1     SIL   O02r9       1     -1.05    15.999
   16017      Ob       1     SIL   O02rA       1     -1.05    15.999
   16018      Ob       1     SIL   O02rB       1     -1.05    15.999
   16019      Ob       1     SIL   O02rC       1     -1.05    15.999
   16020      Si       1     SIL   Si1Qc       1       2.1    28.086
   16021      Si       1     SIL   Si1Qd       1       2.1    28.086
   16022      Si       1     SIL   Si1Qe       1       2.1    28.086
   16023      Ob       1     SIL   O02rD       1     -1.05    15.999
   16024      Ob       1     SIL   O02rE       1     -1.05    15.999
   16025      Ob       1     SIL   O02rF       1     -1.05    15.999
   16026      Ob       1     SIL   O02rG       1     -1.05    15.999
   16027      Ob       1     SIL   O02rH       1     -1.05    15.999
   16028      Ob       1     SIL   O02rI       1     -1.05    15.999
   16029      Si       1     SIL   Si1Qf       1       2.1    28.086
   16030      Si       1     SIL   Si1Qg       1       2.1    28.086
   16031      Si       1     SIL   Si1Qh       1       2.1    28.086
   16032      Ob       1     SIL   O02rJ       1     -1.05    15.999
   16033      Ob       1     SIL   O02rK       1     -1.05    15.999
   16034      Ob       1     SIL   O02rL       1     -1.05    15.999
   16035      Ob       1     SIL   O02rM       1     -1.05    15.999
   16036      Ob       1     SIL   O02rN       1     -1.05    15.999
   16037      Ob       1     SIL   O02rO       1     -1.05    15.999
   16038      Si       1     SIL   Si1Qi       1       2.1    28.086
   16039      Si       1     SIL   Si1Qj       1       2.1    28.086
   16040      Si       1     SIL   Si1Qk       1       2.1    28.086
   16041      Ob       1     SIL   O02rP       1     -1.05    15.999
   16042      Ob       1     SIL   O02rQ       1     -1.05    15.999
   16043      Ob       1     SIL   O02rR       1     -1.05    15.999
   16044      Ob       1     SIL   O02rS       1     -1.05    15.999
   16045      Ob       1     SIL   O02rT       1     -1.05    15.999
   16046      Ob       1     SIL   O02rU       1     -1.05    15.999
   16047      Si       1     SIL   Si1Ql       1       2.1    28.086
   16048      Si       1     SIL   Si1Qm       1       2.1    28.086
   16049      Si       1     SIL   Si1Qn       1       2.1    28.086
   16050      Ob       1     SIL   O02rV       1     -1.05    15.999
   16051      Ob       1     SIL   O02rW       1     -1.05    15.999
   16052      Ob       1     SIL   O02rX       1     -1.05    15.999
   16053      Ob       1     SIL   O02rY       1     -1.05    15.999
   16054      Ob       1     SIL   O02rZ       1     -1.05    15.999
   16055      Ob       1     SIL   O02ra       1     -1.05    15.999
   16056      Si       1     SIL   Si1Qo       1       2.1    28.086
   16057      Si       1     SIL   Si1Qp       1       2.1    28.086
   16058      Si       1     SIL   Si1Qq       1       2.1    28.086
   16059      Ob       1     SIL   O02rb       1     -1.05    15.999
   16060      Ob       1     SIL   O02rc       1     -1.05    15.999
   16061      Ob       1     SIL   O02rd       1     -1.05    15.999
   16062      Ob       1     SIL   O02re       1     -1.05    15.999
   16063      Ob       1     SIL   O02rf       1     -1.05    15.999
   16064      Ob       1     SIL   O02rg       1     -1.05    15.999
   16065      Si       1     SIL   Si1Qr       1       2.1    28.086
   16066      Si       1     SIL   Si1Qs       1       2.1    28.086
   16067      Si       1     SIL   Si1Qt       1       2.1    28.086
   16068      Ob       1     SIL   O02rh       1     -1.05    15.999
   16069      Ob       1     SIL   O02ri       1     -1.05    15.999
   16070      Ob       1     SIL   O02rj       1     -1.05    15.999
   16071      Ob       1     SIL   O02rk       1     -1.05    15.999
   16072      Ob       1     SIL   O02rl       1     -1.05    15.999
   16073      Ob       1     SIL   O02rm       1     -1.05    15.999
   16074      Si       1     SIL   Si1Qu       1       2.1    28.086
   16075      Si       1     SIL   Si1Qv       1       2.1    28.086
   16076      Si       1     SIL   Si1Qw       1       2.1    28.086
   16077      Ob       1     SIL   O02rn       1     -1.05    15.999
   16078      Ob       1     SIL   O02ro       1     -1.05    15.999
   16079      Ob       1     SIL   O02rp       1     -1.05    15.999
   16080      Ob       1     SIL   O02rq       1     -1.05    15.999
   16081      Ob       1     SIL   O02rr       1     -1.05    15.999
   16082      Ob       1     SIL   O02rs       1     -1.05    15.999
   16083      Si       1     SIL   Si1Qx       1       2.1    28.086
   16084      Si       1     SIL   Si1Qy       1       2.1    28.086
   16085      Si       1     SIL   Si1Qz       1       2.1    28.086
   16086      Ob       1     SIL   O02rt       1     -1.05    15.999
   16087      Ob       1     SIL   O02ru       1     -1.05    15.999
   16088      Ob       1     SIL   O02rv       1     -1.05    15.999
   16089      Ob       1     SIL   O02rw       1     -1.05    15.999
   16090      Ob       1     SIL   O02rx       1     -1.05    15.999
   16091      Ob       1     SIL   O02ry       1     -1.05    15.999
   16092      Si       1     SIL   Si1R0       1       2.1    28.086
   16093      Si       1     SIL   Si1R1       1       2.1    28.086
   16094      Si       1     SIL   Si1R2       1       2.1    28.086
   16095      Ob       1     SIL   O02rz       1     -1.05    15.999
   16096       O       1     SIL   O02s0       1    -0.525    15.999
   16097       O       1     SIL   O02s1       1    -0.525    15.999
   16098      Ob       1     SIL   O02s2       1     -1.05    15.999
   16099      Ob       1     SIL   O02s3       1     -1.05    15.999
   16100      Ob       1     SIL   O02s4       1     -1.05    15.999
   16101      Si       1     SIL   Si1R3       1       2.1    28.086
   16102      Si       1     SIL   Si1R4       1       2.1    28.086
   16103      Si       1     SIL   Si1R5       1       2.1    28.086
   16104      Ob       1     SIL   O02s5       1     -1.05    15.999
   16105      Ob       1     SIL   O02s6       1     -1.05    15.999
   16106      Ob       1     SIL   O02s7       1     -1.05    15.999
   16107      Ob       1     SIL   O02s8       1     -1.05    15.999
   16108      Ob       1     SIL   O02s9       1     -1.05    15.999
   16109      Ob       1     SIL   O02sA       1     -1.05    15.999
   16110      Si       1     SIL   Si1R6       1       2.1    28.086
   16111      Si       1     SIL   Si1R7       1       2.1    28.086
   16112      Si       1     SIL   Si1R8       1       2.1    28.086
   16113      Ob       1     SIL   O02sB       1     -1.05    15.999
   16114      Ob       1     SIL   O02sC       1     -1.05    15.999
   16115      Ob       1     SIL   O02sD       1     -1.05    15.999
   16116      Ob       1     SIL   O02sE       1     -1.05    15.999
   16117      Ob       1     SIL   O02sF       1     -1.05    15.999
   16118      Ob       1     SIL   O02sG       1     -1.05    15.999
   16119      Si       1     SIL   Si1R9       1       2.1    28.086
   16120      Si       1     SIL   Si1RA       1       2.1    28.086
   16121      Si       1     SIL   Si1RB       1       2.1    28.086
   16122      Ob       1     SIL   O02sH       1     -1.05    15.999
   16123      Ob       1     SIL   O02sI       1     -1.05    15.999
   16124      Ob       1     SIL   O02sJ       1     -1.05    15.999
   16125      Ob       1     SIL   O02sK       1     -1.05    15.999
   16126      Ob       1     SIL   O02sL       1     -1.05    15.999
   16127      Ob       1     SIL   O02sM       1     -1.05    15.999
   16128      Si       1     SIL   Si1RC       1       2.1    28.086
   16129      Si       1     SIL   Si1RD       1       2.1    28.086
   16130      Si       1     SIL   Si1RE       1       2.1    28.086
   16131      Ob       1     SIL   O02sN       1     -1.05    15.999
   16132      Ob       1     SIL   O02sO       1     -1.05    15.999
   16133      Ob       1     SIL   O02sP       1     -1.05    15.999
   16134      Ob       1     SIL   O02sQ       1     -1.05    15.999
   16135      Ob       1     SIL   O02sR       1     -1.05    15.999
   16136      Ob       1     SIL   O02sS       1     -1.05    15.999
   16137      Si       1     SIL   Si1RF       1       2.1    28.086
   16138      Si       1     SIL   Si1RG       1       2.1    28.086
   16139      Si       1     SIL   Si1RH       1       2.1    28.086
   16140      Ob       1     SIL   O02sT       1     -1.05    15.999
   16141      Ob       1     SIL   O02sU       1     -1.05    15.999
   16142      Ob       1     SIL   O02sV       1     -1.05    15.999
   16143      Ob       1     SIL   O02sW       1     -1.05    15.999
   16144      Ob       1     SIL   O02sX       1     -1.05    15.999
   16145      Ob       1     SIL   O02sY       1     -1.05    15.999
   16146      Si       1     SIL   Si1RI       1       2.1    28.086
   16147      Si       1     SIL   Si1RJ       1       2.1    28.086
   16148      Si       1     SIL   Si1RK       1       2.1    28.086
   16149      Ob       1     SIL   O02sZ       1     -1.05    15.999
   16150      Ob       1     SIL   O02sa       1     -1.05    15.999
   16151      Ob       1     SIL   O02sb       1     -1.05    15.999
   16152      Ob       1     SIL   O02sc       1     -1.05    15.999
   16153      Ob       1     SIL   O02sd       1     -1.05    15.999
   16154      Ob       1     SIL   O02se       1     -1.05    15.999
   16155      Si       1     SIL   Si1RL       1       2.1    28.086
   16156      Si       1     SIL   Si1RM       1       2.1    28.086
   16157      Si       1     SIL   Si1RN       1       2.1    28.086
   16158      Ob       1     SIL   O02sf       1     -1.05    15.999
   16159      Ob       1     SIL   O02sg       1     -1.05    15.999
   16160      Ob       1     SIL   O02sh       1     -1.05    15.999
   16161      Ob       1     SIL   O02si       1     -1.05    15.999
   16162      Ob       1     SIL   O02sj       1     -1.05    15.999
   16163      Ob       1     SIL   O02sk       1     -1.05    15.999
   16164      Si       1     SIL   Si1RO       1       2.1    28.086
   16165      Si       1     SIL   Si1RP       1       2.1    28.086
   16166      Si       1     SIL   Si1RQ       1       2.1    28.086
   16167      Ob       1     SIL   O02sl       1     -1.05    15.999
   16168      Ob       1     SIL   O02sm       1     -1.05    15.999
   16169      Ob       1     SIL   O02sn       1     -1.05    15.999
   16170      Ob       1     SIL   O02so       1     -1.05    15.999
   16171      Ob       1     SIL   O02sp       1     -1.05    15.999
   16172      Ob       1     SIL   O02sq       1     -1.05    15.999
   16173      Si       1     SIL   Si1RR       1       2.1    28.086
   16174      Si       1     SIL   Si1RS       1       2.1    28.086
   16175      Si       1     SIL   Si1RT       1       2.1    28.086
   16176      Ob       1     SIL   O02sr       1     -1.05    15.999
   16177      Ob       1     SIL   O02ss       1     -1.05    15.999
   16178      Ob       1     SIL   O02st       1     -1.05    15.999
   16179      Ob       1     SIL   O02su       1     -1.05    15.999
   16180      Ob       1     SIL   O02sv       1     -1.05    15.999
   16181      Ob       1     SIL   O02sw       1     -1.05    15.999
   16182      Si       1     SIL   Si1RU       1       2.1    28.086
   16183      Si       1     SIL   Si1RV       1       2.1    28.086
   16184      Si       1     SIL   Si1RW       1       2.1    28.086
   16185      Ob       1     SIL   O02sx       1     -1.05    15.999
   16186      Ob       1     SIL   O02sy       1     -1.05    15.999
   16187      Ob       1     SIL   O02sz       1     -1.05    15.999
   16188      Ob       1     SIL   O02t0       1     -1.05    15.999
   16189      Ob       1     SIL   O02t1       1     -1.05    15.999
   16190      Ob       1     SIL   O02t2       1     -1.05    15.999
   16191      Si       1     SIL   Si1RX       1       2.1    28.086
   16192      Si       1     SIL   Si1RY       1       2.1    28.086
   16193      Si       1     SIL   Si1RZ       1       2.1    28.086
   16194      Ob       1     SIL   O02t3       1     -1.05    15.999
   16195      Ob       1     SIL   O02t4       1     -1.05    15.999
   16196      Ob       1     SIL   O02t5       1     -1.05    15.999
   16197      Ob       1     SIL   O02t6       1     -1.05    15.999
   16198      Ob       1     SIL   O02t7       1     -1.05    15.999
   16199      Ob       1     SIL   O02t8       1     -1.05    15.999
   16200      Si       1     SIL   Si1Ra       1       2.1    28.086
   16201      Si       1     SIL   Si1Rb       1       2.1    28.086
   16202      Si       1     SIL   Si1Rc       1       2.1    28.086
   16203      Ob       1     SIL   O02t9       1     -1.05    15.999
   16204      Ob       1     SIL   O02tA       1     -1.05    15.999
   16205      Ob       1     SIL   O02tB       1     -1.05    15.999
   16206      Ob       1     SIL   O02tC       1     -1.05    15.999
   16207      Ob       1     SIL   O02tD       1     -1.05    15.999
   16208      Ob       1     SIL   O02tE       1     -1.05    15.999
   16209      Si       1     SIL   Si1Rd       1       2.1    28.086
   16210      Si       1     SIL   Si1Re       1       2.1    28.086
   16211      Si       1     SIL   Si1Rf       1       2.1    28.086
   16212      Ob       1     SIL   O02tF       1     -1.05    15.999
   16213      Ob       1     SIL   O02tG       1     -1.05    15.999
   16214      Ob       1     SIL   O02tH       1     -1.05    15.999
   16215      Ob       1     SIL   O02tI       1     -1.05    15.999
   16216      Ob       1     SIL   O02tJ       1     -1.05    15.999
   16217      Ob       1     SIL   O02tK       1     -1.05    15.999
   16218      Si       1     SIL   Si1Rg       1       2.1    28.086
   16219      Si       1     SIL   Si1Rh       1       2.1    28.086
   16220      Si       1     SIL   Si1Ri       1       2.1    28.086
   16221      Ob       1     SIL   O02tL       1     -1.05    15.999
   16222      Ob       1     SIL   O02tM       1     -1.05    15.999
   16223      Ob       1     SIL   O02tN       1     -1.05    15.999
   16224      Ob       1     SIL   O02tO       1     -1.05    15.999
   16225      Ob       1     SIL   O02tP       1     -1.05    15.999
   16226      Ob       1     SIL   O02tQ       1     -1.05    15.999
   16227      Si       1     SIL   Si1Rj       1       2.1    28.086
   16228      Si       1     SIL   Si1Rk       1       2.1    28.086
   16229      Si       1     SIL   Si1Rl       1       2.1    28.086
   16230      Ob       1     SIL   O02tR       1     -1.05    15.999
   16231      Ob       1     SIL   O02tS       1     -1.05    15.999
   16232      Ob       1     SIL   O02tT       1     -1.05    15.999
   16233      Ob       1     SIL   O02tU       1     -1.05    15.999
   16234      Ob       1     SIL   O02tV       1     -1.05    15.999
   16235      Ob       1     SIL   O02tW       1     -1.05    15.999
   16236      Si       1     SIL   Si1Rm       1       2.1    28.086
   16237      Si       1     SIL   Si1Rn       1       2.1    28.086
   16238      Si       1     SIL   Si1Ro       1       2.1    28.086
   16239      Ob       1     SIL   O02tX       1     -1.05    15.999
   16240      Ob       1     SIL   O02tY       1     -1.05    15.999
   16241      Ob       1     SIL   O02tZ       1     -1.05    15.999
   16242      Ob       1     SIL   O02ta       1     -1.05    15.999
   16243      Ob       1     SIL   O02tb       1     -1.05    15.999
   16244      Ob       1     SIL   O02tc       1     -1.05    15.999
   16245      Si       1     SIL   Si1Rp       1       2.1    28.086
   16246      Si       1     SIL   Si1Rq       1       2.1    28.086
   16247      Si       1     SIL   Si1Rr       1       2.1    28.086
   16248      Ob       1     SIL   O02td       1     -1.05    15.999
   16249      Ob       1     SIL   O02te       1     -1.05    15.999
   16250      Ob       1     SIL   O02tf       1     -1.05    15.999
   16251      Ob       1     SIL   O02tg       1     -1.05    15.999
   16252      Ob       1     SIL   O02th       1     -1.05    15.999
   16253      Ob       1     SIL   O02ti       1     -1.05    15.999
   16254      Si       1     SIL   Si1Rs       1       2.1    28.086
   16255      Si       1     SIL   Si1Rt       1       2.1    28.086
   16256      Si       1     SIL   Si1Ru       1       2.1    28.086
   16257      Ob       1     SIL   O02tj       1     -1.05    15.999
   16258      Ob       1     SIL   O02tk       1     -1.05    15.999
   16259      Ob       1     SIL   O02tl       1     -1.05    15.999
   16260      Ob       1     SIL   O02tm       1     -1.05    15.999
   16261      Ob       1     SIL   O02tn       1     -1.05    15.999
   16262      Ob       1     SIL   O02to       1     -1.05    15.999
   16263      Si       1     SIL   Si1Rv       1       2.1    28.086
   16264      Si       1     SIL   Si1Rw       1       2.1    28.086
   16265      Si       1     SIL   Si1Rx       1       2.1    28.086
   16266      Ob       1     SIL   O02tp       1     -1.05    15.999
   16267      Ob       1     SIL   O02tq       1     -1.05    15.999
   16268      Ob       1     SIL   O02tr       1     -1.05    15.999
   16269      Ob       1     SIL   O02ts       1     -1.05    15.999
   16270      Ob       1     SIL   O02tt       1     -1.05    15.999
   16271      Ob       1     SIL   O02tu       1     -1.05    15.999
   16272      Si       1     SIL   Si1Ry       1       2.1    28.086
   16273      Si       1     SIL   Si1Rz       1       2.1    28.086
   16274      Si       1     SIL   Si1S0       1       2.1    28.086
   16275      Ob       1     SIL   O02tv       1     -1.05    15.999
   16276      Ob       1     SIL   O02tw       1     -1.05    15.999
   16277      Ob       1     SIL   O02tx       1     -1.05    15.999
   16278      Ob       1     SIL   O02ty       1     -1.05    15.999
   16279      Ob       1     SIL   O02tz       1     -1.05    15.999
   16280      Ob       1     SIL   O02u0       1     -1.05    15.999
   16281      Si       1     SIL   Si1S1       1       2.1    28.086
   16282      Si       1     SIL   Si1S2       1       2.1    28.086
   16283      Si       1     SIL   Si1S3       1       2.1    28.086
   16284      Ob       1     SIL   O02u1       1     -1.05    15.999
   16285      Ob       1     SIL   O02u2       1     -1.05    15.999
   16286      Ob       1     SIL   O02u3       1     -1.05    15.999
   16287      Ob       1     SIL   O02u4       1     -1.05    15.999
   16288      Ob       1     SIL   O02u5       1     -1.05    15.999
   16289      Ob       1     SIL   O02u6       1     -1.05    15.999
   16290      Si       1     SIL   Si1S4       1       2.1    28.086
   16291      Si       1     SIL   Si1S5       1       2.1    28.086
   16292      Si       1     SIL   Si1S6       1       2.1    28.086
   16293      Ob       1     SIL   O02u7       1     -1.05    15.999
   16294      Ob       1     SIL   O02u8       1     -1.05    15.999
   16295      Ob       1     SIL   O02u9       1     -1.05    15.999
   16296      Ob       1     SIL   O02uA       1     -1.05    15.999
   16297      Ob       1     SIL   O02uB       1     -1.05    15.999
   16298      Ob       1     SIL   O02uC       1     -1.05    15.999
   16299      Si       1     SIL   Si1S7       1       2.1    28.086
   16300      Si       1     SIL   Si1S8       1       2.1    28.086
   16301      Si       1     SIL   Si1S9       1       2.1    28.086
   16302      Ob       1     SIL   O02uD       1     -1.05    15.999
   16303       O       1     SIL   O02uE       1    -0.525    15.999
   16304       O       1     SIL   O02uF       1    -0.525    15.999
   16305      Ob       1     SIL   O02uG       1     -1.05    15.999
   16306      Ob       1     SIL   O02uH       1     -1.05    15.999
   16307      Ob       1     SIL   O02uI       1     -1.05    15.999
   16308      Si       1     SIL   Si1SA       1       2.1    28.086
   16309      Si       1     SIL   Si1SB       1       2.1    28.086
   16310      Si       1     SIL   Si1SC       1       2.1    28.086
   16311      Ob       1     SIL   O02uJ       1     -1.05    15.999
   16312      Ob       1     SIL   O02uK       1     -1.05    15.999
   16313      Ob       1     SIL   O02uL       1     -1.05    15.999
   16314      Ob       1     SIL   O02uM       1     -1.05    15.999
   16315      Ob       1     SIL   O02uN       1     -1.05    15.999
   16316      Ob       1     SIL   O02uO       1     -1.05    15.999
   16317      Si       1     SIL   Si1SD       1       2.1    28.086
   16318      Si       1     SIL   Si1SE       1       2.1    28.086
   16319      Si       1     SIL   Si1SF       1       2.1    28.086
   16320      Ob       1     SIL   O02uP       1     -1.05    15.999
   16321      Ob       1     SIL   O02uQ       1     -1.05    15.999
   16322      Ob       1     SIL   O02uR       1     -1.05    15.999
   16323      Ob       1     SIL   O02uS       1     -1.05    15.999
   16324      Ob       1     SIL   O02uT       1     -1.05    15.999
   16325      Ob       1     SIL   O02uU       1     -1.05    15.999
   16326      Si       1     SIL   Si1SG       1       2.1    28.086
   16327      Si       1     SIL   Si1SH       1       2.1    28.086
   16328      Si       1     SIL   Si1SI       1       2.1    28.086
   16329      Ob       1     SIL   O02uV       1     -1.05    15.999
   16330      Ob       1     SIL   O02uW       1     -1.05    15.999
   16331      Ob       1     SIL   O02uX       1     -1.05    15.999
   16332      Ob       1     SIL   O02uY       1     -1.05    15.999
   16333      Ob       1     SIL   O02uZ       1     -1.05    15.999
   16334      Ob       1     SIL   O02ua       1     -1.05    15.999
   16335      Si       1     SIL   Si1SJ       1       2.1    28.086
   16336      Si       1     SIL   Si1SK       1       2.1    28.086
   16337      Si       1     SIL   Si1SL       1       2.1    28.086
   16338      Ob       1     SIL   O02ub       1     -1.05    15.999
   16339      Ob       1     SIL   O02uc       1     -1.05    15.999
   16340      Ob       1     SIL   O02ud       1     -1.05    15.999
   16341      Ob       1     SIL   O02ue       1     -1.05    15.999
   16342      Ob       1     SIL   O02uf       1     -1.05    15.999
   16343      Ob       1     SIL   O02ug       1     -1.05    15.999
   16344      Si       1     SIL   Si1SM       1       2.1    28.086
   16345      Si       1     SIL   Si1SN       1       2.1    28.086
   16346      Si       1     SIL   Si1SO       1       2.1    28.086
   16347      Ob       1     SIL   O02uh       1     -1.05    15.999
   16348      Ob       1     SIL   O02ui       1     -1.05    15.999
   16349      Ob       1     SIL   O02uj       1     -1.05    15.999
   16350      Ob       1     SIL   O02uk       1     -1.05    15.999
   16351      Ob       1     SIL   O02ul       1     -1.05    15.999
   16352      Ob       1     SIL   O02um       1     -1.05    15.999
   16353      Si       1     SIL   Si1SP       1       2.1    28.086
   16354      Si       1     SIL   Si1SQ       1       2.1    28.086
   16355      Si       1     SIL   Si1SR       1       2.1    28.086
   16356      Ob       1     SIL   O02un       1     -1.05    15.999
   16357      Ob       1     SIL   O02uo       1     -1.05    15.999
   16358      Ob       1     SIL   O02up       1     -1.05    15.999
   16359      Ob       1     SIL   O02uq       1     -1.05    15.999
   16360      Ob       1     SIL   O02ur       1     -1.05    15.999
   16361      Ob       1     SIL   O02us       1     -1.05    15.999
   16362      Si       1     SIL   Si1SS       1       2.1    28.086
   16363      Si       1     SIL   Si1ST       1       2.1    28.086
   16364      Si       1     SIL   Si1SU       1       2.1    28.086
   16365      Ob       1     SIL   O02ut       1     -1.05    15.999
   16366      Ob       1     SIL   O02uu       1     -1.05    15.999
   16367      Ob       1     SIL   O02uv       1     -1.05    15.999
   16368      Ob       1     SIL   O02uw       1     -1.05    15.999
   16369      Ob       1     SIL   O02ux       1     -1.05    15.999
   16370      Ob       1     SIL   O02uy       1     -1.05    15.999
   16371      Si       1     SIL   Si1SV       1       2.1    28.086
   16372      Si       1     SIL   Si1SW       1       2.1    28.086
   16373      Si       1     SIL   Si1SX       1       2.1    28.086
   16374      Ob       1     SIL   O02uz       1     -1.05    15.999
   16375      Ob       1     SIL   O02v0       1     -1.05    15.999
   16376      Ob       1     SIL   O02v1       1     -1.05    15.999
   16377      Ob       1     SIL   O02v2       1     -1.05    15.999
   16378      Ob       1     SIL   O02v3       1     -1.05    15.999
   16379      Ob       1     SIL   O02v4       1     -1.05    15.999
   16380      Si       1     SIL   Si1SY       1       2.1    28.086
   16381      Si       1     SIL   Si1SZ       1       2.1    28.086
   16382      Si       1     SIL   Si1Sa       1       2.1    28.086
   16383      Ob       1     SIL   O02v5       1     -1.05    15.999
   16384      Ob       1     SIL   O02v6       1     -1.05    15.999
   16385      Ob       1     SIL   O02v7       1     -1.05    15.999
   16386      Ob       1     SIL   O02v8       1     -1.05    15.999
   16387      Ob       1     SIL   O02v9       1     -1.05    15.999
   16388      Ob       1     SIL   O02vA       1     -1.05    15.999
   16389      Si       1     SIL   Si1Sb       1       2.1    28.086
   16390      Si       1     SIL   Si1Sc       1       2.1    28.086
   16391      Si       1     SIL   Si1Sd       1       2.1    28.086
   16392      Ob       1     SIL   O02vB       1     -1.05    15.999
   16393      Ob       1     SIL   O02vC       1     -1.05    15.999
   16394      Ob       1     SIL   O02vD       1     -1.05    15.999
   16395      Ob       1     SIL   O02vE       1     -1.05    15.999
   16396      Ob       1     SIL   O02vF       1     -1.05    15.999
   16397      Ob       1     SIL   O02vG       1     -1.05    15.999
   16398      Si       1     SIL   Si1Se       1       2.1    28.086
   16399      Si       1     SIL   Si1Sf       1       2.1    28.086
   16400      Si       1     SIL   Si1Sg       1       2.1    28.086
   16401      Ob       1     SIL   O02vH       1     -1.05    15.999
   16402      Ob       1     SIL   O02vI       1     -1.05    15.999
   16403      Ob       1     SIL   O02vJ       1     -1.05    15.999
   16404      Ob       1     SIL   O02vK       1     -1.05    15.999
   16405      Ob       1     SIL   O02vL       1     -1.05    15.999
   16406      Ob       1     SIL   O02vM       1     -1.05    15.999
   16407      Si       1     SIL   Si1Sh       1       2.1    28.086
   16408      Si       1     SIL   Si1Si       1       2.1    28.086
   16409      Si       1     SIL   Si1Sj       1       2.1    28.086
   16410      Ob       1     SIL   O02vN       1     -1.05    15.999
   16411      Ob       1     SIL   O02vO       1     -1.05    15.999
   16412      Ob       1     SIL   O02vP       1     -1.05    15.999
   16413      Ob       1     SIL   O02vQ       1     -1.05    15.999
   16414      Ob       1     SIL   O02vR       1     -1.05    15.999
   16415      Ob       1     SIL   O02vS       1     -1.05    15.999
   16416      Si       1     SIL   Si1Sk       1       2.1    28.086
   16417      Si       1     SIL   Si1Sl       1       2.1    28.086
   16418      Si       1     SIL   Si1Sm       1       2.1    28.086
   16419      Ob       1     SIL   O02vT       1     -1.05    15.999
   16420      Ob       1     SIL   O02vU       1     -1.05    15.999
   16421      Ob       1     SIL   O02vV       1     -1.05    15.999
   16422      Ob       1     SIL   O02vW       1     -1.05    15.999
   16423      Ob       1     SIL   O02vX       1     -1.05    15.999
   16424      Ob       1     SIL   O02vY       1     -1.05    15.999
   16425      Si       1     SIL   Si1Sn       1       2.1    28.086
   16426      Si       1     SIL   Si1So       1       2.1    28.086
   16427      Si       1     SIL   Si1Sp       1       2.1    28.086
   16428      Ob       1     SIL   O02vZ       1     -1.05    15.999
   16429      Ob       1     SIL   O02va       1     -1.05    15.999
   16430      Ob       1     SIL   O02vb       1     -1.05    15.999
   16431      Ob       1     SIL   O02vc       1     -1.05    15.999
   16432      Ob       1     SIL   O02vd       1     -1.05    15.999
   16433      Ob       1     SIL   O02ve       1     -1.05    15.999
   16434      Si       1     SIL   Si1Sq       1       2.1    28.086
   16435      Si       1     SIL   Si1Sr       1       2.1    28.086
   16436      Si       1     SIL   Si1Ss       1       2.1    28.086
   16437      Ob       1     SIL   O02vf       1     -1.05    15.999
   16438      Ob       1     SIL   O02vg       1     -1.05    15.999
   16439      Ob       1     SIL   O02vh       1     -1.05    15.999
   16440      Ob       1     SIL   O02vi       1     -1.05    15.999
   16441      Ob       1     SIL   O02vj       1     -1.05    15.999
   16442      Ob       1     SIL   O02vk       1     -1.05    15.999
   16443      Si       1     SIL   Si1St       1       2.1    28.086
   16444      Si       1     SIL   Si1Su       1       2.1    28.086
   16445      Si       1     SIL   Si1Sv       1       2.1    28.086
   16446      Ob       1     SIL   O02vl       1     -1.05    15.999
   16447      Ob       1     SIL   O02vm       1     -1.05    15.999
   16448      Ob       1     SIL   O02vn       1     -1.05    15.999
   16449      Ob       1     SIL   O02vo       1     -1.05    15.999
   16450      Ob       1     SIL   O02vp       1     -1.05    15.999
   16451      Ob       1     SIL   O02vq       1     -1.05    15.999
   16452      Si       1     SIL   Si1Sw       1       2.1    28.086
   16453      Si       1     SIL   Si1Sx       1       2.1    28.086
   16454      Si       1     SIL   Si1Sy       1       2.1    28.086
   16455      Ob       1     SIL   O02vr       1     -1.05    15.999
   16456      Ob       1     SIL   O02vs       1     -1.05    15.999
   16457      Ob       1     SIL   O02vt       1     -1.05    15.999
   16458      Ob       1     SIL   O02vu       1     -1.05    15.999
   16459      Ob       1     SIL   O02vv       1     -1.05    15.999
   16460      Ob       1     SIL   O02vw       1     -1.05    15.999
   16461      Si       1     SIL   Si1Sz       1       2.1    28.086
   16462      Si       1     SIL   Si1T0       1       2.1    28.086
   16463      Si       1     SIL   Si1T1       1       2.1    28.086
   16464      Ob       1     SIL   O02vx       1     -1.05    15.999
   16465      Ob       1     SIL   O02vy       1     -1.05    15.999
   16466      Ob       1     SIL   O02vz       1     -1.05    15.999
   16467      Ob       1     SIL   O02w0       1     -1.05    15.999
   16468      Ob       1     SIL   O02w1       1     -1.05    15.999
   16469      Ob       1     SIL   O02w2       1     -1.05    15.999
   16470      Si       1     SIL   Si1T2       1       2.1    28.086
   16471      Si       1     SIL   Si1T3       1       2.1    28.086
   16472      Si       1     SIL   Si1T4       1       2.1    28.086
   16473      Ob       1     SIL   O02w3       1     -1.05    15.999
   16474      Ob       1     SIL   O02w4       1     -1.05    15.999
   16475      Ob       1     SIL   O02w5       1     -1.05    15.999
   16476      Ob       1     SIL   O02w6       1     -1.05    15.999
   16477      Ob       1     SIL   O02w7       1     -1.05    15.999
   16478      Ob       1     SIL   O02w8       1     -1.05    15.999
   16479      Si       1     SIL   Si1T5       1       2.1    28.086
   16480      Si       1     SIL   Si1T6       1       2.1    28.086
   16481      Si       1     SIL   Si1T7       1       2.1    28.086
   16482      Ob       1     SIL   O02w9       1     -1.05    15.999
   16483      Ob       1     SIL   O02wA       1     -1.05    15.999
   16484      Ob       1     SIL   O02wB       1     -1.05    15.999
   16485      Ob       1     SIL   O02wC       1     -1.05    15.999
   16486      Ob       1     SIL   O02wD       1     -1.05    15.999
   16487      Ob       1     SIL   O02wE       1     -1.05    15.999
   16488      Si       1     SIL   Si1T8       1       2.1    28.086
   16489      Si       1     SIL   Si1T9       1       2.1    28.086
   16490      Si       1     SIL   Si1TA       1       2.1    28.086
   16491      Ob       1     SIL   O02wF       1     -1.05    15.999
   16492      Ob       1     SIL   O02wG       1     -1.05    15.999
   16493      Ob       1     SIL   O02wH       1     -1.05    15.999
   16494      Ob       1     SIL   O02wI       1     -1.05    15.999
   16495      Ob       1     SIL   O02wJ       1     -1.05    15.999
   16496      Ob       1     SIL   O02wK       1     -1.05    15.999
   16497      Si       1     SIL   Si1TB       1       2.1    28.086
   16498      Si       1     SIL   Si1TC       1       2.1    28.086
   16499      Si       1     SIL   Si1TD       1       2.1    28.086
   16500      Ob       1     SIL   O02wL       1     -1.05    15.999
   16501      Ob       1     SIL   O02wM       1     -1.05    15.999
   16502      Ob       1     SIL   O02wN       1     -1.05    15.999
   16503      Ob       1     SIL   O02wO       1     -1.05    15.999
   16504      Ob       1     SIL   O02wP       1     -1.05    15.999
   16505      Ob       1     SIL   O02wQ       1     -1.05    15.999
   16506      Si       1     SIL   Si1TE       1       2.1    28.086
   16507      Si       1     SIL   Si1TF       1       2.1    28.086
   16508      Si       1     SIL   Si1TG       1       2.1    28.086
   16509      Ob       1     SIL   O02wR       1     -1.05    15.999
   16510       O       1     SIL   O02wS       1    -0.525    15.999
   16511       O       1     SIL   O02wT       1    -0.525    15.999
   16512      Ob       1     SIL   O02wU       1     -1.05    15.999
   16513      Ob       1     SIL   O02wV       1     -1.05    15.999
   16514      Ob       1     SIL   O02wW       1     -1.05    15.999
   16515      Si       1     SIL   Si1TH       1       2.1    28.086
   16516      Si       1     SIL   Si1TI       1       2.1    28.086
   16517      Si       1     SIL   Si1TJ       1       2.1    28.086
   16518      Ob       1     SIL   O02wX       1     -1.05    15.999
   16519      Ob       1     SIL   O02wY       1     -1.05    15.999
   16520      Ob       1     SIL   O02wZ       1     -1.05    15.999
   16521      Ob       1     SIL   O02wa       1     -1.05    15.999
   16522      Ob       1     SIL   O02wb       1     -1.05    15.999
   16523      Ob       1     SIL   O02wc       1     -1.05    15.999
   16524      Si       1     SIL   Si1TK       1       2.1    28.086
   16525      Si       1     SIL   Si1TL       1       2.1    28.086
   16526      Si       1     SIL   Si1TM       1       2.1    28.086
   16527      Ob       1     SIL   O02wd       1     -1.05    15.999
   16528      Ob       1     SIL   O02we       1     -1.05    15.999
   16529      Ob       1     SIL   O02wf       1     -1.05    15.999
   16530      Ob       1     SIL   O02wg       1     -1.05    15.999
   16531      Ob       1     SIL   O02wh       1     -1.05    15.999
   16532      Ob       1     SIL   O02wi       1     -1.05    15.999
   16533      Si       1     SIL   Si1TN       1       2.1    28.086
   16534      Si       1     SIL   Si1TO       1       2.1    28.086
   16535      Si       1     SIL   Si1TP       1       2.1    28.086
   16536      Ob       1     SIL   O02wj       1     -1.05    15.999
   16537      Ob       1     SIL   O02wk       1     -1.05    15.999
   16538      Ob       1     SIL   O02wl       1     -1.05    15.999
   16539      Ob       1     SIL   O02wm       1     -1.05    15.999
   16540      Ob       1     SIL   O02wn       1     -1.05    15.999
   16541      Ob       1     SIL   O02wo       1     -1.05    15.999
   16542      Si       1     SIL   Si1TQ       1       2.1    28.086
   16543      Si       1     SIL   Si1TR       1       2.1    28.086
   16544      Si       1     SIL   Si1TS       1       2.1    28.086
   16545      Ob       1     SIL   O02wp       1     -1.05    15.999
   16546      Ob       1     SIL   O02wq       1     -1.05    15.999
   16547      Ob       1     SIL   O02wr       1     -1.05    15.999
   16548      Ob       1     SIL   O02ws       1     -1.05    15.999
   16549      Ob       1     SIL   O02wt       1     -1.05    15.999
   16550      Ob       1     SIL   O02wu       1     -1.05    15.999
   16551      Si       1     SIL   Si1TT       1       2.1    28.086
   16552      Si       1     SIL   Si1TU       1       2.1    28.086
   16553      Si       1     SIL   Si1TV       1       2.1    28.086
   16554      Ob       1     SIL   O02wv       1     -1.05    15.999
   16555      Ob       1     SIL   O02ww       1     -1.05    15.999
   16556      Ob       1     SIL   O02wx       1     -1.05    15.999
   16557      Ob       1     SIL   O02wy       1     -1.05    15.999
   16558      Ob       1     SIL   O02wz       1     -1.05    15.999
   16559      Ob       1     SIL   O02x0       1     -1.05    15.999
   16560      Si       1     SIL   Si1TW       1       2.1    28.086
   16561      Si       1     SIL   Si1TX       1       2.1    28.086
   16562      Si       1     SIL   Si1TY       1       2.1    28.086
   16563      Ob       1     SIL   O02x1       1     -1.05    15.999
   16564      Ob       1     SIL   O02x2       1     -1.05    15.999
   16565      Ob       1     SIL   O02x3       1     -1.05    15.999
   16566      Ob       1     SIL   O02x4       1     -1.05    15.999
   16567      Ob       1     SIL   O02x5       1     -1.05    15.999
   16568      Ob       1     SIL   O02x6       1     -1.05    15.999
   16569      Si       1     SIL   Si1TZ       1       2.1    28.086
   16570      Si       1     SIL   Si1Ta       1       2.1    28.086
   16571      Si       1     SIL   Si1Tb       1       2.1    28.086
   16572      Ob       1     SIL   O02x7       1     -1.05    15.999
   16573      Ob       1     SIL   O02x8       1     -1.05    15.999
   16574      Ob       1     SIL   O02x9       1     -1.05    15.999
   16575      Ob       1     SIL   O02xA       1     -1.05    15.999
   16576      Ob       1     SIL   O02xB       1     -1.05    15.999
   16577      Ob       1     SIL   O02xC       1     -1.05    15.999
   16578      Si       1     SIL   Si1Tc       1       2.1    28.086
   16579      Si       1     SIL   Si1Td       1       2.1    28.086
   16580      Si       1     SIL   Si1Te       1       2.1    28.086
   16581      Ob       1     SIL   O02xD       1     -1.05    15.999
   16582      Ob       1     SIL   O02xE       1     -1.05    15.999
   16583      Ob       1     SIL   O02xF       1     -1.05    15.999
   16584      Ob       1     SIL   O02xG       1     -1.05    15.999
   16585      Ob       1     SIL   O02xH       1     -1.05    15.999
   16586      Ob       1     SIL   O02xI       1     -1.05    15.999
   16587      Si       1     SIL   Si1Tf       1       2.1    28.086
   16588      Si       1     SIL   Si1Tg       1       2.1    28.086
   16589      Si       1     SIL   Si1Th       1       2.1    28.086
   16590      Ob       1     SIL   O02xJ       1     -1.05    15.999
   16591      Ob       1     SIL   O02xK       1     -1.05    15.999
   16592      Ob       1     SIL   O02xL       1     -1.05    15.999
   16593      Ob       1     SIL   O02xM       1     -1.05    15.999
   16594      Ob       1     SIL   O02xN       1     -1.05    15.999
   16595      Ob       1     SIL   O02xO       1     -1.05    15.999
   16596      Si       1     SIL   Si1Ti       1       2.1    28.086
   16597      Si       1     SIL   Si1Tj       1       2.1    28.086
   16598      Si       1     SIL   Si1Tk       1       2.1    28.086
   16599      Ob       1     SIL   O02xP       1     -1.05    15.999
   16600      Ob       1     SIL   O02xQ       1     -1.05    15.999
   16601      Ob       1     SIL   O02xR       1     -1.05    15.999
   16602      Ob       1     SIL   O02xS       1     -1.05    15.999
   16603      Ob       1     SIL   O02xT       1     -1.05    15.999
   16604      Ob       1     SIL   O02xU       1     -1.05    15.999
   16605      Si       1     SIL   Si1Tl       1       2.1    28.086
   16606      Si       1     SIL   Si1Tm       1       2.1    28.086
   16607      Si       1     SIL   Si1Tn       1       2.1    28.086
   16608      Ob       1     SIL   O02xV       1     -1.05    15.999
   16609      Ob       1     SIL   O02xW       1     -1.05    15.999
   16610      Ob       1     SIL   O02xX       1     -1.05    15.999
   16611      Ob       1     SIL   O02xY       1     -1.05    15.999
   16612      Ob       1     SIL   O02xZ       1     -1.05    15.999
   16613      Ob       1     SIL   O02xa       1     -1.05    15.999
   16614      Si       1     SIL   Si1To       1       2.1    28.086
   16615      Si       1     SIL   Si1Tp       1       2.1    28.086
   16616      Si       1     SIL   Si1Tq       1       2.1    28.086
   16617      Ob       1     SIL   O02xb       1     -1.05    15.999
   16618      Ob       1     SIL   O02xc       1     -1.05    15.999
   16619      Ob       1     SIL   O02xd       1     -1.05    15.999
   16620      Ob       1     SIL   O02xe       1     -1.05    15.999
   16621      Ob       1     SIL   O02xf       1     -1.05    15.999
   16622      Ob       1     SIL   O02xg       1     -1.05    15.999
   16623      Si       1     SIL   Si1Tr       1       2.1    28.086
   16624      Si       1     SIL   Si1Ts       1       2.1    28.086
   16625      Si       1     SIL   Si1Tt       1       2.1    28.086
   16626      Ob       1     SIL   O02xh       1     -1.05    15.999
   16627      Ob       1     SIL   O02xi       1     -1.05    15.999
   16628      Ob       1     SIL   O02xj       1     -1.05    15.999
   16629      Ob       1     SIL   O02xk       1     -1.05    15.999
   16630      Ob       1     SIL   O02xl       1     -1.05    15.999
   16631      Ob       1     SIL   O02xm       1     -1.05    15.999
   16632      Si       1     SIL   Si1Tu       1       2.1    28.086
   16633      Si       1     SIL   Si1Tv       1       2.1    28.086
   16634      Si       1     SIL   Si1Tw       1       2.1    28.086
   16635      Ob       1     SIL   O02xn       1     -1.05    15.999
   16636      Ob       1     SIL   O02xo       1     -1.05    15.999
   16637      Ob       1     SIL   O02xp       1     -1.05    15.999
   16638      Ob       1     SIL   O02xq       1     -1.05    15.999
   16639      Ob       1     SIL   O02xr       1     -1.05    15.999
   16640      Ob       1     SIL   O02xs       1     -1.05    15.999
   16641      Si       1     SIL   Si1Tx       1       2.1    28.086
   16642      Si       1     SIL   Si1Ty       1       2.1    28.086
   16643      Si       1     SIL   Si1Tz       1       2.1    28.086
   16644      Ob       1     SIL   O02xt       1     -1.05    15.999
   16645      Ob       1     SIL   O02xu       1     -1.05    15.999
   16646      Ob       1     SIL   O02xv       1     -1.05    15.999
   16647      Ob       1     SIL   O02xw       1     -1.05    15.999
   16648      Ob       1     SIL   O02xx       1     -1.05    15.999
   16649      Ob       1     SIL   O02xy       1     -1.05    15.999
   16650      Si       1     SIL   Si1U0       1       2.1    28.086
   16651      Si       1     SIL   Si1U1       1       2.1    28.086
   16652      Si       1     SIL   Si1U2       1       2.1    28.086
   16653      Ob       1     SIL   O02xz       1     -1.05    15.999
   16654      Ob       1     SIL   O02y0       1     -1.05    15.999
   16655      Ob       1     SIL   O02y1       1     -1.05    15.999
   16656      Ob       1     SIL   O02y2       1     -1.05    15.999
   16657      Ob       1     SIL   O02y3       1     -1.05    15.999
   16658      Ob       1     SIL   O02y4       1     -1.05    15.999
   16659      Si       1     SIL   Si1U3       1       2.1    28.086
   16660      Si       1     SIL   Si1U4       1       2.1    28.086
   16661      Si       1     SIL   Si1U5       1       2.1    28.086
   16662      Ob       1     SIL   O02y5       1     -1.05    15.999
   16663      Ob       1     SIL   O02y6       1     -1.05    15.999
   16664      Ob       1     SIL   O02y7       1     -1.05    15.999
   16665      Ob       1     SIL   O02y8       1     -1.05    15.999
   16666      Ob       1     SIL   O02y9       1     -1.05    15.999
   16667      Ob       1     SIL   O02yA       1     -1.05    15.999
   16668      Si       1     SIL   Si1U6       1       2.1    28.086
   16669      Si       1     SIL   Si1U7       1       2.1    28.086
   16670      Si       1     SIL   Si1U8       1       2.1    28.086
   16671      Ob       1     SIL   O02yB       1     -1.05    15.999
   16672      Ob       1     SIL   O02yC       1     -1.05    15.999
   16673      Ob       1     SIL   O02yD       1     -1.05    15.999
   16674      Ob       1     SIL   O02yE       1     -1.05    15.999
   16675      Ob       1     SIL   O02yF       1     -1.05    15.999
   16676      Ob       1     SIL   O02yG       1     -1.05    15.999
   16677      Si       1     SIL   Si1U9       1       2.1    28.086
   16678      Si       1     SIL   Si1UA       1       2.1    28.086
   16679      Si       1     SIL   Si1UB       1       2.1    28.086
   16680      Ob       1     SIL   O02yH       1     -1.05    15.999
   16681      Ob       1     SIL   O02yI       1     -1.05    15.999
   16682      Ob       1     SIL   O02yJ       1     -1.05    15.999
   16683      Ob       1     SIL   O02yK       1     -1.05    15.999
   16684      Ob       1     SIL   O02yL       1     -1.05    15.999
   16685      Ob       1     SIL   O02yM       1     -1.05    15.999
   16686      Si       1     SIL   Si1UC       1       2.1    28.086
   16687      Si       1     SIL   Si1UD       1       2.1    28.086
   16688      Si       1     SIL   Si1UE       1       2.1    28.086
   16689      Ob       1     SIL   O02yN       1     -1.05    15.999
   16690      Ob       1     SIL   O02yO       1     -1.05    15.999
   16691      Ob       1     SIL   O02yP       1     -1.05    15.999
   16692      Ob       1     SIL   O02yQ       1     -1.05    15.999
   16693      Ob       1     SIL   O02yR       1     -1.05    15.999
   16694      Ob       1     SIL   O02yS       1     -1.05    15.999
   16695      Si       1     SIL   Si1UF       1       2.1    28.086
   16696      Si       1     SIL   Si1UG       1       2.1    28.086
   16697      Si       1     SIL   Si1UH       1       2.1    28.086
   16698      Ob       1     SIL   O02yT       1     -1.05    15.999
   16699      Ob       1     SIL   O02yU       1     -1.05    15.999
   16700      Ob       1     SIL   O02yV       1     -1.05    15.999
   16701      Ob       1     SIL   O02yW       1     -1.05    15.999
   16702      Ob       1     SIL   O02yX       1     -1.05    15.999
   16703      Ob       1     SIL   O02yY       1     -1.05    15.999
   16704      Si       1     SIL   Si1UI       1       2.1    28.086
   16705      Si       1     SIL   Si1UJ       1       2.1    28.086
   16706      Si       1     SIL   Si1UK       1       2.1    28.086
   16707      Ob       1     SIL   O02yZ       1     -1.05    15.999
   16708      Ob       1     SIL   O02ya       1     -1.05    15.999
   16709      Ob       1     SIL   O02yb       1     -1.05    15.999
   16710      Ob       1     SIL   O02yc       1     -1.05    15.999
   16711      Ob       1     SIL   O02yd       1     -1.05    15.999
   16712      Ob       1     SIL   O02ye       1     -1.05    15.999
   16713      Si       1     SIL   Si1UL       1       2.1    28.086
   16714      Si       1     SIL   Si1UM       1       2.1    28.086
   16715      Si       1     SIL   Si1UN       1       2.1    28.086
   16716      Ob       1     SIL   O02yf       1     -1.05    15.999
   16717       O       1     SIL   O02yg       1    -0.525    15.999
   16718       O       1     SIL   O02yh       1    -0.525    15.999
   16719      Ob       1     SIL   O02yi       1     -1.05    15.999
   16720      Ob       1     SIL   O02yj       1     -1.05    15.999
   16721      Ob       1     SIL   O02yk       1     -1.05    15.999
   16722      Si       1     SIL   Si1UO       1       2.1    28.086
   16723      Si       1     SIL   Si1UP       1       2.1    28.086
   16724      Si       1     SIL   Si1UQ       1       2.1    28.086
   16725      Ob       1     SIL   O02yl       1     -1.05    15.999
   16726      Ob       1     SIL   O02ym       1     -1.05    15.999
   16727      Ob       1     SIL   O02yn       1     -1.05    15.999
   16728      Ob       1     SIL   O02yo       1     -1.05    15.999
   16729      Ob       1     SIL   O02yp       1     -1.05    15.999
   16730      Ob       1     SIL   O02yq       1     -1.05    15.999
   16731      Si       1     SIL   Si1UR       1       2.1    28.086
   16732      Si       1     SIL   Si1US       1       2.1    28.086
   16733      Si       1     SIL   Si1UT       1       2.1    28.086
   16734      Ob       1     SIL   O02yr       1     -1.05    15.999
   16735      Ob       1     SIL   O02ys       1     -1.05    15.999
   16736      Ob       1     SIL   O02yt       1     -1.05    15.999
   16737      Ob       1     SIL   O02yu       1     -1.05    15.999
   16738      Ob       1     SIL   O02yv       1     -1.05    15.999
   16739      Ob       1     SIL   O02yw       1     -1.05    15.999
   16740      Si       1     SIL   Si1UU       1       2.1    28.086
   16741      Si       1     SIL   Si1UV       1       2.1    28.086
   16742      Si       1     SIL   Si1UW       1       2.1    28.086
   16743      Ob       1     SIL   O02yx       1     -1.05    15.999
   16744      Ob       1     SIL   O02yy       1     -1.05    15.999
   16745      Ob       1     SIL   O02yz       1     -1.05    15.999
   16746      Ob       1     SIL   O02z0       1     -1.05    15.999
   16747      Ob       1     SIL   O02z1       1     -1.05    15.999
   16748      Ob       1     SIL   O02z2       1     -1.05    15.999
   16749      Si       1     SIL   Si1UX       1       2.1    28.086
   16750      Si       1     SIL   Si1UY       1       2.1    28.086
   16751      Si       1     SIL   Si1UZ       1       2.1    28.086
   16752      Ob       1     SIL   O02z3       1     -1.05    15.999
   16753      Ob       1     SIL   O02z4       1     -1.05    15.999
   16754      Ob       1     SIL   O02z5       1     -1.05    15.999
   16755      Ob       1     SIL   O02z6       1     -1.05    15.999
   16756      Ob       1     SIL   O02z7       1     -1.05    15.999
   16757      Ob       1     SIL   O02z8       1     -1.05    15.999
   16758      Si       1     SIL   Si1Ua       1       2.1    28.086
   16759      Si       1     SIL   Si1Ub       1       2.1    28.086
   16760      Si       1     SIL   Si1Uc       1       2.1    28.086
   16761      Ob       1     SIL   O02z9       1     -1.05    15.999
   16762      Ob       1     SIL   O02zA       1     -1.05    15.999
   16763      Ob       1     SIL   O02zB       1     -1.05    15.999
   16764      Ob       1     SIL   O02zC       1     -1.05    15.999
   16765      Ob       1     SIL   O02zD       1     -1.05    15.999
   16766      Ob       1     SIL   O02zE       1     -1.05    15.999
   16767      Si       1     SIL   Si1Ud       1       2.1    28.086
   16768      Si       1     SIL   Si1Ue       1       2.1    28.086
   16769      Si       1     SIL   Si1Uf       1       2.1    28.086
   16770      Ob       1     SIL   O02zF       1     -1.05    15.999
   16771      Ob       1     SIL   O02zG       1     -1.05    15.999
   16772      Ob       1     SIL   O02zH       1     -1.05    15.999
   16773      Ob       1     SIL   O02zI       1     -1.05    15.999
   16774      Ob       1     SIL   O02zJ       1     -1.05    15.999
   16775      Ob       1     SIL   O02zK       1     -1.05    15.999
   16776      Si       1     SIL   Si1Ug       1       2.1    28.086
   16777      Si       1     SIL   Si1Uh       1       2.1    28.086
   16778      Si       1     SIL   Si1Ui       1       2.1    28.086
   16779      Ob       1     SIL   O02zL       1     -1.05    15.999
   16780      Ob       1     SIL   O02zM       1     -1.05    15.999
   16781      Ob       1     SIL   O02zN       1     -1.05    15.999
   16782      Ob       1     SIL   O02zO       1     -1.05    15.999
   16783      Ob       1     SIL   O02zP       1     -1.05    15.999
   16784      Ob       1     SIL   O02zQ       1     -1.05    15.999
   16785      Si       1     SIL   Si1Uj       1       2.1    28.086
   16786      Si       1     SIL   Si1Uk       1       2.1    28.086
   16787      Si       1     SIL   Si1Ul       1       2.1    28.086
   16788      Ob       1     SIL   O02zR       1     -1.05    15.999
   16789      Ob       1     SIL   O02zS       1     -1.05    15.999
   16790      Ob       1     SIL   O02zT       1     -1.05    15.999
   16791      Ob       1     SIL   O02zU       1     -1.05    15.999
   16792      Ob       1     SIL   O02zV       1     -1.05    15.999
   16793      Ob       1     SIL   O02zW       1     -1.05    15.999
   16794      Si       1     SIL   Si1Um       1       2.1    28.086
   16795      Si       1     SIL   Si1Un       1       2.1    28.086
   16796      Si       1     SIL   Si1Uo       1       2.1    28.086
   16797      Ob       1     SIL   O02zX       1     -1.05    15.999
   16798      Ob       1     SIL   O02zY       1     -1.05    15.999
   16799      Ob       1     SIL   O02zZ       1     -1.05    15.999
   16800      Ob       1     SIL   O02za       1     -1.05    15.999
   16801      Ob       1     SIL   O02zb       1     -1.05    15.999
   16802      Ob       1     SIL   O02zc       1     -1.05    15.999
   16803      Si       1     SIL   Si1Up       1       2.1    28.086
   16804      Si       1     SIL   Si1Uq       1       2.1    28.086
   16805      Si       1     SIL   Si1Ur       1       2.1    28.086
   16806      Ob       1     SIL   O02zd       1     -1.05    15.999
   16807      Ob       1     SIL   O02ze       1     -1.05    15.999
   16808      Ob       1     SIL   O02zf       1     -1.05    15.999
   16809      Ob       1     SIL   O02zg       1     -1.05    15.999
   16810      Ob       1     SIL   O02zh       1     -1.05    15.999
   16811      Ob       1     SIL   O02zi       1     -1.05    15.999
   16812      Si       1     SIL   Si1Us       1       2.1    28.086
   16813      Si       1     SIL   Si1Ut       1       2.1    28.086
   16814      Si       1     SIL   Si1Uu       1       2.1    28.086
   16815      Ob       1     SIL   O02zj       1     -1.05    15.999
   16816      Ob       1     SIL   O02zk       1     -1.05    15.999
   16817      Ob       1     SIL   O02zl       1     -1.05    15.999
   16818      Ob       1     SIL   O02zm       1     -1.05    15.999
   16819      Ob       1     SIL   O02zn       1     -1.05    15.999
   16820      Ob       1     SIL   O02zo       1     -1.05    15.999
   16821      Si       1     SIL   Si1Uv       1       2.1    28.086
   16822      Si       1     SIL   Si1Uw       1       2.1    28.086
   16823      Si       1     SIL   Si1Ux       1       2.1    28.086
   16824      Ob       1     SIL   O02zp       1     -1.05    15.999
   16825      Ob       1     SIL   O02zq       1     -1.05    15.999
   16826      Ob       1     SIL   O02zr       1     -1.05    15.999
   16827      Ob       1     SIL   O02zs       1     -1.05    15.999
   16828      Ob       1     SIL   O02zt       1     -1.05    15.999
   16829      Ob       1     SIL   O02zu       1     -1.05    15.999
   16830      Si       1     SIL   Si1Uy       1       2.1    28.086
   16831      Si       1     SIL   Si1Uz       1       2.1    28.086
   16832      Si       1     SIL   Si1V0       1       2.1    28.086
   16833      Ob       1     SIL   O02zv       1     -1.05    15.999
   16834      Ob       1     SIL   O02zw       1     -1.05    15.999
   16835      Ob       1     SIL   O02zx       1     -1.05    15.999
   16836      Ob       1     SIL   O02zy       1     -1.05    15.999
   16837      Ob       1     SIL   O02zz       1     -1.05    15.999
   16838      Ob       1     SIL   O0300       1     -1.05    15.999
   16839      Si       1     SIL   Si1V1       1       2.1    28.086
   16840      Si       1     SIL   Si1V2       1       2.1    28.086
   16841      Si       1     SIL   Si1V3       1       2.1    28.086
   16842      Ob       1     SIL   O0301       1     -1.05    15.999
   16843      Ob       1     SIL   O0302       1     -1.05    15.999
   16844      Ob       1     SIL   O0303       1     -1.05    15.999
   16845      Ob       1     SIL   O0304       1     -1.05    15.999
   16846      Ob       1     SIL   O0305       1     -1.05    15.999
   16847      Ob       1     SIL   O0306       1     -1.05    15.999
   16848      Si       1     SIL   Si1V4       1       2.1    28.086
   16849      Si       1     SIL   Si1V5       1       2.1    28.086
   16850      Si       1     SIL   Si1V6       1       2.1    28.086
   16851      Ob       1     SIL   O0307       1     -1.05    15.999
   16852      Ob       1     SIL   O0308       1     -1.05    15.999
   16853      Ob       1     SIL   O0309       1     -1.05    15.999
   16854      Ob       1     SIL   O030A       1     -1.05    15.999
   16855      Ob       1     SIL   O030B       1     -1.05    15.999
   16856      Ob       1     SIL   O030C       1     -1.05    15.999
   16857      Si       1     SIL   Si1V7       1       2.1    28.086
   16858      Si       1     SIL   Si1V8       1       2.1    28.086
   16859      Si       1     SIL   Si1V9       1       2.1    28.086
   16860      Ob       1     SIL   O030D       1     -1.05    15.999
   16861      Ob       1     SIL   O030E       1     -1.05    15.999
   16862      Ob       1     SIL   O030F       1     -1.05    15.999
   16863      Ob       1     SIL   O030G       1     -1.05    15.999
   16864      Ob       1     SIL   O030H       1     -1.05    15.999
   16865      Ob       1     SIL   O030I       1     -1.05    15.999
   16866      Si       1     SIL   Si1VA       1       2.1    28.086
   16867      Si       1     SIL   Si1VB       1       2.1    28.086
   16868      Si       1     SIL   Si1VC       1       2.1    28.086
   16869      Ob       1     SIL   O030J       1     -1.05    15.999
   16870      Ob       1     SIL   O030K       1     -1.05    15.999
   16871      Ob       1     SIL   O030L       1     -1.05    15.999
   16872      Ob       1     SIL   O030M       1     -1.05    15.999
   16873      Ob       1     SIL   O030N       1     -1.05    15.999
   16874      Ob       1     SIL   O030O       1     -1.05    15.999
   16875      Si       1     SIL   Si1VD       1       2.1    28.086
   16876      Si       1     SIL   Si1VE       1       2.1    28.086
   16877      Si       1     SIL   Si1VF       1       2.1    28.086
   16878      Ob       1     SIL   O030P       1     -1.05    15.999
   16879      Ob       1     SIL   O030Q       1     -1.05    15.999
   16880      Ob       1     SIL   O030R       1     -1.05    15.999
   16881      Ob       1     SIL   O030S       1     -1.05    15.999
   16882      Ob       1     SIL   O030T       1     -1.05    15.999
   16883      Ob       1     SIL   O030U       1     -1.05    15.999
   16884      Si       1     SIL   Si1VG       1       2.1    28.086
   16885      Si       1     SIL   Si1VH       1       2.1    28.086
   16886      Si       1     SIL   Si1VI       1       2.1    28.086
   16887      Ob       1     SIL   O030V       1     -1.05    15.999
   16888      Ob       1     SIL   O030W       1     -1.05    15.999
   16889      Ob       1     SIL   O030X       1     -1.05    15.999
   16890      Ob       1     SIL   O030Y       1     -1.05    15.999
   16891      Ob       1     SIL   O030Z       1     -1.05    15.999
   16892      Ob       1     SIL   O030a       1     -1.05    15.999
   16893      Si       1     SIL   Si1VJ       1       2.1    28.086
   16894      Si       1     SIL   Si1VK       1       2.1    28.086
   16895      Si       1     SIL   Si1VL       1       2.1    28.086
   16896      Ob       1     SIL   O030b       1     -1.05    15.999
   16897      Ob       1     SIL   O030c       1     -1.05    15.999
   16898      Ob       1     SIL   O030d       1     -1.05    15.999
   16899      Ob       1     SIL   O030e       1     -1.05    15.999
   16900      Ob       1     SIL   O030f       1     -1.05    15.999
   16901      Ob       1     SIL   O030g       1     -1.05    15.999
   16902      Si       1     SIL   Si1VM       1       2.1    28.086
   16903      Si       1     SIL   Si1VN       1       2.1    28.086
   16904      Si       1     SIL   Si1VO       1       2.1    28.086
   16905      Ob       1     SIL   O030h       1     -1.05    15.999
   16906      Ob       1     SIL   O030i       1     -1.05    15.999
   16907      Ob       1     SIL   O030j       1     -1.05    15.999
   16908      Ob       1     SIL   O030k       1     -1.05    15.999
   16909      Ob       1     SIL   O030l       1     -1.05    15.999
   16910      Ob       1     SIL   O030m       1     -1.05    15.999
   16911      Si       1     SIL   Si1VP       1       2.1    28.086
   16912      Si       1     SIL   Si1VQ       1       2.1    28.086
   16913      Si       1     SIL   Si1VR       1       2.1    28.086
   16914      Ob       1     SIL   O030n       1     -1.05    15.999
   16915      Ob       1     SIL   O030o       1     -1.05    15.999
   16916      Ob       1     SIL   O030p       1     -1.05    15.999
   16917      Ob       1     SIL   O030q       1     -1.05    15.999
   16918      Ob       1     SIL   O030r       1     -1.05    15.999
   16919      Ob       1     SIL   O030s       1     -1.05    15.999
   16920      Si       1     SIL   Si1VS       1       2.1    28.086
   16921      Si       1     SIL   Si1VT       1       2.1    28.086
   16922      Si       1     SIL   Si1VU       1       2.1    28.086
   16923      Ob       1     SIL   O030t       1     -1.05    15.999
   16924       O       1     SIL   O030u       1    -0.525    15.999
   16925       O       1     SIL   O030v       1    -0.525    15.999
   16926      Ob       1     SIL   O030w       1     -1.05    15.999
   16927      Ob       1     SIL   O030x       1     -1.05    15.999
   16928      Ob       1     SIL   O030y       1     -1.05    15.999
   16929      Si       1     SIL   Si1VV       1       2.1    28.086
   16930      Si       1     SIL   Si1VW       1       2.1    28.086
   16931      Si       1     SIL   Si1VX       1       2.1    28.086
   16932      Ob       1     SIL   O030z       1     -1.05    15.999
   16933      Ob       1     SIL   O0310       1     -1.05    15.999
   16934      Ob       1     SIL   O0311       1     -1.05    15.999
   16935      Ob       1     SIL   O0312       1     -1.05    15.999
   16936      Ob       1     SIL   O0313       1     -1.05    15.999
   16937      Ob       1     SIL   O0314       1     -1.05    15.999
   16938      Si       1     SIL   Si1VY       1       2.1    28.086
   16939      Si       1     SIL   Si1VZ       1       2.1    28.086
   16940      Si       1     SIL   Si1Va       1       2.1    28.086
   16941      Ob       1     SIL   O0315       1     -1.05    15.999
   16942      Ob       1     SIL   O0316       1     -1.05    15.999
   16943      Ob       1     SIL   O0317       1     -1.05    15.999
   16944      Ob       1     SIL   O0318       1     -1.05    15.999
   16945      Ob       1     SIL   O0319       1     -1.05    15.999
   16946      Ob       1     SIL   O031A       1     -1.05    15.999
   16947      Si       1     SIL   Si1Vb       1       2.1    28.086
   16948      Si       1     SIL   Si1Vc       1       2.1    28.086
   16949      Si       1     SIL   Si1Vd       1       2.1    28.086
   16950      Ob       1     SIL   O031B       1     -1.05    15.999
   16951      Ob       1     SIL   O031C       1     -1.05    15.999
   16952      Ob       1     SIL   O031D       1     -1.05    15.999
   16953      Ob       1     SIL   O031E       1     -1.05    15.999
   16954      Ob       1     SIL   O031F       1     -1.05    15.999
   16955      Ob       1     SIL   O031G       1     -1.05    15.999
   16956      Si       1     SIL   Si1Ve       1       2.1    28.086
   16957      Si       1     SIL   Si1Vf       1       2.1    28.086
   16958      Si       1     SIL   Si1Vg       1       2.1    28.086
   16959      Ob       1     SIL   O031H       1     -1.05    15.999
   16960      Ob       1     SIL   O031I       1     -1.05    15.999
   16961      Ob       1     SIL   O031J       1     -1.05    15.999
   16962      Ob       1     SIL   O031K       1     -1.05    15.999
   16963      Ob       1     SIL   O031L       1     -1.05    15.999
   16964      Ob       1     SIL   O031M       1     -1.05    15.999
   16965      Si       1     SIL   Si1Vh       1       2.1    28.086
   16966      Si       1     SIL   Si1Vi       1       2.1    28.086
   16967      Si       1     SIL   Si1Vj       1       2.1    28.086
   16968      Ob       1     SIL   O031N       1     -1.05    15.999
   16969      Ob       1     SIL   O031O       1     -1.05    15.999
   16970      Ob       1     SIL   O031P       1     -1.05    15.999
   16971      Ob       1     SIL   O031Q       1     -1.05    15.999
   16972      Ob       1     SIL   O031R       1     -1.05    15.999
   16973      Ob       1     SIL   O031S       1     -1.05    15.999
   16974      Si       1     SIL   Si1Vk       1       2.1    28.086
   16975      Si       1     SIL   Si1Vl       1       2.1    28.086
   16976      Si       1     SIL   Si1Vm       1       2.1    28.086
   16977      Ob       1     SIL   O031T       1     -1.05    15.999
   16978      Ob       1     SIL   O031U       1     -1.05    15.999
   16979      Ob       1     SIL   O031V       1     -1.05    15.999
   16980      Ob       1     SIL   O031W       1     -1.05    15.999
   16981      Ob       1     SIL   O031X       1     -1.05    15.999
   16982      Ob       1     SIL   O031Y       1     -1.05    15.999
   16983      Si       1     SIL   Si1Vn       1       2.1    28.086
   16984      Si       1     SIL   Si1Vo       1       2.1    28.086
   16985      Si       1     SIL   Si1Vp       1       2.1    28.086
   16986      Ob       1     SIL   O031Z       1     -1.05    15.999
   16987      Ob       1     SIL   O031a       1     -1.05    15.999
   16988      Ob       1     SIL   O031b       1     -1.05    15.999
   16989      Ob       1     SIL   O031c       1     -1.05    15.999
   16990      Ob       1     SIL   O031d       1     -1.05    15.999
   16991      Ob       1     SIL   O031e       1     -1.05    15.999
   16992      Si       1     SIL   Si1Vq       1       2.1    28.086
   16993      Si       1     SIL   Si1Vr       1       2.1    28.086
   16994      Si       1     SIL   Si1Vs       1       2.1    28.086
   16995      Ob       1     SIL   O031f       1     -1.05    15.999
   16996      Ob       1     SIL   O031g       1     -1.05    15.999
   16997      Ob       1     SIL   O031h       1     -1.05    15.999
   16998      Ob       1     SIL   O031i       1     -1.05    15.999
   16999      Ob       1     SIL   O031j       1     -1.05    15.999
   17000      Ob       1     SIL   O031k       1     -1.05    15.999
   17001      Si       1     SIL   Si1Vt       1       2.1    28.086
   17002      Si       1     SIL   Si1Vu       1       2.1    28.086
   17003      Si       1     SIL   Si1Vv       1       2.1    28.086
   17004      Ob       1     SIL   O031l       1     -1.05    15.999
   17005      Ob       1     SIL   O031m       1     -1.05    15.999
   17006      Ob       1     SIL   O031n       1     -1.05    15.999
   17007      Ob       1     SIL   O031o       1     -1.05    15.999
   17008      Ob       1     SIL   O031p       1     -1.05    15.999
   17009      Ob       1     SIL   O031q       1     -1.05    15.999
   17010      Si       1     SIL   Si1Vw       1       2.1    28.086
   17011      Si       1     SIL   Si1Vx       1       2.1    28.086
   17012      Si       1     SIL   Si1Vy       1       2.1    28.086
   17013      Ob       1     SIL   O031r       1     -1.05    15.999
   17014      Ob       1     SIL   O031s       1     -1.05    15.999
   17015      Ob       1     SIL   O031t       1     -1.05    15.999
   17016      Ob       1     SIL   O031u       1     -1.05    15.999
   17017      Ob       1     SIL   O031v       1     -1.05    15.999
   17018      Ob       1     SIL   O031w       1     -1.05    15.999
   17019      Si       1     SIL   Si1Vz       1       2.1    28.086
   17020      Si       1     SIL   Si1W0       1       2.1    28.086
   17021      Si       1     SIL   Si1W1       1       2.1    28.086
   17022      Ob       1     SIL   O031x       1     -1.05    15.999
   17023      Ob       1     SIL   O031y       1     -1.05    15.999
   17024      Ob       1     SIL   O031z       1     -1.05    15.999
   17025      Ob       1     SIL   O0320       1     -1.05    15.999
   17026      Ob       1     SIL   O0321       1     -1.05    15.999
   17027      Ob       1     SIL   O0322       1     -1.05    15.999
   17028      Si       1     SIL   Si1W2       1       2.1    28.086
   17029      Si       1     SIL   Si1W3       1       2.1    28.086
   17030      Si       1     SIL   Si1W4       1       2.1    28.086
   17031      Ob       1     SIL   O0323       1     -1.05    15.999
   17032      Ob       1     SIL   O0324       1     -1.05    15.999
   17033      Ob       1     SIL   O0325       1     -1.05    15.999
   17034      Ob       1     SIL   O0326       1     -1.05    15.999
   17035      Ob       1     SIL   O0327       1     -1.05    15.999
   17036      Ob       1     SIL   O0328       1     -1.05    15.999
   17037      Si       1     SIL   Si1W5       1       2.1    28.086
   17038      Si       1     SIL   Si1W6       1       2.1    28.086
   17039      Si       1     SIL   Si1W7       1       2.1    28.086
   17040      Ob       1     SIL   O0329       1     -1.05    15.999
   17041      Ob       1     SIL   O032A       1     -1.05    15.999
   17042      Ob       1     SIL   O032B       1     -1.05    15.999
   17043      Ob       1     SIL   O032C       1     -1.05    15.999
   17044      Ob       1     SIL   O032D       1     -1.05    15.999
   17045      Ob       1     SIL   O032E       1     -1.05    15.999
   17046      Si       1     SIL   Si1W8       1       2.1    28.086
   17047      Si       1     SIL   Si1W9       1       2.1    28.086
   17048      Si       1     SIL   Si1WA       1       2.1    28.086
   17049      Ob       1     SIL   O032F       1     -1.05    15.999
   17050      Ob       1     SIL   O032G       1     -1.05    15.999
   17051      Ob       1     SIL   O032H       1     -1.05    15.999
   17052      Ob       1     SIL   O032I       1     -1.05    15.999
   17053      Ob       1     SIL   O032J       1     -1.05    15.999
   17054      Ob       1     SIL   O032K       1     -1.05    15.999
   17055      Si       1     SIL   Si1WB       1       2.1    28.086
   17056      Si       1     SIL   Si1WC       1       2.1    28.086
   17057      Si       1     SIL   Si1WD       1       2.1    28.086
   17058      Ob       1     SIL   O032L       1     -1.05    15.999
   17059      Ob       1     SIL   O032M       1     -1.05    15.999
   17060      Ob       1     SIL   O032N       1     -1.05    15.999
   17061      Ob       1     SIL   O032O       1     -1.05    15.999
   17062      Ob       1     SIL   O032P       1     -1.05    15.999
   17063      Ob       1     SIL   O032Q       1     -1.05    15.999
   17064      Si       1     SIL   Si1WE       1       2.1    28.086
   17065      Si       1     SIL   Si1WF       1       2.1    28.086
   17066      Si       1     SIL   Si1WG       1       2.1    28.086
   17067      Ob       1     SIL   O032R       1     -1.05    15.999
   17068      Ob       1     SIL   O032S       1     -1.05    15.999
   17069      Ob       1     SIL   O032T       1     -1.05    15.999
   17070      Ob       1     SIL   O032U       1     -1.05    15.999
   17071      Ob       1     SIL   O032V       1     -1.05    15.999
   17072      Ob       1     SIL   O032W       1     -1.05    15.999
   17073      Si       1     SIL   Si1WH       1       2.1    28.086
   17074      Si       1     SIL   Si1WI       1       2.1    28.086
   17075      Si       1     SIL   Si1WJ       1       2.1    28.086
   17076      Ob       1     SIL   O032X       1     -1.05    15.999
   17077      Ob       1     SIL   O032Y       1     -1.05    15.999
   17078      Ob       1     SIL   O032Z       1     -1.05    15.999
   17079      Ob       1     SIL   O032a       1     -1.05    15.999
   17080      Ob       1     SIL   O032b       1     -1.05    15.999
   17081      Ob       1     SIL   O032c       1     -1.05    15.999
   17082      Si       1     SIL   Si1WK       1       2.1    28.086
   17083      Si       1     SIL   Si1WL       1       2.1    28.086
   17084      Si       1     SIL   Si1WM       1       2.1    28.086
   17085      Ob       1     SIL   O032d       1     -1.05    15.999
   17086      Ob       1     SIL   O032e       1     -1.05    15.999
   17087      Ob       1     SIL   O032f       1     -1.05    15.999
   17088      Ob       1     SIL   O032g       1     -1.05    15.999
   17089      Ob       1     SIL   O032h       1     -1.05    15.999
   17090      Ob       1     SIL   O032i       1     -1.05    15.999
   17091      Si       1     SIL   Si1WN       1       2.1    28.086
   17092      Si       1     SIL   Si1WO       1       2.1    28.086
   17093      Si       1     SIL   Si1WP       1       2.1    28.086
   17094      Ob       1     SIL   O032j       1     -1.05    15.999
   17095      Ob       1     SIL   O032k       1     -1.05    15.999
   17096      Ob       1     SIL   O032l       1     -1.05    15.999
   17097      Ob       1     SIL   O032m       1     -1.05    15.999
   17098      Ob       1     SIL   O032n       1     -1.05    15.999
   17099      Ob       1     SIL   O032o       1     -1.05    15.999
   17100      Si       1     SIL   Si1WQ       1       2.1    28.086
   17101      Si       1     SIL   Si1WR       1       2.1    28.086
   17102      Si       1     SIL   Si1WS       1       2.1    28.086
   17103      Ob       1     SIL   O032p       1     -1.05    15.999
   17104      Ob       1     SIL   O032q       1     -1.05    15.999
   17105      Ob       1     SIL   O032r       1     -1.05    15.999
   17106      Ob       1     SIL   O032s       1     -1.05    15.999
   17107      Ob       1     SIL   O032t       1     -1.05    15.999
   17108      Ob       1     SIL   O032u       1     -1.05    15.999
   17109      Si       1     SIL   Si1WT       1       2.1    28.086
   17110      Si       1     SIL   Si1WU       1       2.1    28.086
   17111      Si       1     SIL   Si1WV       1       2.1    28.086
   17112      Ob       1     SIL   O032v       1     -1.05    15.999
   17113      Ob       1     SIL   O032w       1     -1.05    15.999
   17114      Ob       1     SIL   O032x       1     -1.05    15.999
   17115      Ob       1     SIL   O032y       1     -1.05    15.999
   17116      Ob       1     SIL   O032z       1     -1.05    15.999
   17117      Ob       1     SIL   O0330       1     -1.05    15.999
   17118      Si       1     SIL   Si1WW       1       2.1    28.086
   17119      Si       1     SIL   Si1WX       1       2.1    28.086
   17120      Si       1     SIL   Si1WY       1       2.1    28.086
   17121      Ob       1     SIL   O0331       1     -1.05    15.999
   17122      Ob       1     SIL   O0332       1     -1.05    15.999
   17123      Ob       1     SIL   O0333       1     -1.05    15.999
   17124      Ob       1     SIL   O0334       1     -1.05    15.999
   17125      Ob       1     SIL   O0335       1     -1.05    15.999
   17126      Ob       1     SIL   O0336       1     -1.05    15.999
   17127      Si       1     SIL   Si1WZ       1       2.1    28.086
   17128      Si       1     SIL   Si1Wa       1       2.1    28.086
   17129      Si       1     SIL   Si1Wb       1       2.1    28.086
   17130      Ob       1     SIL   O0337       1     -1.05    15.999
   17131       O       1     SIL   O0338       1    -0.525    15.999
   17132       O       1     SIL   O0339       1    -0.525    15.999
   17133      Ob       1     SIL   O033A       1     -1.05    15.999
   17134      Ob       1     SIL   O033B       1     -1.05    15.999
   17135      Ob       1     SIL   O033C       1     -1.05    15.999
   17136      Si       1     SIL   Si1Wc       1       2.1    28.086
   17137      Si       1     SIL   Si1Wd       1       2.1    28.086
   17138      Si       1     SIL   Si1We       1       2.1    28.086
   17139      Ob       1     SIL   O033D       1     -1.05    15.999
   17140      Ob       1     SIL   O033E       1     -1.05    15.999
   17141      Ob       1     SIL   O033F       1     -1.05    15.999
   17142      Ob       1     SIL   O033G       1     -1.05    15.999
   17143      Ob       1     SIL   O033H       1     -1.05    15.999
   17144      Ob       1     SIL   O033I       1     -1.05    15.999
   17145      Si       1     SIL   Si1Wf       1       2.1    28.086
   17146      Si       1     SIL   Si1Wg       1       2.1    28.086
   17147      Si       1     SIL   Si1Wh       1       2.1    28.086
   17148      Ob       1     SIL   O033J       1     -1.05    15.999
   17149      Ob       1     SIL   O033K       1     -1.05    15.999
   17150      Ob       1     SIL   O033L       1     -1.05    15.999
   17151      Ob       1     SIL   O033M       1     -1.05    15.999
   17152      Ob       1     SIL   O033N       1     -1.05    15.999
   17153      Ob       1     SIL   O033O       1     -1.05    15.999
   17154      Si       1     SIL   Si1Wi       1       2.1    28.086
   17155      Si       1     SIL   Si1Wj       1       2.1    28.086
   17156      Si       1     SIL   Si1Wk       1       2.1    28.086
   17157      Ob       1     SIL   O033P       1     -1.05    15.999
   17158      Ob       1     SIL   O033Q       1     -1.05    15.999
   17159      Ob       1     SIL   O033R       1     -1.05    15.999
   17160      Ob       1     SIL   O033S       1     -1.05    15.999
   17161      Ob       1     SIL   O033T       1     -1.05    15.999
   17162      Ob       1     SIL   O033U       1     -1.05    15.999
   17163      Si       1     SIL   Si1Wl       1       2.1    28.086
   17164      Si       1     SIL   Si1Wm       1       2.1    28.086
   17165      Si       1     SIL   Si1Wn       1       2.1    28.086
   17166      Ob       1     SIL   O033V       1     -1.05    15.999
   17167      Ob       1     SIL   O033W       1     -1.05    15.999
   17168      Ob       1     SIL   O033X       1     -1.05    15.999
   17169      Ob       1     SIL   O033Y       1     -1.05    15.999
   17170      Ob       1     SIL   O033Z       1     -1.05    15.999
   17171      Ob       1     SIL   O033a       1     -1.05    15.999
   17172      Si       1     SIL   Si1Wo       1       2.1    28.086
   17173      Si       1     SIL   Si1Wp       1       2.1    28.086
   17174      Si       1     SIL   Si1Wq       1       2.1    28.086
   17175      Ob       1     SIL   O033b       1     -1.05    15.999
   17176      Ob       1     SIL   O033c       1     -1.05    15.999
   17177      Ob       1     SIL   O033d       1     -1.05    15.999
   17178      Ob       1     SIL   O033e       1     -1.05    15.999
   17179      Ob       1     SIL   O033f       1     -1.05    15.999
   17180      Ob       1     SIL   O033g       1     -1.05    15.999
   17181      Si       1     SIL   Si1Wr       1       2.1    28.086
   17182      Si       1     SIL   Si1Ws       1       2.1    28.086
   17183      Si       1     SIL   Si1Wt       1       2.1    28.086
   17184      Ob       1     SIL   O033h       1     -1.05    15.999
   17185      Ob       1     SIL   O033i       1     -1.05    15.999
   17186      Ob       1     SIL   O033j       1     -1.05    15.999
   17187      Ob       1     SIL   O033k       1     -1.05    15.999
   17188      Ob       1     SIL   O033l       1     -1.05    15.999
   17189      Ob       1     SIL   O033m       1     -1.05    15.999
   17190      Si       1     SIL   Si1Wu       1       2.1    28.086
   17191      Si       1     SIL   Si1Wv       1       2.1    28.086
   17192      Si       1     SIL   Si1Ww       1       2.1    28.086
   17193      Ob       1     SIL   O033n       1     -1.05    15.999
   17194      Ob       1     SIL   O033o       1     -1.05    15.999
   17195      Ob       1     SIL   O033p       1     -1.05    15.999
   17196      Ob       1     SIL   O033q       1     -1.05    15.999
   17197      Ob       1     SIL   O033r       1     -1.05    15.999
   17198      Ob       1     SIL   O033s       1     -1.05    15.999
   17199      Si       1     SIL   Si1Wx       1       2.1    28.086
   17200      Si       1     SIL   Si1Wy       1       2.1    28.086
   17201      Si       1     SIL   Si1Wz       1       2.1    28.086
   17202      Ob       1     SIL   O033t       1     -1.05    15.999
   17203      Ob       1     SIL   O033u       1     -1.05    15.999
   17204      Ob       1     SIL   O033v       1     -1.05    15.999
   17205      Ob       1     SIL   O033w       1     -1.05    15.999
   17206      Ob       1     SIL   O033x       1     -1.05    15.999
   17207      Ob       1     SIL   O033y       1     -1.05    15.999
   17208      Si       1     SIL   Si1X0       1       2.1    28.086
   17209      Si       1     SIL   Si1X1       1       2.1    28.086
   17210      Si       1     SIL   Si1X2       1       2.1    28.086
   17211      Ob       1     SIL   O033z       1     -1.05    15.999
   17212      Ob       1     SIL   O0340       1     -1.05    15.999
   17213      Ob       1     SIL   O0341       1     -1.05    15.999
   17214      Ob       1     SIL   O0342       1     -1.05    15.999
   17215      Ob       1     SIL   O0343       1     -1.05    15.999
   17216      Ob       1     SIL   O0344       1     -1.05    15.999
   17217      Si       1     SIL   Si1X3       1       2.1    28.086
   17218      Si       1     SIL   Si1X4       1       2.1    28.086
   17219      Si       1     SIL   Si1X5       1       2.1    28.086
   17220      Ob       1     SIL   O0345       1     -1.05    15.999
   17221      Ob       1     SIL   O0346       1     -1.05    15.999
   17222      Ob       1     SIL   O0347       1     -1.05    15.999
   17223      Ob       1     SIL   O0348       1     -1.05    15.999
   17224      Ob       1     SIL   O0349       1     -1.05    15.999
   17225      Ob       1     SIL   O034A       1     -1.05    15.999
   17226      Si       1     SIL   Si1X6       1       2.1    28.086
   17227      Si       1     SIL   Si1X7       1       2.1    28.086
   17228      Si       1     SIL   Si1X8       1       2.1    28.086
   17229      Ob       1     SIL   O034B       1     -1.05    15.999
   17230      Ob       1     SIL   O034C       1     -1.05    15.999
   17231      Ob       1     SIL   O034D       1     -1.05    15.999
   17232      Ob       1     SIL   O034E       1     -1.05    15.999
   17233      Ob       1     SIL   O034F       1     -1.05    15.999
   17234      Ob       1     SIL   O034G       1     -1.05    15.999
   17235      Si       1     SIL   Si1X9       1       2.1    28.086
   17236      Si       1     SIL   Si1XA       1       2.1    28.086
   17237      Si       1     SIL   Si1XB       1       2.1    28.086
   17238      Ob       1     SIL   O034H       1     -1.05    15.999
   17239      Ob       1     SIL   O034I       1     -1.05    15.999
   17240      Ob       1     SIL   O034J       1     -1.05    15.999
   17241      Ob       1     SIL   O034K       1     -1.05    15.999
   17242      Ob       1     SIL   O034L       1     -1.05    15.999
   17243      Ob       1     SIL   O034M       1     -1.05    15.999
   17244      Si       1     SIL   Si1XC       1       2.1    28.086
   17245      Si       1     SIL   Si1XD       1       2.1    28.086
   17246      Si       1     SIL   Si1XE       1       2.1    28.086
   17247      Ob       1     SIL   O034N       1     -1.05    15.999
   17248      Ob       1     SIL   O034O       1     -1.05    15.999
   17249      Ob       1     SIL   O034P       1     -1.05    15.999
   17250      Ob       1     SIL   O034Q       1     -1.05    15.999
   17251      Ob       1     SIL   O034R       1     -1.05    15.999
   17252      Ob       1     SIL   O034S       1     -1.05    15.999
   17253      Si       1     SIL   Si1XF       1       2.1    28.086
   17254      Si       1     SIL   Si1XG       1       2.1    28.086
   17255      Si       1     SIL   Si1XH       1       2.1    28.086
   17256      Ob       1     SIL   O034T       1     -1.05    15.999
   17257      Ob       1     SIL   O034U       1     -1.05    15.999
   17258      Ob       1     SIL   O034V       1     -1.05    15.999
   17259      Ob       1     SIL   O034W       1     -1.05    15.999
   17260      Ob       1     SIL   O034X       1     -1.05    15.999
   17261      Ob       1     SIL   O034Y       1     -1.05    15.999
   17262      Si       1     SIL   Si1XI       1       2.1    28.086
   17263      Si       1     SIL   Si1XJ       1       2.1    28.086
   17264      Si       1     SIL   Si1XK       1       2.1    28.086
   17265      Ob       1     SIL   O034Z       1     -1.05    15.999
   17266      Ob       1     SIL   O034a       1     -1.05    15.999
   17267      Ob       1     SIL   O034b       1     -1.05    15.999
   17268      Ob       1     SIL   O034c       1     -1.05    15.999
   17269      Ob       1     SIL   O034d       1     -1.05    15.999
   17270      Ob       1     SIL   O034e       1     -1.05    15.999
   17271      Si       1     SIL   Si1XL       1       2.1    28.086
   17272      Si       1     SIL   Si1XM       1       2.1    28.086
   17273      Si       1     SIL   Si1XN       1       2.1    28.086
   17274      Ob       1     SIL   O034f       1     -1.05    15.999
   17275      Ob       1     SIL   O034g       1     -1.05    15.999
   17276      Ob       1     SIL   O034h       1     -1.05    15.999
   17277      Ob       1     SIL   O034i       1     -1.05    15.999
   17278      Ob       1     SIL   O034j       1     -1.05    15.999
   17279      Ob       1     SIL   O034k       1     -1.05    15.999
   17280      Si       1     SIL   Si1XO       1       2.1    28.086
   17281      Si       1     SIL   Si1XP       1       2.1    28.086
   17282      Si       1     SIL   Si1XQ       1       2.1    28.086
   17283      Ob       1     SIL   O034l       1     -1.05    15.999
   17284      Ob       1     SIL   O034m       1     -1.05    15.999
   17285      Ob       1     SIL   O034n       1     -1.05    15.999
   17286      Ob       1     SIL   O034o       1     -1.05    15.999
   17287      Ob       1     SIL   O034p       1     -1.05    15.999
   17288      Ob       1     SIL   O034q       1     -1.05    15.999
   17289      Si       1     SIL   Si1XR       1       2.1    28.086
   17290      Si       1     SIL   Si1XS       1       2.1    28.086
   17291      Si       1     SIL   Si1XT       1       2.1    28.086
   17292      Ob       1     SIL   O034r       1     -1.05    15.999
   17293      Ob       1     SIL   O034s       1     -1.05    15.999
   17294      Ob       1     SIL   O034t       1     -1.05    15.999
   17295      Ob       1     SIL   O034u       1     -1.05    15.999
   17296      Ob       1     SIL   O034v       1     -1.05    15.999
   17297      Ob       1     SIL   O034w       1     -1.05    15.999
   17298      Si       1     SIL   Si1XU       1       2.1    28.086
   17299      Si       1     SIL   Si1XV       1       2.1    28.086
   17300      Si       1     SIL   Si1XW       1       2.1    28.086
   17301      Ob       1     SIL   O034x       1     -1.05    15.999
   17302      Ob       1     SIL   O034y       1     -1.05    15.999
   17303      Ob       1     SIL   O034z       1     -1.05    15.999
   17304      Ob       1     SIL   O0350       1     -1.05    15.999
   17305      Ob       1     SIL   O0351       1     -1.05    15.999
   17306      Ob       1     SIL   O0352       1     -1.05    15.999
   17307      Si       1     SIL   Si1XX       1       2.1    28.086
   17308      Si       1     SIL   Si1XY       1       2.1    28.086
   17309      Si       1     SIL   Si1XZ       1       2.1    28.086
   17310      Ob       1     SIL   O0353       1     -1.05    15.999
   17311      Ob       1     SIL   O0354       1     -1.05    15.999
   17312      Ob       1     SIL   O0355       1     -1.05    15.999
   17313      Ob       1     SIL   O0356       1     -1.05    15.999
   17314      Ob       1     SIL   O0357       1     -1.05    15.999
   17315      Ob       1     SIL   O0358       1     -1.05    15.999
   17316      Si       1     SIL   Si1Xa       1       2.1    28.086
   17317      Si       1     SIL   Si1Xb       1       2.1    28.086
   17318      Si       1     SIL   Si1Xc       1       2.1    28.086
   17319      Ob       1     SIL   O0359       1     -1.05    15.999
   17320      Ob       1     SIL   O035A       1     -1.05    15.999
   17321      Ob       1     SIL   O035B       1     -1.05    15.999
   17322      Ob       1     SIL   O035C       1     -1.05    15.999
   17323      Ob       1     SIL   O035D       1     -1.05    15.999
   17324      Ob       1     SIL   O035E       1     -1.05    15.999
   17325      Si       1     SIL   Si1Xd       1       2.1    28.086
   17326      Si       1     SIL   Si1Xe       1       2.1    28.086
   17327      Si       1     SIL   Si1Xf       1       2.1    28.086
   17328      Ob       1     SIL   O035F       1     -1.05    15.999
   17329      Ob       1     SIL   O035G       1     -1.05    15.999
   17330      Ob       1     SIL   O035H       1     -1.05    15.999
   17331      Ob       1     SIL   O035I       1     -1.05    15.999
   17332      Ob       1     SIL   O035J       1     -1.05    15.999
   17333      Ob       1     SIL   O035K       1     -1.05    15.999
   17334      Si       1     SIL   Si1Xg       1       2.1    28.086
   17335      Si       1     SIL   Si1Xh       1       2.1    28.086
   17336      Si       1     SIL   Si1Xi       1       2.1    28.086
   17337      Ob       1     SIL   O035L       1     -1.05    15.999
   17338       O       1     SIL   O035M       1    -0.525    15.999
   17339       O       1     SIL   O035N       1    -0.525    15.999
   17340      Ob       1     SIL   O035O       1     -1.05    15.999
   17341      Ob       1     SIL   O035P       1     -1.05    15.999
   17342      Ob       1     SIL   O035Q       1     -1.05    15.999
   17343      Si       1     SIL   Si1Xj       1       2.1    28.086
   17344      Si       1     SIL   Si1Xk       1       2.1    28.086
   17345      Si       1     SIL   Si1Xl       1       2.1    28.086
   17346      Ob       1     SIL   O035R       1     -1.05    15.999
   17347      Ob       1     SIL   O035S       1     -1.05    15.999
   17348      Ob       1     SIL   O035T       1     -1.05    15.999
   17349      Ob       1     SIL   O035U       1     -1.05    15.999
   17350      Ob       1     SIL   O035V       1     -1.05    15.999
   17351      Ob       1     SIL   O035W       1     -1.05    15.999
   17352      Si       1     SIL   Si1Xm       1       2.1    28.086
   17353      Si       1     SIL   Si1Xn       1       2.1    28.086
   17354      Si       1     SIL   Si1Xo       1       2.1    28.086
   17355      Ob       1     SIL   O035X       1     -1.05    15.999
   17356      Ob       1     SIL   O035Y       1     -1.05    15.999
   17357      Ob       1     SIL   O035Z       1     -1.05    15.999
   17358      Ob       1     SIL   O035a       1     -1.05    15.999
   17359      Ob       1     SIL   O035b       1     -1.05    15.999
   17360      Ob       1     SIL   O035c       1     -1.05    15.999
   17361      Si       1     SIL   Si1Xp       1       2.1    28.086
   17362      Si       1     SIL   Si1Xq       1       2.1    28.086
   17363      Si       1     SIL   Si1Xr       1       2.1    28.086
   17364      Ob       1     SIL   O035d       1     -1.05    15.999
   17365      Ob       1     SIL   O035e       1     -1.05    15.999
   17366      Ob       1     SIL   O035f       1     -1.05    15.999
   17367      Ob       1     SIL   O035g       1     -1.05    15.999
   17368      Ob       1     SIL   O035h       1     -1.05    15.999
   17369      Ob       1     SIL   O035i       1     -1.05    15.999
   17370      Si       1     SIL   Si1Xs       1       2.1    28.086
   17371      Si       1     SIL   Si1Xt       1       2.1    28.086
   17372      Si       1     SIL   Si1Xu       1       2.1    28.086
   17373      Ob       1     SIL   O035j       1     -1.05    15.999
   17374      Ob       1     SIL   O035k       1     -1.05    15.999
   17375      Ob       1     SIL   O035l       1     -1.05    15.999
   17376      Ob       1     SIL   O035m       1     -1.05    15.999
   17377      Ob       1     SIL   O035n       1     -1.05    15.999
   17378      Ob       1     SIL   O035o       1     -1.05    15.999
   17379      Si       1     SIL   Si1Xv       1       2.1    28.086
   17380      Si       1     SIL   Si1Xw       1       2.1    28.086
   17381      Si       1     SIL   Si1Xx       1       2.1    28.086
   17382      Ob       1     SIL   O035p       1     -1.05    15.999
   17383      Ob       1     SIL   O035q       1     -1.05    15.999
   17384      Ob       1     SIL   O035r       1     -1.05    15.999
   17385      Ob       1     SIL   O035s       1     -1.05    15.999
   17386      Ob       1     SIL   O035t       1     -1.05    15.999
   17387      Ob       1     SIL   O035u       1     -1.05    15.999
   17388      Si       1     SIL   Si1Xy       1       2.1    28.086
   17389      Si       1     SIL   Si1Xz       1       2.1    28.086
   17390      Si       1     SIL   Si1Y0       1       2.1    28.086
   17391      Ob       1     SIL   O035v       1     -1.05    15.999
   17392      Ob       1     SIL   O035w       1     -1.05    15.999
   17393      Ob       1     SIL   O035x       1     -1.05    15.999
   17394      Ob       1     SIL   O035y       1     -1.05    15.999
   17395      Ob       1     SIL   O035z       1     -1.05    15.999
   17396      Ob       1     SIL   O0360       1     -1.05    15.999
   17397      Si       1     SIL   Si1Y1       1       2.1    28.086
   17398      Si       1     SIL   Si1Y2       1       2.1    28.086
   17399      Si       1     SIL   Si1Y3       1       2.1    28.086
   17400      Ob       1     SIL   O0361       1     -1.05    15.999
   17401      Ob       1     SIL   O0362       1     -1.05    15.999
   17402      Ob       1     SIL   O0363       1     -1.05    15.999
   17403      Ob       1     SIL   O0364       1     -1.05    15.999
   17404      Ob       1     SIL   O0365       1     -1.05    15.999
   17405      Ob       1     SIL   O0366       1     -1.05    15.999
   17406      Si       1     SIL   Si1Y4       1       2.1    28.086
   17407      Si       1     SIL   Si1Y5       1       2.1    28.086
   17408      Si       1     SIL   Si1Y6       1       2.1    28.086
   17409      Ob       1     SIL   O0367       1     -1.05    15.999
   17410      Ob       1     SIL   O0368       1     -1.05    15.999
   17411      Ob       1     SIL   O0369       1     -1.05    15.999
   17412      Ob       1     SIL   O036A       1     -1.05    15.999
   17413      Ob       1     SIL   O036B       1     -1.05    15.999
   17414      Ob       1     SIL   O036C       1     -1.05    15.999
   17415      Si       1     SIL   Si1Y7       1       2.1    28.086
   17416      Si       1     SIL   Si1Y8       1       2.1    28.086
   17417      Si       1     SIL   Si1Y9       1       2.1    28.086
   17418      Ob       1     SIL   O036D       1     -1.05    15.999
   17419      Ob       1     SIL   O036E       1     -1.05    15.999
   17420      Ob       1     SIL   O036F       1     -1.05    15.999
   17421      Ob       1     SIL   O036G       1     -1.05    15.999
   17422      Ob       1     SIL   O036H       1     -1.05    15.999
   17423      Ob       1     SIL   O036I       1     -1.05    15.999
   17424      Si       1     SIL   Si1YA       1       2.1    28.086
   17425      Si       1     SIL   Si1YB       1       2.1    28.086
   17426      Si       1     SIL   Si1YC       1       2.1    28.086
   17427      Ob       1     SIL   O036J       1     -1.05    15.999
   17428      Ob       1     SIL   O036K       1     -1.05    15.999
   17429      Ob       1     SIL   O036L       1     -1.05    15.999
   17430      Ob       1     SIL   O036M       1     -1.05    15.999
   17431      Ob       1     SIL   O036N       1     -1.05    15.999
   17432      Ob       1     SIL   O036O       1     -1.05    15.999
   17433      Si       1     SIL   Si1YD       1       2.1    28.086
   17434      Si       1     SIL   Si1YE       1       2.1    28.086
   17435      Si       1     SIL   Si1YF       1       2.1    28.086
   17436      Ob       1     SIL   O036P       1     -1.05    15.999
   17437      Ob       1     SIL   O036Q       1     -1.05    15.999
   17438      Ob       1     SIL   O036R       1     -1.05    15.999
   17439      Ob       1     SIL   O036S       1     -1.05    15.999
   17440      Ob       1     SIL   O036T       1     -1.05    15.999
   17441      Ob       1     SIL   O036U       1     -1.05    15.999
   17442      Si       1     SIL   Si1YG       1       2.1    28.086
   17443      Si       1     SIL   Si1YH       1       2.1    28.086
   17444      Si       1     SIL   Si1YI       1       2.1    28.086
   17445      Ob       1     SIL   O036V       1     -1.05    15.999
   17446      Ob       1     SIL   O036W       1     -1.05    15.999
   17447      Ob       1     SIL   O036X       1     -1.05    15.999
   17448      Ob       1     SIL   O036Y       1     -1.05    15.999
   17449      Ob       1     SIL   O036Z       1     -1.05    15.999
   17450      Ob       1     SIL   O036a       1     -1.05    15.999
   17451      Si       1     SIL   Si1YJ       1       2.1    28.086
   17452      Si       1     SIL   Si1YK       1       2.1    28.086
   17453      Si       1     SIL   Si1YL       1       2.1    28.086
   17454      Ob       1     SIL   O036b       1     -1.05    15.999
   17455      Ob       1     SIL   O036c       1     -1.05    15.999
   17456      Ob       1     SIL   O036d       1     -1.05    15.999
   17457      Ob       1     SIL   O036e       1     -1.05    15.999
   17458      Ob       1     SIL   O036f       1     -1.05    15.999
   17459      Ob       1     SIL   O036g       1     -1.05    15.999
   17460      Si       1     SIL   Si1YM       1       2.1    28.086
   17461      Si       1     SIL   Si1YN       1       2.1    28.086
   17462      Si       1     SIL   Si1YO       1       2.1    28.086
   17463      Ob       1     SIL   O036h       1     -1.05    15.999
   17464      Ob       1     SIL   O036i       1     -1.05    15.999
   17465      Ob       1     SIL   O036j       1     -1.05    15.999
   17466      Ob       1     SIL   O036k       1     -1.05    15.999
   17467      Ob       1     SIL   O036l       1     -1.05    15.999
   17468      Ob       1     SIL   O036m       1     -1.05    15.999
   17469      Si       1     SIL   Si1YP       1       2.1    28.086
   17470      Si       1     SIL   Si1YQ       1       2.1    28.086
   17471      Si       1     SIL   Si1YR       1       2.1    28.086
   17472      Ob       1     SIL   O036n       1     -1.05    15.999
   17473      Ob       1     SIL   O036o       1     -1.05    15.999
   17474      Ob       1     SIL   O036p       1     -1.05    15.999
   17475      Ob       1     SIL   O036q       1     -1.05    15.999
   17476      Ob       1     SIL   O036r       1     -1.05    15.999
   17477      Ob       1     SIL   O036s       1     -1.05    15.999
   17478      Si       1     SIL   Si1YS       1       2.1    28.086
   17479      Si       1     SIL   Si1YT       1       2.1    28.086
   17480      Si       1     SIL   Si1YU       1       2.1    28.086
   17481      Ob       1     SIL   O036t       1     -1.05    15.999
   17482      Ob       1     SIL   O036u       1     -1.05    15.999
   17483      Ob       1     SIL   O036v       1     -1.05    15.999
   17484      Ob       1     SIL   O036w       1     -1.05    15.999
   17485      Ob       1     SIL   O036x       1     -1.05    15.999
   17486      Ob       1     SIL   O036y       1     -1.05    15.999
   17487      Si       1     SIL   Si1YV       1       2.1    28.086
   17488      Si       1     SIL   Si1YW       1       2.1    28.086
   17489      Si       1     SIL   Si1YX       1       2.1    28.086
   17490      Ob       1     SIL   O036z       1     -1.05    15.999
   17491      Ob       1     SIL   O0370       1     -1.05    15.999
   17492      Ob       1     SIL   O0371       1     -1.05    15.999
   17493      Ob       1     SIL   O0372       1     -1.05    15.999
   17494      Ob       1     SIL   O0373       1     -1.05    15.999
   17495      Ob       1     SIL   O0374       1     -1.05    15.999
   17496      Si       1     SIL   Si1YY       1       2.1    28.086
   17497      Si       1     SIL   Si1YZ       1       2.1    28.086
   17498      Si       1     SIL   Si1Ya       1       2.1    28.086
   17499      Ob       1     SIL   O0375       1     -1.05    15.999
   17500      Ob       1     SIL   O0376       1     -1.05    15.999
   17501      Ob       1     SIL   O0377       1     -1.05    15.999
   17502      Ob       1     SIL   O0378       1     -1.05    15.999
   17503      Ob       1     SIL   O0379       1     -1.05    15.999
   17504      Ob       1     SIL   O037A       1     -1.05    15.999
   17505      Si       1     SIL   Si1Yb       1       2.1    28.086
   17506      Si       1     SIL   Si1Yc       1       2.1    28.086
   17507      Si       1     SIL   Si1Yd       1       2.1    28.086
   17508      Ob       1     SIL   O037B       1     -1.05    15.999
   17509      Ob       1     SIL   O037C       1     -1.05    15.999
   17510      Ob       1     SIL   O037D       1     -1.05    15.999
   17511      Ob       1     SIL   O037E       1     -1.05    15.999
   17512      Ob       1     SIL   O037F       1     -1.05    15.999
   17513      Ob       1     SIL   O037G       1     -1.05    15.999
   17514      Si       1     SIL   Si1Ye       1       2.1    28.086
   17515      Si       1     SIL   Si1Yf       1       2.1    28.086
   17516      Si       1     SIL   Si1Yg       1       2.1    28.086
   17517      Ob       1     SIL   O037H       1     -1.05    15.999
   17518      Ob       1     SIL   O037I       1     -1.05    15.999
   17519      Ob       1     SIL   O037J       1     -1.05    15.999
   17520      Ob       1     SIL   O037K       1     -1.05    15.999
   17521      Ob       1     SIL   O037L       1     -1.05    15.999
   17522      Ob       1     SIL   O037M       1     -1.05    15.999
   17523      Si       1     SIL   Si1Yh       1       2.1    28.086
   17524      Si       1     SIL   Si1Yi       1       2.1    28.086
   17525      Si       1     SIL   Si1Yj       1       2.1    28.086
   17526      Ob       1     SIL   O037N       1     -1.05    15.999
   17527      Ob       1     SIL   O037O       1     -1.05    15.999
   17528      Ob       1     SIL   O037P       1     -1.05    15.999
   17529      Ob       1     SIL   O037Q       1     -1.05    15.999
   17530      Ob       1     SIL   O037R       1     -1.05    15.999
   17531      Ob       1     SIL   O037S       1     -1.05    15.999
   17532      Si       1     SIL   Si1Yk       1       2.1    28.086
   17533      Si       1     SIL   Si1Yl       1       2.1    28.086
   17534      Si       1     SIL   Si1Ym       1       2.1    28.086
   17535      Ob       1     SIL   O037T       1     -1.05    15.999
   17536      Ob       1     SIL   O037U       1     -1.05    15.999
   17537      Ob       1     SIL   O037V       1     -1.05    15.999
   17538      Ob       1     SIL   O037W       1     -1.05    15.999
   17539      Ob       1     SIL   O037X       1     -1.05    15.999
   17540      Ob       1     SIL   O037Y       1     -1.05    15.999
   17541      Si       1     SIL   Si1Yn       1       2.1    28.086
   17542      Si       1     SIL   Si1Yo       1       2.1    28.086
   17543      Si       1     SIL   Si1Yp       1       2.1    28.086
   17544      Ob       1     SIL   O037Z       1     -1.05    15.999
   17545       O       1     SIL   O037a       1    -0.525    15.999
   17546       O       1     SIL   O037b       1    -0.525    15.999
   17547      Ob       1     SIL   O037c       1     -1.05    15.999
   17548      Ob       1     SIL   O037d       1     -1.05    15.999
   17549      Ob       1     SIL   O037e       1     -1.05    15.999
   17550      Si       1     SIL   Si1Yq       1       2.1    28.086
   17551      Si       1     SIL   Si1Yr       1       2.1    28.086
   17552      Si       1     SIL   Si1Ys       1       2.1    28.086
   17553      Ob       1     SIL   O037f       1     -1.05    15.999
   17554      Ob       1     SIL   O037g       1     -1.05    15.999
   17555      Ob       1     SIL   O037h       1     -1.05    15.999
   17556      Ob       1     SIL   O037i       1     -1.05    15.999
   17557      Ob       1     SIL   O037j       1     -1.05    15.999
   17558      Ob       1     SIL   O037k       1     -1.05    15.999
   17559      Si       1     SIL   Si1Yt       1       2.1    28.086
   17560      Si       1     SIL   Si1Yu       1       2.1    28.086
   17561      Si       1     SIL   Si1Yv       1       2.1    28.086
   17562      Ob       1     SIL   O037l       1     -1.05    15.999
   17563      Ob       1     SIL   O037m       1     -1.05    15.999
   17564      Ob       1     SIL   O037n       1     -1.05    15.999
   17565      Ob       1     SIL   O037o       1     -1.05    15.999
   17566      Ob       1     SIL   O037p       1     -1.05    15.999
   17567      Ob       1     SIL   O037q       1     -1.05    15.999
   17568      Si       1     SIL   Si1Yw       1       2.1    28.086
   17569      Si       1     SIL   Si1Yx       1       2.1    28.086
   17570      Si       1     SIL   Si1Yy       1       2.1    28.086
   17571      Ob       1     SIL   O037r       1     -1.05    15.999
   17572      Ob       1     SIL   O037s       1     -1.05    15.999
   17573      Ob       1     SIL   O037t       1     -1.05    15.999
   17574      Ob       1     SIL   O037u       1     -1.05    15.999
   17575      Ob       1     SIL   O037v       1     -1.05    15.999
   17576      Ob       1     SIL   O037w       1     -1.05    15.999
   17577      Si       1     SIL   Si1Yz       1       2.1    28.086
   17578      Si       1     SIL   Si1Z0       1       2.1    28.086
   17579      Si       1     SIL   Si1Z1       1       2.1    28.086
   17580      Ob       1     SIL   O037x       1     -1.05    15.999
   17581      Ob       1     SIL   O037y       1     -1.05    15.999
   17582      Ob       1     SIL   O037z       1     -1.05    15.999
   17583      Ob       1     SIL   O0380       1     -1.05    15.999
   17584      Ob       1     SIL   O0381       1     -1.05    15.999
   17585      Ob       1     SIL   O0382       1     -1.05    15.999
   17586      Si       1     SIL   Si1Z2       1       2.1    28.086
   17587      Si       1     SIL   Si1Z3       1       2.1    28.086
   17588      Si       1     SIL   Si1Z4       1       2.1    28.086
   17589      Ob       1     SIL   O0383       1     -1.05    15.999
   17590      Ob       1     SIL   O0384       1     -1.05    15.999
   17591      Ob       1     SIL   O0385       1     -1.05    15.999
   17592      Ob       1     SIL   O0386       1     -1.05    15.999
   17593      Ob       1     SIL   O0387       1     -1.05    15.999
   17594      Ob       1     SIL   O0388       1     -1.05    15.999
   17595      Si       1     SIL   Si1Z5       1       2.1    28.086
   17596      Si       1     SIL   Si1Z6       1       2.1    28.086
   17597      Si       1     SIL   Si1Z7       1       2.1    28.086
   17598      Ob       1     SIL   O0389       1     -1.05    15.999
   17599      Ob       1     SIL   O038A       1     -1.05    15.999
   17600      Ob       1     SIL   O038B       1     -1.05    15.999
   17601      Ob       1     SIL   O038C       1     -1.05    15.999
   17602      Ob       1     SIL   O038D       1     -1.05    15.999
   17603      Ob       1     SIL   O038E       1     -1.05    15.999
   17604      Si       1     SIL   Si1Z8       1       2.1    28.086
   17605      Si       1     SIL   Si1Z9       1       2.1    28.086
   17606      Si       1     SIL   Si1ZA       1       2.1    28.086
   17607      Ob       1     SIL   O038F       1     -1.05    15.999
   17608      Ob       1     SIL   O038G       1     -1.05    15.999
   17609      Ob       1     SIL   O038H       1     -1.05    15.999
   17610      Ob       1     SIL   O038I       1     -1.05    15.999
   17611      Ob       1     SIL   O038J       1     -1.05    15.999
   17612      Ob       1     SIL   O038K       1     -1.05    15.999
   17613      Si       1     SIL   Si1ZB       1       2.1    28.086
   17614      Si       1     SIL   Si1ZC       1       2.1    28.086
   17615      Si       1     SIL   Si1ZD       1       2.1    28.086
   17616      Ob       1     SIL   O038L       1     -1.05    15.999
   17617      Ob       1     SIL   O038M       1     -1.05    15.999
   17618      Ob       1     SIL   O038N       1     -1.05    15.999
   17619      Ob       1     SIL   O038O       1     -1.05    15.999
   17620      Ob       1     SIL   O038P       1     -1.05    15.999
   17621      Ob       1     SIL   O038Q       1     -1.05    15.999
   17622      Si       1     SIL   Si1ZE       1       2.1    28.086
   17623      Si       1     SIL   Si1ZF       1       2.1    28.086
   17624      Si       1     SIL   Si1ZG       1       2.1    28.086
   17625      Ob       1     SIL   O038R       1     -1.05    15.999
   17626      Ob       1     SIL   O038S       1     -1.05    15.999
   17627      Ob       1     SIL   O038T       1     -1.05    15.999
   17628      Ob       1     SIL   O038U       1     -1.05    15.999
   17629      Ob       1     SIL   O038V       1     -1.05    15.999
   17630      Ob       1     SIL   O038W       1     -1.05    15.999
   17631      Si       1     SIL   Si1ZH       1       2.1    28.086
   17632      Si       1     SIL   Si1ZI       1       2.1    28.086
   17633      Si       1     SIL   Si1ZJ       1       2.1    28.086
   17634      Ob       1     SIL   O038X       1     -1.05    15.999
   17635      Ob       1     SIL   O038Y       1     -1.05    15.999
   17636      Ob       1     SIL   O038Z       1     -1.05    15.999
   17637      Ob       1     SIL   O038a       1     -1.05    15.999
   17638      Ob       1     SIL   O038b       1     -1.05    15.999
   17639      Ob       1     SIL   O038c       1     -1.05    15.999
   17640      Si       1     SIL   Si1ZK       1       2.1    28.086
   17641      Si       1     SIL   Si1ZL       1       2.1    28.086
   17642      Si       1     SIL   Si1ZM       1       2.1    28.086
   17643      Ob       1     SIL   O038d       1     -1.05    15.999
   17644      Ob       1     SIL   O038e       1     -1.05    15.999
   17645      Ob       1     SIL   O038f       1     -1.05    15.999
   17646      Ob       1     SIL   O038g       1     -1.05    15.999
   17647      Ob       1     SIL   O038h       1     -1.05    15.999
   17648      Ob       1     SIL   O038i       1     -1.05    15.999
   17649      Si       1     SIL   Si1ZN       1       2.1    28.086
   17650      Si       1     SIL   Si1ZO       1       2.1    28.086
   17651      Si       1     SIL   Si1ZP       1       2.1    28.086
   17652      Ob       1     SIL   O038j       1     -1.05    15.999
   17653      Ob       1     SIL   O038k       1     -1.05    15.999
   17654      Ob       1     SIL   O038l       1     -1.05    15.999
   17655      Ob       1     SIL   O038m       1     -1.05    15.999
   17656      Ob       1     SIL   O038n       1     -1.05    15.999
   17657      Ob       1     SIL   O038o       1     -1.05    15.999
   17658      Si       1     SIL   Si1ZQ       1       2.1    28.086
   17659      Si       1     SIL   Si1ZR       1       2.1    28.086
   17660      Si       1     SIL   Si1ZS       1       2.1    28.086
   17661      Ob       1     SIL   O038p       1     -1.05    15.999
   17662      Ob       1     SIL   O038q       1     -1.05    15.999
   17663      Ob       1     SIL   O038r       1     -1.05    15.999
   17664      Ob       1     SIL   O038s       1     -1.05    15.999
   17665      Ob       1     SIL   O038t       1     -1.05    15.999
   17666      Ob       1     SIL   O038u       1     -1.05    15.999
   17667      Si       1     SIL   Si1ZT       1       2.1    28.086
   17668      Si       1     SIL   Si1ZU       1       2.1    28.086
   17669      Si       1     SIL   Si1ZV       1       2.1    28.086
   17670      Ob       1     SIL   O038v       1     -1.05    15.999
   17671      Ob       1     SIL   O038w       1     -1.05    15.999
   17672      Ob       1     SIL   O038x       1     -1.05    15.999
   17673      Ob       1     SIL   O038y       1     -1.05    15.999
   17674      Ob       1     SIL   O038z       1     -1.05    15.999
   17675      Ob       1     SIL   O0390       1     -1.05    15.999
   17676      Si       1     SIL   Si1ZW       1       2.1    28.086
   17677      Si       1     SIL   Si1ZX       1       2.1    28.086
   17678      Si       1     SIL   Si1ZY       1       2.1    28.086
   17679      Ob       1     SIL   O0391       1     -1.05    15.999
   17680      Ob       1     SIL   O0392       1     -1.05    15.999
   17681      Ob       1     SIL   O0393       1     -1.05    15.999
   17682      Ob       1     SIL   O0394       1     -1.05    15.999
   17683      Ob       1     SIL   O0395       1     -1.05    15.999
   17684      Ob       1     SIL   O0396       1     -1.05    15.999
   17685      Si       1     SIL   Si1ZZ       1       2.1    28.086
   17686      Si       1     SIL   Si1Za       1       2.1    28.086
   17687      Si       1     SIL   Si1Zb       1       2.1    28.086
   17688      Ob       1     SIL   O0397       1     -1.05    15.999
   17689      Ob       1     SIL   O0398       1     -1.05    15.999
   17690      Ob       1     SIL   O0399       1     -1.05    15.999
   17691      Ob       1     SIL   O039A       1     -1.05    15.999
   17692      Ob       1     SIL   O039B       1     -1.05    15.999
   17693      Ob       1     SIL   O039C       1     -1.05    15.999
   17694      Si       1     SIL   Si1Zc       1       2.1    28.086
   17695      Si       1     SIL   Si1Zd       1       2.1    28.086
   17696      Si       1     SIL   Si1Ze       1       2.1    28.086
   17697      Ob       1     SIL   O039D       1     -1.05    15.999
   17698      Ob       1     SIL   O039E       1     -1.05    15.999
   17699      Ob       1     SIL   O039F       1     -1.05    15.999
   17700      Ob       1     SIL   O039G       1     -1.05    15.999
   17701      Ob       1     SIL   O039H       1     -1.05    15.999
   17702      Ob       1     SIL   O039I       1     -1.05    15.999
   17703      Si       1     SIL   Si1Zf       1       2.1    28.086
   17704      Si       1     SIL   Si1Zg       1       2.1    28.086
   17705      Si       1     SIL   Si1Zh       1       2.1    28.086
   17706      Ob       1     SIL   O039J       1     -1.05    15.999
   17707      Ob       1     SIL   O039K       1     -1.05    15.999
   17708      Ob       1     SIL   O039L       1     -1.05    15.999
   17709      Ob       1     SIL   O039M       1     -1.05    15.999
   17710      Ob       1     SIL   O039N       1     -1.05    15.999
   17711      Ob       1     SIL   O039O       1     -1.05    15.999
   17712      Si       1     SIL   Si1Zi       1       2.1    28.086
   17713      Si       1     SIL   Si1Zj       1       2.1    28.086
   17714      Si       1     SIL   Si1Zk       1       2.1    28.086
   17715      Ob       1     SIL   O039P       1     -1.05    15.999
   17716      Ob       1     SIL   O039Q       1     -1.05    15.999
   17717      Ob       1     SIL   O039R       1     -1.05    15.999
   17718      Ob       1     SIL   O039S       1     -1.05    15.999
   17719      Ob       1     SIL   O039T       1     -1.05    15.999
   17720      Ob       1     SIL   O039U       1     -1.05    15.999
   17721      Si       1     SIL   Si1Zl       1       2.1    28.086
   17722      Si       1     SIL   Si1Zm       1       2.1    28.086
   17723      Si       1     SIL   Si1Zn       1       2.1    28.086
   17724      Ob       1     SIL   O039V       1     -1.05    15.999
   17725      Ob       1     SIL   O039W       1     -1.05    15.999
   17726      Ob       1     SIL   O039X       1     -1.05    15.999
   17727      Ob       1     SIL   O039Y       1     -1.05    15.999
   17728      Ob       1     SIL   O039Z       1     -1.05    15.999
   17729      Ob       1     SIL   O039a       1     -1.05    15.999
   17730      Si       1     SIL   Si1Zo       1       2.1    28.086
   17731      Si       1     SIL   Si1Zp       1       2.1    28.086
   17732      Si       1     SIL   Si1Zq       1       2.1    28.086
   17733      Ob       1     SIL   O039b       1     -1.05    15.999
   17734      Ob       1     SIL   O039c       1     -1.05    15.999
   17735      Ob       1     SIL   O039d       1     -1.05    15.999
   17736      Ob       1     SIL   O039e       1     -1.05    15.999
   17737      Ob       1     SIL   O039f       1     -1.05    15.999
   17738      Ob       1     SIL   O039g       1     -1.05    15.999
   17739      Si       1     SIL   Si1Zr       1       2.1    28.086
   17740      Si       1     SIL   Si1Zs       1       2.1    28.086
   17741      Si       1     SIL   Si1Zt       1       2.1    28.086
   17742      Ob       1     SIL   O039h       1     -1.05    15.999
   17743      Ob       1     SIL   O039i       1     -1.05    15.999
   17744      Ob       1     SIL   O039j       1     -1.05    15.999
   17745      Ob       1     SIL   O039k       1     -1.05    15.999
   17746      Ob       1     SIL   O039l       1     -1.05    15.999
   17747      Ob       1     SIL   O039m       1     -1.05    15.999
   17748      Si       1     SIL   Si1Zu       1       2.1    28.086
   17749      Si       1     SIL   Si1Zv       1       2.1    28.086
   17750      Si       1     SIL   Si1Zw       1       2.1    28.086
   17751      Ob       1     SIL   O039n       1     -1.05    15.999
   17752       O       1     SIL   O039o       1    -0.525    15.999
   17753       O       1     SIL   O039p       1    -0.525    15.999
   17754      Ob       1     SIL   O039q       1     -1.05    15.999
   17755      Ob       1     SIL   O039r       1     -1.05    15.999
   17756      Ob       1     SIL   O039s       1     -1.05    15.999
   17757      Si       1     SIL   Si1Zx       1       2.1    28.086
   17758      Si       1     SIL   Si1Zy       1       2.1    28.086
   17759      Si       1     SIL   Si1Zz       1       2.1    28.086
   17760      Ob       1     SIL   O039t       1     -1.05    15.999
   17761      Ob       1     SIL   O039u       1     -1.05    15.999
   17762      Ob       1     SIL   O039v       1     -1.05    15.999
   17763      Ob       1     SIL   O039w       1     -1.05    15.999
   17764      Ob       1     SIL   O039x       1     -1.05    15.999
   17765      Ob       1     SIL   O039y       1     -1.05    15.999
   17766      Si       1     SIL   Si1a0       1       2.1    28.086
   17767      Si       1     SIL   Si1a1       1       2.1    28.086
   17768      Si       1     SIL   Si1a2       1       2.1    28.086
   17769      Ob       1     SIL   O039z       1     -1.05    15.999
   17770      Ob       1     SIL   O03A0       1     -1.05    15.999
   17771      Ob       1     SIL   O03A1       1     -1.05    15.999
   17772      Ob       1     SIL   O03A2       1     -1.05    15.999
   17773      Ob       1     SIL   O03A3       1     -1.05    15.999
   17774      Ob       1     SIL   O03A4       1     -1.05    15.999
   17775      Si       1     SIL   Si1a3       1       2.1    28.086
   17776      Si       1     SIL   Si1a4       1       2.1    28.086
   17777      Si       1     SIL   Si1a5       1       2.1    28.086
   17778      Ob       1     SIL   O03A5       1     -1.05    15.999
   17779      Ob       1     SIL   O03A6       1     -1.05    15.999
   17780      Ob       1     SIL   O03A7       1     -1.05    15.999
   17781      Ob       1     SIL   O03A8       1     -1.05    15.999
   17782      Ob       1     SIL   O03A9       1     -1.05    15.999
   17783      Ob       1     SIL   O03AA       1     -1.05    15.999
   17784      Si       1     SIL   Si1a6       1       2.1    28.086
   17785      Si       1     SIL   Si1a7       1       2.1    28.086
   17786      Si       1     SIL   Si1a8       1       2.1    28.086
   17787      Ob       1     SIL   O03AB       1     -1.05    15.999
   17788      Ob       1     SIL   O03AC       1     -1.05    15.999
   17789      Ob       1     SIL   O03AD       1     -1.05    15.999
   17790      Ob       1     SIL   O03AE       1     -1.05    15.999
   17791      Ob       1     SIL   O03AF       1     -1.05    15.999
   17792      Ob       1     SIL   O03AG       1     -1.05    15.999
   17793      Si       1     SIL   Si1a9       1       2.1    28.086
   17794      Si       1     SIL   Si1aA       1       2.1    28.086
   17795      Si       1     SIL   Si1aB       1       2.1    28.086
   17796      Ob       1     SIL   O03AH       1     -1.05    15.999
   17797      Ob       1     SIL   O03AI       1     -1.05    15.999
   17798      Ob       1     SIL   O03AJ       1     -1.05    15.999
   17799      Ob       1     SIL   O03AK       1     -1.05    15.999
   17800      Ob       1     SIL   O03AL       1     -1.05    15.999
   17801      Ob       1     SIL   O03AM       1     -1.05    15.999
   17802      Si       1     SIL   Si1aC       1       2.1    28.086
   17803      Si       1     SIL   Si1aD       1       2.1    28.086
   17804      Si       1     SIL   Si1aE       1       2.1    28.086
   17805      Ob       1     SIL   O03AN       1     -1.05    15.999
   17806      Ob       1     SIL   O03AO       1     -1.05    15.999
   17807      Ob       1     SIL   O03AP       1     -1.05    15.999
   17808      Ob       1     SIL   O03AQ       1     -1.05    15.999
   17809      Ob       1     SIL   O03AR       1     -1.05    15.999
   17810      Ob       1     SIL   O03AS       1     -1.05    15.999
   17811      Si       1     SIL   Si1aF       1       2.1    28.086
   17812      Si       1     SIL   Si1aG       1       2.1    28.086
   17813      Si       1     SIL   Si1aH       1       2.1    28.086
   17814      Ob       1     SIL   O03AT       1     -1.05    15.999
   17815      Ob       1     SIL   O03AU       1     -1.05    15.999
   17816      Ob       1     SIL   O03AV       1     -1.05    15.999
   17817      Ob       1     SIL   O03AW       1     -1.05    15.999
   17818      Ob       1     SIL   O03AX       1     -1.05    15.999
   17819      Ob       1     SIL   O03AY       1     -1.05    15.999
   17820      Si       1     SIL   Si1aI       1       2.1    28.086
   17821      Si       1     SIL   Si1aJ       1       2.1    28.086
   17822      Si       1     SIL   Si1aK       1       2.1    28.086
   17823      Ob       1     SIL   O03AZ       1     -1.05    15.999
   17824      Ob       1     SIL   O03Aa       1     -1.05    15.999
   17825      Ob       1     SIL   O03Ab       1     -1.05    15.999
   17826      Ob       1     SIL   O03Ac       1     -1.05    15.999
   17827      Ob       1     SIL   O03Ad       1     -1.05    15.999
   17828      Ob       1     SIL   O03Ae       1     -1.05    15.999
   17829      Si       1     SIL   Si1aL       1       2.1    28.086
   17830      Si       1     SIL   Si1aM       1       2.1    28.086
   17831      Si       1     SIL   Si1aN       1       2.1    28.086
   17832      Ob       1     SIL   O03Af       1     -1.05    15.999
   17833      Ob       1     SIL   O03Ag       1     -1.05    15.999
   17834      Ob       1     SIL   O03Ah       1     -1.05    15.999
   17835      Ob       1     SIL   O03Ai       1     -1.05    15.999
   17836      Ob       1     SIL   O03Aj       1     -1.05    15.999
   17837      Ob       1     SIL   O03Ak       1     -1.05    15.999
   17838      Si       1     SIL   Si1aO       1       2.1    28.086
   17839      Si       1     SIL   Si1aP       1       2.1    28.086
   17840      Si       1     SIL   Si1aQ       1       2.1    28.086
   17841      Ob       1     SIL   O03Al       1     -1.05    15.999
   17842      Ob       1     SIL   O03Am       1     -1.05    15.999
   17843      Ob       1     SIL   O03An       1     -1.05    15.999
   17844      Ob       1     SIL   O03Ao       1     -1.05    15.999
   17845      Ob       1     SIL   O03Ap       1     -1.05    15.999
   17846      Ob       1     SIL   O03Aq       1     -1.05    15.999
   17847      Si       1     SIL   Si1aR       1       2.1    28.086
   17848      Si       1     SIL   Si1aS       1       2.1    28.086
   17849      Si       1     SIL   Si1aT       1       2.1    28.086
   17850      Ob       1     SIL   O03Ar       1     -1.05    15.999
   17851      Ob       1     SIL   O03As       1     -1.05    15.999
   17852      Ob       1     SIL   O03At       1     -1.05    15.999
   17853      Ob       1     SIL   O03Au       1     -1.05    15.999
   17854      Ob       1     SIL   O03Av       1     -1.05    15.999
   17855      Ob       1     SIL   O03Aw       1     -1.05    15.999
   17856      Si       1     SIL   Si1aU       1       2.1    28.086
   17857      Si       1     SIL   Si1aV       1       2.1    28.086
   17858      Si       1     SIL   Si1aW       1       2.1    28.086
   17859      Ob       1     SIL   O03Ax       1     -1.05    15.999
   17860      Ob       1     SIL   O03Ay       1     -1.05    15.999
   17861      Ob       1     SIL   O03Az       1     -1.05    15.999
   17862      Ob       1     SIL   O03B0       1     -1.05    15.999
   17863      Ob       1     SIL   O03B1       1     -1.05    15.999
   17864      Ob       1     SIL   O03B2       1     -1.05    15.999
   17865      Si       1     SIL   Si1aX       1       2.1    28.086
   17866      Si       1     SIL   Si1aY       1       2.1    28.086
   17867      Si       1     SIL   Si1aZ       1       2.1    28.086
   17868      Ob       1     SIL   O03B3       1     -1.05    15.999
   17869      Ob       1     SIL   O03B4       1     -1.05    15.999
   17870      Ob       1     SIL   O03B5       1     -1.05    15.999
   17871      Ob       1     SIL   O03B6       1     -1.05    15.999
   17872      Ob       1     SIL   O03B7       1     -1.05    15.999
   17873      Ob       1     SIL   O03B8       1     -1.05    15.999
   17874      Si       1     SIL   Si1aa       1       2.1    28.086
   17875      Si       1     SIL   Si1ab       1       2.1    28.086
   17876      Si       1     SIL   Si1ac       1       2.1    28.086
   17877      Ob       1     SIL   O03B9       1     -1.05    15.999
   17878      Ob       1     SIL   O03BA       1     -1.05    15.999
   17879      Ob       1     SIL   O03BB       1     -1.05    15.999
   17880      Ob       1     SIL   O03BC       1     -1.05    15.999
   17881      Ob       1     SIL   O03BD       1     -1.05    15.999
   17882      Ob       1     SIL   O03BE       1     -1.05    15.999
   17883      Si       1     SIL   Si1ad       1       2.1    28.086
   17884      Si       1     SIL   Si1ae       1       2.1    28.086
   17885      Si       1     SIL   Si1af       1       2.1    28.086
   17886      Ob       1     SIL   O03BF       1     -1.05    15.999
   17887      Ob       1     SIL   O03BG       1     -1.05    15.999
   17888      Ob       1     SIL   O03BH       1     -1.05    15.999
   17889      Ob       1     SIL   O03BI       1     -1.05    15.999
   17890      Ob       1     SIL   O03BJ       1     -1.05    15.999
   17891      Ob       1     SIL   O03BK       1     -1.05    15.999
   17892      Si       1     SIL   Si1ag       1       2.1    28.086
   17893      Si       1     SIL   Si1ah       1       2.1    28.086
   17894      Si       1     SIL   Si1ai       1       2.1    28.086
   17895      Ob       1     SIL   O03BL       1     -1.05    15.999
   17896      Ob       1     SIL   O03BM       1     -1.05    15.999
   17897      Ob       1     SIL   O03BN       1     -1.05    15.999
   17898      Ob       1     SIL   O03BO       1     -1.05    15.999
   17899      Ob       1     SIL   O03BP       1     -1.05    15.999
   17900      Ob       1     SIL   O03BQ       1     -1.05    15.999
   17901      Si       1     SIL   Si1aj       1       2.1    28.086
   17902      Si       1     SIL   Si1ak       1       2.1    28.086
   17903      Si       1     SIL   Si1al       1       2.1    28.086
   17904      Ob       1     SIL   O03BR       1     -1.05    15.999
   17905      Ob       1     SIL   O03BS       1     -1.05    15.999
   17906      Ob       1     SIL   O03BT       1     -1.05    15.999
   17907      Ob       1     SIL   O03BU       1     -1.05    15.999
   17908      Ob       1     SIL   O03BV       1     -1.05    15.999
   17909      Ob       1     SIL   O03BW       1     -1.05    15.999
   17910      Si       1     SIL   Si1am       1       2.1    28.086
   17911      Si       1     SIL   Si1an       1       2.1    28.086
   17912      Si       1     SIL   Si1ao       1       2.1    28.086
   17913      Ob       1     SIL   O03BX       1     -1.05    15.999
   17914      Ob       1     SIL   O03BY       1     -1.05    15.999
   17915      Ob       1     SIL   O03BZ       1     -1.05    15.999
   17916      Ob       1     SIL   O03Ba       1     -1.05    15.999
   17917      Ob       1     SIL   O03Bb       1     -1.05    15.999
   17918      Ob       1     SIL   O03Bc       1     -1.05    15.999
   17919      Si       1     SIL   Si1ap       1       2.1    28.086
   17920      Si       1     SIL   Si1aq       1       2.1    28.086
   17921      Si       1     SIL   Si1ar       1       2.1    28.086
   17922      Ob       1     SIL   O03Bd       1     -1.05    15.999
   17923      Ob       1     SIL   O03Be       1     -1.05    15.999
   17924      Ob       1     SIL   O03Bf       1     -1.05    15.999
   17925      Ob       1     SIL   O03Bg       1     -1.05    15.999
   17926      Ob       1     SIL   O03Bh       1     -1.05    15.999
   17927      Ob       1     SIL   O03Bi       1     -1.05    15.999
   17928      Si       1     SIL   Si1as       1       2.1    28.086
   17929      Si       1     SIL   Si1at       1       2.1    28.086
   17930      Si       1     SIL   Si1au       1       2.1    28.086
   17931      Ob       1     SIL   O03Bj       1     -1.05    15.999
   17932      Ob       1     SIL   O03Bk       1     -1.05    15.999
   17933      Ob       1     SIL   O03Bl       1     -1.05    15.999
   17934      Ob       1     SIL   O03Bm       1     -1.05    15.999
   17935      Ob       1     SIL   O03Bn       1     -1.05    15.999
   17936      Ob       1     SIL   O03Bo       1     -1.05    15.999
   17937      Si       1     SIL   Si1av       1       2.1    28.086
   17938      Si       1     SIL   Si1aw       1       2.1    28.086
   17939      Si       1     SIL   Si1ax       1       2.1    28.086
   17940      Ob       1     SIL   O03Bp       1     -1.05    15.999
   17941      Ob       1     SIL   O03Bq       1     -1.05    15.999
   17942      Ob       1     SIL   O03Br       1     -1.05    15.999
   17943      Ob       1     SIL   O03Bs       1     -1.05    15.999
   17944      Ob       1     SIL   O03Bt       1     -1.05    15.999
   17945      Ob       1     SIL   O03Bu       1     -1.05    15.999
   17946      Si       1     SIL   Si1ay       1       2.1    28.086
   17947      Si       1     SIL   Si1az       1       2.1    28.086
   17948      Si       1     SIL   Si1b0       1       2.1    28.086
   17949      Ob       1     SIL   O03Bv       1     -1.05    15.999
   17950      Ob       1     SIL   O03Bw       1     -1.05    15.999
   17951      Ob       1     SIL   O03Bx       1     -1.05    15.999
   17952      Ob       1     SIL   O03By       1     -1.05    15.999
   17953      Ob       1     SIL   O03Bz       1     -1.05    15.999
   17954      Ob       1     SIL   O03C0       1     -1.05    15.999
   17955      Si       1     SIL   Si1b1       1       2.1    28.086
   17956      Si       1     SIL   Si1b2       1       2.1    28.086
   17957      Si       1     SIL   Si1b3       1       2.1    28.086
   17958      Ob       1     SIL   O03C1       1     -1.05    15.999
   17959       O       1     SIL   O03C2       1    -0.525    15.999
   17960       O       1     SIL   O03C3       1    -0.525    15.999
   17961      Ob       1     SIL   O03C4       1     -1.05    15.999
   17962      Ob       1     SIL   O03C5       1     -1.05    15.999
   17963      Ob       1     SIL   O03C6       1     -1.05    15.999
   17964      Si       1     SIL   Si1b4       1       2.1    28.086
   17965      Si       1     SIL   Si1b5       1       2.1    28.086
   17966      Si       1     SIL   Si1b6       1       2.1    28.086
   17967      Ob       1     SIL   O03C7       1     -1.05    15.999
   17968      Ob       1     SIL   O03C8       1     -1.05    15.999
   17969      Ob       1     SIL   O03C9       1     -1.05    15.999
   17970      Ob       1     SIL   O03CA       1     -1.05    15.999
   17971      Ob       1     SIL   O03CB       1     -1.05    15.999
   17972      Ob       1     SIL   O03CC       1     -1.05    15.999
   17973      Si       1     SIL   Si1b7       1       2.1    28.086
   17974      Si       1     SIL   Si1b8       1       2.1    28.086
   17975      Si       1     SIL   Si1b9       1       2.1    28.086
   17976      Ob       1     SIL   O03CD       1     -1.05    15.999
   17977      Ob       1     SIL   O03CE       1     -1.05    15.999
   17978      Ob       1     SIL   O03CF       1     -1.05    15.999
   17979      Ob       1     SIL   O03CG       1     -1.05    15.999
   17980      Ob       1     SIL   O03CH       1     -1.05    15.999
   17981      Ob       1     SIL   O03CI       1     -1.05    15.999
   17982      Si       1     SIL   Si1bA       1       2.1    28.086
   17983      Si       1     SIL   Si1bB       1       2.1    28.086
   17984      Si       1     SIL   Si1bC       1       2.1    28.086
   17985      Ob       1     SIL   O03CJ       1     -1.05    15.999
   17986      Ob       1     SIL   O03CK       1     -1.05    15.999
   17987      Ob       1     SIL   O03CL       1     -1.05    15.999
   17988      Ob       1     SIL   O03CM       1     -1.05    15.999
   17989      Ob       1     SIL   O03CN       1     -1.05    15.999
   17990      Ob       1     SIL   O03CO       1     -1.05    15.999
   17991      Si       1     SIL   Si1bD       1       2.1    28.086
   17992      Si       1     SIL   Si1bE       1       2.1    28.086
   17993      Si       1     SIL   Si1bF       1       2.1    28.086
   17994      Ob       1     SIL   O03CP       1     -1.05    15.999
   17995      Ob       1     SIL   O03CQ       1     -1.05    15.999
   17996      Ob       1     SIL   O03CR       1     -1.05    15.999
   17997      Ob       1     SIL   O03CS       1     -1.05    15.999
   17998      Ob       1     SIL   O03CT       1     -1.05    15.999
   17999      Ob       1     SIL   O03CU       1     -1.05    15.999
   18000      Si       1     SIL   Si1bG       1       2.1    28.086
   18001      Si       1     SIL   Si1bH       1       2.1    28.086
   18002      Si       1     SIL   Si1bI       1       2.1    28.086
   18003      Ob       1     SIL   O03CV       1     -1.05    15.999
   18004      Ob       1     SIL   O03CW       1     -1.05    15.999
   18005      Ob       1     SIL   O03CX       1     -1.05    15.999
   18006      Ob       1     SIL   O03CY       1     -1.05    15.999
   18007      Ob       1     SIL   O03CZ       1     -1.05    15.999
   18008      Ob       1     SIL   O03Ca       1     -1.05    15.999
   18009      Si       1     SIL   Si1bJ       1       2.1    28.086
   18010      Si       1     SIL   Si1bK       1       2.1    28.086
   18011      Si       1     SIL   Si1bL       1       2.1    28.086
   18012      Ob       1     SIL   O03Cb       1     -1.05    15.999
   18013      Ob       1     SIL   O03Cc       1     -1.05    15.999
   18014      Ob       1     SIL   O03Cd       1     -1.05    15.999
   18015      Ob       1     SIL   O03Ce       1     -1.05    15.999
   18016      Ob       1     SIL   O03Cf       1     -1.05    15.999
   18017      Ob       1     SIL   O03Cg       1     -1.05    15.999
   18018      Si       1     SIL   Si1bM       1       2.1    28.086
   18019      Si       1     SIL   Si1bN       1       2.1    28.086
   18020      Si       1     SIL   Si1bO       1       2.1    28.086
   18021      Ob       1     SIL   O03Ch       1     -1.05    15.999
   18022      Ob       1     SIL   O03Ci       1     -1.05    15.999
   18023      Ob       1     SIL   O03Cj       1     -1.05    15.999
   18024      Ob       1     SIL   O03Ck       1     -1.05    15.999
   18025      Ob       1     SIL   O03Cl       1     -1.05    15.999
   18026      Ob       1     SIL   O03Cm       1     -1.05    15.999
   18027      Si       1     SIL   Si1bP       1       2.1    28.086
   18028      Si       1     SIL   Si1bQ       1       2.1    28.086
   18029      Si       1     SIL   Si1bR       1       2.1    28.086
   18030      Ob       1     SIL   O03Cn       1     -1.05    15.999
   18031      Ob       1     SIL   O03Co       1     -1.05    15.999
   18032      Ob       1     SIL   O03Cp       1     -1.05    15.999
   18033      Ob       1     SIL   O03Cq       1     -1.05    15.999
   18034      Ob       1     SIL   O03Cr       1     -1.05    15.999
   18035      Ob       1     SIL   O03Cs       1     -1.05    15.999
   18036      Si       1     SIL   Si1bS       1       2.1    28.086
   18037      Si       1     SIL   Si1bT       1       2.1    28.086
   18038      Si       1     SIL   Si1bU       1       2.1    28.086
   18039      Ob       1     SIL   O03Ct       1     -1.05    15.999
   18040      Ob       1     SIL   O03Cu       1     -1.05    15.999
   18041      Ob       1     SIL   O03Cv       1     -1.05    15.999
   18042      Ob       1     SIL   O03Cw       1     -1.05    15.999
   18043      Ob       1     SIL   O03Cx       1     -1.05    15.999
   18044      Ob       1     SIL   O03Cy       1     -1.05    15.999
   18045      Si       1     SIL   Si1bV       1       2.1    28.086
   18046      Si       1     SIL   Si1bW       1       2.1    28.086
   18047      Si       1     SIL   Si1bX       1       2.1    28.086
   18048      Ob       1     SIL   O03Cz       1     -1.05    15.999
   18049      Ob       1     SIL   O03D0       1     -1.05    15.999
   18050      Ob       1     SIL   O03D1       1     -1.05    15.999
   18051      Ob       1     SIL   O03D2       1     -1.05    15.999
   18052      Ob       1     SIL   O03D3       1     -1.05    15.999
   18053      Ob       1     SIL   O03D4       1     -1.05    15.999
   18054      Si       1     SIL   Si1bY       1       2.1    28.086
   18055      Si       1     SIL   Si1bZ       1       2.1    28.086
   18056      Si       1     SIL   Si1ba       1       2.1    28.086
   18057      Ob       1     SIL   O03D5       1     -1.05    15.999
   18058      Ob       1     SIL   O03D6       1     -1.05    15.999
   18059      Ob       1     SIL   O03D7       1     -1.05    15.999
   18060      Ob       1     SIL   O03D8       1     -1.05    15.999
   18061      Ob       1     SIL   O03D9       1     -1.05    15.999
   18062      Ob       1     SIL   O03DA       1     -1.05    15.999
   18063      Si       1     SIL   Si1bb       1       2.1    28.086
   18064      Si       1     SIL   Si1bc       1       2.1    28.086
   18065      Si       1     SIL   Si1bd       1       2.1    28.086
   18066      Ob       1     SIL   O03DB       1     -1.05    15.999
   18067      Ob       1     SIL   O03DC       1     -1.05    15.999
   18068      Ob       1     SIL   O03DD       1     -1.05    15.999
   18069      Ob       1     SIL   O03DE       1     -1.05    15.999
   18070      Ob       1     SIL   O03DF       1     -1.05    15.999
   18071      Ob       1     SIL   O03DG       1     -1.05    15.999
   18072      Si       1     SIL   Si1be       1       2.1    28.086
   18073      Si       1     SIL   Si1bf       1       2.1    28.086
   18074      Si       1     SIL   Si1bg       1       2.1    28.086
   18075      Ob       1     SIL   O03DH       1     -1.05    15.999
   18076      Ob       1     SIL   O03DI       1     -1.05    15.999
   18077      Ob       1     SIL   O03DJ       1     -1.05    15.999
   18078      Ob       1     SIL   O03DK       1     -1.05    15.999
   18079      Ob       1     SIL   O03DL       1     -1.05    15.999
   18080      Ob       1     SIL   O03DM       1     -1.05    15.999
   18081      Si       1     SIL   Si1bh       1       2.1    28.086
   18082      Si       1     SIL   Si1bi       1       2.1    28.086
   18083      Si       1     SIL   Si1bj       1       2.1    28.086
   18084      Ob       1     SIL   O03DN       1     -1.05    15.999
   18085      Ob       1     SIL   O03DO       1     -1.05    15.999
   18086      Ob       1     SIL   O03DP       1     -1.05    15.999
   18087      Ob       1     SIL   O03DQ       1     -1.05    15.999
   18088      Ob       1     SIL   O03DR       1     -1.05    15.999
   18089      Ob       1     SIL   O03DS       1     -1.05    15.999
   18090      Si       1     SIL   Si1bk       1       2.1    28.086
   18091      Si       1     SIL   Si1bl       1       2.1    28.086
   18092      Si       1     SIL   Si1bm       1       2.1    28.086
   18093      Ob       1     SIL   O03DT       1     -1.05    15.999
   18094      Ob       1     SIL   O03DU       1     -1.05    15.999
   18095      Ob       1     SIL   O03DV       1     -1.05    15.999
   18096      Ob       1     SIL   O03DW       1     -1.05    15.999
   18097      Ob       1     SIL   O03DX       1     -1.05    15.999
   18098      Ob       1     SIL   O03DY       1     -1.05    15.999
   18099      Si       1     SIL   Si1bn       1       2.1    28.086
   18100      Si       1     SIL   Si1bo       1       2.1    28.086
   18101      Si       1     SIL   Si1bp       1       2.1    28.086
   18102      Ob       1     SIL   O03DZ       1     -1.05    15.999
   18103      Ob       1     SIL   O03Da       1     -1.05    15.999
   18104      Ob       1     SIL   O03Db       1     -1.05    15.999
   18105      Ob       1     SIL   O03Dc       1     -1.05    15.999
   18106      Ob       1     SIL   O03Dd       1     -1.05    15.999
   18107      Ob       1     SIL   O03De       1     -1.05    15.999
   18108      Si       1     SIL   Si1bq       1       2.1    28.086
   18109      Si       1     SIL   Si1br       1       2.1    28.086
   18110      Si       1     SIL   Si1bs       1       2.1    28.086
   18111      Ob       1     SIL   O03Df       1     -1.05    15.999
   18112      Ob       1     SIL   O03Dg       1     -1.05    15.999
   18113      Ob       1     SIL   O03Dh       1     -1.05    15.999
   18114      Ob       1     SIL   O03Di       1     -1.05    15.999
   18115      Ob       1     SIL   O03Dj       1     -1.05    15.999
   18116      Ob       1     SIL   O03Dk       1     -1.05    15.999
   18117      Si       1     SIL   Si1bt       1       2.1    28.086
   18118      Si       1     SIL   Si1bu       1       2.1    28.086
   18119      Si       1     SIL   Si1bv       1       2.1    28.086
   18120      Ob       1     SIL   O03Dl       1     -1.05    15.999
   18121      Ob       1     SIL   O03Dm       1     -1.05    15.999
   18122      Ob       1     SIL   O03Dn       1     -1.05    15.999
   18123      Ob       1     SIL   O03Do       1     -1.05    15.999
   18124      Ob       1     SIL   O03Dp       1     -1.05    15.999
   18125      Ob       1     SIL   O03Dq       1     -1.05    15.999
   18126      Si       1     SIL   Si1bw       1       2.1    28.086
   18127      Si       1     SIL   Si1bx       1       2.1    28.086
   18128      Si       1     SIL   Si1by       1       2.1    28.086
   18129      Ob       1     SIL   O03Dr       1     -1.05    15.999
   18130      Ob       1     SIL   O03Ds       1     -1.05    15.999
   18131      Ob       1     SIL   O03Dt       1     -1.05    15.999
   18132      Ob       1     SIL   O03Du       1     -1.05    15.999
   18133      Ob       1     SIL   O03Dv       1     -1.05    15.999
   18134      Ob       1     SIL   O03Dw       1     -1.05    15.999
   18135      Si       1     SIL   Si1bz       1       2.1    28.086
   18136      Si       1     SIL   Si1c0       1       2.1    28.086
   18137      Si       1     SIL   Si1c1       1       2.1    28.086
   18138      Ob       1     SIL   O03Dx       1     -1.05    15.999
   18139      Ob       1     SIL   O03Dy       1     -1.05    15.999
   18140      Ob       1     SIL   O03Dz       1     -1.05    15.999
   18141      Ob       1     SIL   O03E0       1     -1.05    15.999
   18142      Ob       1     SIL   O03E1       1     -1.05    15.999
   18143      Ob       1     SIL   O03E2       1     -1.05    15.999
   18144      Si       1     SIL   Si1c2       1       2.1    28.086
   18145      Si       1     SIL   Si1c3       1       2.1    28.086
   18146      Si       1     SIL   Si1c4       1       2.1    28.086
   18147      Ob       1     SIL   O03E3       1     -1.05    15.999
   18148      Ob       1     SIL   O03E4       1     -1.05    15.999
   18149      Ob       1     SIL   O03E5       1     -1.05    15.999
   18150      Ob       1     SIL   O03E6       1     -1.05    15.999
   18151      Ob       1     SIL   O03E7       1     -1.05    15.999
   18152      Ob       1     SIL   O03E8       1     -1.05    15.999
   18153      Si       1     SIL   Si1c5       1       2.1    28.086
   18154      Si       1     SIL   Si1c6       1       2.1    28.086
   18155      Si       1     SIL   Si1c7       1       2.1    28.086
   18156      Ob       1     SIL   O03E9       1     -1.05    15.999
   18157      Ob       1     SIL   O03EA       1     -1.05    15.999
   18158      Ob       1     SIL   O03EB       1     -1.05    15.999
   18159      Ob       1     SIL   O03EC       1     -1.05    15.999
   18160      Ob       1     SIL   O03ED       1     -1.05    15.999
   18161      Ob       1     SIL   O03EE       1     -1.05    15.999
   18162      Si       1     SIL   Si1c8       1       2.1    28.086
   18163      Si       1     SIL   Si1c9       1       2.1    28.086
   18164      Si       1     SIL   Si1cA       1       2.1    28.086
   18165      Ob       1     SIL   O03EF       1     -1.05    15.999
   18166       O       1     SIL   O03EG       1    -0.525    15.999
   18167       O       1     SIL   O03EH       1    -0.525    15.999
   18168      Ob       1     SIL   O03EI       1     -1.05    15.999
   18169      Ob       1     SIL   O03EJ       1     -1.05    15.999
   18170      Ob       1     SIL   O03EK       1     -1.05    15.999
   18171      Si       1     SIL   Si1cB       1       2.1    28.086
   18172      Si       1     SIL   Si1cC       1       2.1    28.086
   18173      Si       1     SIL   Si1cD       1       2.1    28.086
   18174      Ob       1     SIL   O03EL       1     -1.05    15.999
   18175      Ob       1     SIL   O03EM       1     -1.05    15.999
   18176      Ob       1     SIL   O03EN       1     -1.05    15.999
   18177      Ob       1     SIL   O03EO       1     -1.05    15.999
   18178      Ob       1     SIL   O03EP       1     -1.05    15.999
   18179      Ob       1     SIL   O03EQ       1     -1.05    15.999
   18180      Si       1     SIL   Si1cE       1       2.1    28.086
   18181      Si       1     SIL   Si1cF       1       2.1    28.086
   18182      Si       1     SIL   Si1cG       1       2.1    28.086
   18183      Ob       1     SIL   O03ER       1     -1.05    15.999
   18184      Ob       1     SIL   O03ES       1     -1.05    15.999
   18185      Ob       1     SIL   O03ET       1     -1.05    15.999
   18186      Ob       1     SIL   O03EU       1     -1.05    15.999
   18187      Ob       1     SIL   O03EV       1     -1.05    15.999
   18188      Ob       1     SIL   O03EW       1     -1.05    15.999
   18189      Si       1     SIL   Si1cH       1       2.1    28.086
   18190      Si       1     SIL   Si1cI       1       2.1    28.086
   18191      Si       1     SIL   Si1cJ       1       2.1    28.086
   18192      Ob       1     SIL   O03EX       1     -1.05    15.999
   18193      Ob       1     SIL   O03EY       1     -1.05    15.999
   18194      Ob       1     SIL   O03EZ       1     -1.05    15.999
   18195      Ob       1     SIL   O03Ea       1     -1.05    15.999
   18196      Ob       1     SIL   O03Eb       1     -1.05    15.999
   18197      Ob       1     SIL   O03Ec       1     -1.05    15.999
   18198      Si       1     SIL   Si1cK       1       2.1    28.086
   18199      Si       1     SIL   Si1cL       1       2.1    28.086
   18200      Si       1     SIL   Si1cM       1       2.1    28.086
   18201      Ob       1     SIL   O03Ed       1     -1.05    15.999
   18202      Ob       1     SIL   O03Ee       1     -1.05    15.999
   18203      Ob       1     SIL   O03Ef       1     -1.05    15.999
   18204      Ob       1     SIL   O03Eg       1     -1.05    15.999
   18205      Ob       1     SIL   O03Eh       1     -1.05    15.999
   18206      Ob       1     SIL   O03Ei       1     -1.05    15.999
   18207      Si       1     SIL   Si1cN       1       2.1    28.086
   18208      Si       1     SIL   Si1cO       1       2.1    28.086
   18209      Si       1     SIL   Si1cP       1       2.1    28.086
   18210      Ob       1     SIL   O03Ej       1     -1.05    15.999
   18211      Ob       1     SIL   O03Ek       1     -1.05    15.999
   18212      Ob       1     SIL   O03El       1     -1.05    15.999
   18213      Ob       1     SIL   O03Em       1     -1.05    15.999
   18214      Ob       1     SIL   O03En       1     -1.05    15.999
   18215      Ob       1     SIL   O03Eo       1     -1.05    15.999
   18216      Si       1     SIL   Si1cQ       1       2.1    28.086
   18217      Si       1     SIL   Si1cR       1       2.1    28.086
   18218      Si       1     SIL   Si1cS       1       2.1    28.086
   18219      Ob       1     SIL   O03Ep       1     -1.05    15.999
   18220      Ob       1     SIL   O03Eq       1     -1.05    15.999
   18221      Ob       1     SIL   O03Er       1     -1.05    15.999
   18222      Ob       1     SIL   O03Es       1     -1.05    15.999
   18223      Ob       1     SIL   O03Et       1     -1.05    15.999
   18224      Ob       1     SIL   O03Eu       1     -1.05    15.999
   18225      Si       1     SIL   Si1cT       1       2.1    28.086
   18226      Si       1     SIL   Si1cU       1       2.1    28.086
   18227      Si       1     SIL   Si1cV       1       2.1    28.086
   18228      Ob       1     SIL   O03Ev       1     -1.05    15.999
   18229      Ob       1     SIL   O03Ew       1     -1.05    15.999
   18230      Ob       1     SIL   O03Ex       1     -1.05    15.999
   18231      Ob       1     SIL   O03Ey       1     -1.05    15.999
   18232      Ob       1     SIL   O03Ez       1     -1.05    15.999
   18233      Ob       1     SIL   O03F0       1     -1.05    15.999
   18234      Si       1     SIL   Si1cW       1       2.1    28.086
   18235      Si       1     SIL   Si1cX       1       2.1    28.086
   18236      Si       1     SIL   Si1cY       1       2.1    28.086
   18237      Ob       1     SIL   O03F1       1     -1.05    15.999
   18238      Ob       1     SIL   O03F2       1     -1.05    15.999
   18239      Ob       1     SIL   O03F3       1     -1.05    15.999
   18240      Ob       1     SIL   O03F4       1     -1.05    15.999
   18241      Ob       1     SIL   O03F5       1     -1.05    15.999
   18242      Ob       1     SIL   O03F6       1     -1.05    15.999
   18243      Si       1     SIL   Si1cZ       1       2.1    28.086
   18244      Si       1     SIL   Si1ca       1       2.1    28.086
   18245      Si       1     SIL   Si1cb       1       2.1    28.086
   18246      Ob       1     SIL   O03F7       1     -1.05    15.999
   18247      Ob       1     SIL   O03F8       1     -1.05    15.999
   18248      Ob       1     SIL   O03F9       1     -1.05    15.999
   18249      Ob       1     SIL   O03FA       1     -1.05    15.999
   18250      Ob       1     SIL   O03FB       1     -1.05    15.999
   18251      Ob       1     SIL   O03FC       1     -1.05    15.999
   18252      Si       1     SIL   Si1cc       1       2.1    28.086
   18253      Si       1     SIL   Si1cd       1       2.1    28.086
   18254      Si       1     SIL   Si1ce       1       2.1    28.086
   18255      Ob       1     SIL   O03FD       1     -1.05    15.999
   18256      Ob       1     SIL   O03FE       1     -1.05    15.999
   18257      Ob       1     SIL   O03FF       1     -1.05    15.999
   18258      Ob       1     SIL   O03FG       1     -1.05    15.999
   18259      Ob       1     SIL   O03FH       1     -1.05    15.999
   18260      Ob       1     SIL   O03FI       1     -1.05    15.999
   18261      Si       1     SIL   Si1cf       1       2.1    28.086
   18262      Si       1     SIL   Si1cg       1       2.1    28.086
   18263      Si       1     SIL   Si1ch       1       2.1    28.086
   18264      Ob       1     SIL   O03FJ       1     -1.05    15.999
   18265      Ob       1     SIL   O03FK       1     -1.05    15.999
   18266      Ob       1     SIL   O03FL       1     -1.05    15.999
   18267      Ob       1     SIL   O03FM       1     -1.05    15.999
   18268      Ob       1     SIL   O03FN       1     -1.05    15.999
   18269      Ob       1     SIL   O03FO       1     -1.05    15.999
   18270      Si       1     SIL   Si1ci       1       2.1    28.086
   18271      Si       1     SIL   Si1cj       1       2.1    28.086
   18272      Si       1     SIL   Si1ck       1       2.1    28.086
   18273      Ob       1     SIL   O03FP       1     -1.05    15.999
   18274      Ob       1     SIL   O03FQ       1     -1.05    15.999
   18275      Ob       1     SIL   O03FR       1     -1.05    15.999
   18276      Ob       1     SIL   O03FS       1     -1.05    15.999
   18277      Ob       1     SIL   O03FT       1     -1.05    15.999
   18278      Ob       1     SIL   O03FU       1     -1.05    15.999
   18279      Si       1     SIL   Si1cl       1       2.1    28.086
   18280      Si       1     SIL   Si1cm       1       2.1    28.086
   18281      Si       1     SIL   Si1cn       1       2.1    28.086
   18282      Ob       1     SIL   O03FV       1     -1.05    15.999
   18283      Ob       1     SIL   O03FW       1     -1.05    15.999
   18284      Ob       1     SIL   O03FX       1     -1.05    15.999
   18285      Ob       1     SIL   O03FY       1     -1.05    15.999
   18286      Ob       1     SIL   O03FZ       1     -1.05    15.999
   18287      Ob       1     SIL   O03Fa       1     -1.05    15.999
   18288      Si       1     SIL   Si1co       1       2.1    28.086
   18289      Si       1     SIL   Si1cp       1       2.1    28.086
   18290      Si       1     SIL   Si1cq       1       2.1    28.086
   18291      Ob       1     SIL   O03Fb       1     -1.05    15.999
   18292      Ob       1     SIL   O03Fc       1     -1.05    15.999
   18293      Ob       1     SIL   O03Fd       1     -1.05    15.999
   18294      Ob       1     SIL   O03Fe       1     -1.05    15.999
   18295      Ob       1     SIL   O03Ff       1     -1.05    15.999
   18296      Ob       1     SIL   O03Fg       1     -1.05    15.999
   18297      Si       1     SIL   Si1cr       1       2.1    28.086
   18298      Si       1     SIL   Si1cs       1       2.1    28.086
   18299      Si       1     SIL   Si1ct       1       2.1    28.086
   18300      Ob       1     SIL   O03Fh       1     -1.05    15.999
   18301      Ob       1     SIL   O03Fi       1     -1.05    15.999
   18302      Ob       1     SIL   O03Fj       1     -1.05    15.999
   18303      Ob       1     SIL   O03Fk       1     -1.05    15.999
   18304      Ob       1     SIL   O03Fl       1     -1.05    15.999
   18305      Ob       1     SIL   O03Fm       1     -1.05    15.999
   18306      Si       1     SIL   Si1cu       1       2.1    28.086
   18307      Si       1     SIL   Si1cv       1       2.1    28.086
   18308      Si       1     SIL   Si1cw       1       2.1    28.086
   18309      Ob       1     SIL   O03Fn       1     -1.05    15.999
   18310      Ob       1     SIL   O03Fo       1     -1.05    15.999
   18311      Ob       1     SIL   O03Fp       1     -1.05    15.999
   18312      Ob       1     SIL   O03Fq       1     -1.05    15.999
   18313      Ob       1     SIL   O03Fr       1     -1.05    15.999
   18314      Ob       1     SIL   O03Fs       1     -1.05    15.999
   18315      Si       1     SIL   Si1cx       1       2.1    28.086
   18316      Si       1     SIL   Si1cy       1       2.1    28.086
   18317      Si       1     SIL   Si1cz       1       2.1    28.086
   18318      Ob       1     SIL   O03Ft       1     -1.05    15.999
   18319      Ob       1     SIL   O03Fu       1     -1.05    15.999
   18320      Ob       1     SIL   O03Fv       1     -1.05    15.999
   18321      Ob       1     SIL   O03Fw       1     -1.05    15.999
   18322      Ob       1     SIL   O03Fx       1     -1.05    15.999
   18323      Ob       1     SIL   O03Fy       1     -1.05    15.999
   18324      Si       1     SIL   Si1d0       1       2.1    28.086
   18325      Si       1     SIL   Si1d1       1       2.1    28.086
   18326      Si       1     SIL   Si1d2       1       2.1    28.086
   18327      Ob       1     SIL   O03Fz       1     -1.05    15.999
   18328      Ob       1     SIL   O03G0       1     -1.05    15.999
   18329      Ob       1     SIL   O03G1       1     -1.05    15.999
   18330      Ob       1     SIL   O03G2       1     -1.05    15.999
   18331      Ob       1     SIL   O03G3       1     -1.05    15.999
   18332      Ob       1     SIL   O03G4       1     -1.05    15.999
   18333      Si       1     SIL   Si1d3       1       2.1    28.086
   18334      Si       1     SIL   Si1d4       1       2.1    28.086
   18335      Si       1     SIL   Si1d5       1       2.1    28.086
   18336      Ob       1     SIL   O03G5       1     -1.05    15.999
   18337      Ob       1     SIL   O03G6       1     -1.05    15.999
   18338      Ob       1     SIL   O03G7       1     -1.05    15.999
   18339      Ob       1     SIL   O03G8       1     -1.05    15.999
   18340      Ob       1     SIL   O03G9       1     -1.05    15.999
   18341      Ob       1     SIL   O03GA       1     -1.05    15.999
   18342      Si       1     SIL   Si1d6       1       2.1    28.086
   18343      Si       1     SIL   Si1d7       1       2.1    28.086
   18344      Si       1     SIL   Si1d8       1       2.1    28.086
   18345      Ob       1     SIL   O03GB       1     -1.05    15.999
   18346      Ob       1     SIL   O03GC       1     -1.05    15.999
   18347      Ob       1     SIL   O03GD       1     -1.05    15.999
   18348      Ob       1     SIL   O03GE       1     -1.05    15.999
   18349      Ob       1     SIL   O03GF       1     -1.05    15.999
   18350      Ob       1     SIL   O03GG       1     -1.05    15.999
   18351      Si       1     SIL   Si1d9       1       2.1    28.086
   18352      Si       1     SIL   Si1dA       1       2.1    28.086
   18353      Si       1     SIL   Si1dB       1       2.1    28.086
   18354      Ob       1     SIL   O03GH       1     -1.05    15.999
   18355      Ob       1     SIL   O03GI       1     -1.05    15.999
   18356      Ob       1     SIL   O03GJ       1     -1.05    15.999
   18357      Ob       1     SIL   O03GK       1     -1.05    15.999
   18358      Ob       1     SIL   O03GL       1     -1.05    15.999
   18359      Ob       1     SIL   O03GM       1     -1.05    15.999
   18360      Si       1     SIL   Si1dC       1       2.1    28.086
   18361      Si       1     SIL   Si1dD       1       2.1    28.086
   18362      Si       1     SIL   Si1dE       1       2.1    28.086
   18363      Ob       1     SIL   O03GN       1     -1.05    15.999
   18364      Ob       1     SIL   O03GO       1     -1.05    15.999
   18365      Ob       1     SIL   O03GP       1     -1.05    15.999
   18366      Ob       1     SIL   O03GQ       1     -1.05    15.999
   18367      Ob       1     SIL   O03GR       1     -1.05    15.999
   18368      Ob       1     SIL   O03GS       1     -1.05    15.999
   18369      Si       1     SIL   Si1dF       1       2.1    28.086
   18370      Si       1     SIL   Si1dG       1       2.1    28.086
   18371      Si       1     SIL   Si1dH       1       2.1    28.086
   18372      Ob       1     SIL   O03GT       1     -1.05    15.999
   18373       O       1     SIL   O03GU       1    -0.525    15.999
   18374       O       1     SIL   O03GV       1    -0.525    15.999
   18375      Ob       1     SIL   O03GW       1     -1.05    15.999
   18376      Ob       1     SIL   O03GX       1     -1.05    15.999
   18377      Ob       1     SIL   O03GY       1     -1.05    15.999
   18378      Si       1     SIL   Si1dI       1       2.1    28.086
   18379      Si       1     SIL   Si1dJ       1       2.1    28.086
   18380      Si       1     SIL   Si1dK       1       2.1    28.086
   18381      Ob       1     SIL   O03GZ       1     -1.05    15.999
   18382      Ob       1     SIL   O03Ga       1     -1.05    15.999
   18383      Ob       1     SIL   O03Gb       1     -1.05    15.999
   18384      Ob       1     SIL   O03Gc       1     -1.05    15.999
   18385      Ob       1     SIL   O03Gd       1     -1.05    15.999
   18386      Ob       1     SIL   O03Ge       1     -1.05    15.999
   18387      Si       1     SIL   Si1dL       1       2.1    28.086
   18388      Si       1     SIL   Si1dM       1       2.1    28.086
   18389      Si       1     SIL   Si1dN       1       2.1    28.086
   18390      Ob       1     SIL   O03Gf       1     -1.05    15.999
   18391      Ob       1     SIL   O03Gg       1     -1.05    15.999
   18392      Ob       1     SIL   O03Gh       1     -1.05    15.999
   18393      Ob       1     SIL   O03Gi       1     -1.05    15.999
   18394      Ob       1     SIL   O03Gj       1     -1.05    15.999
   18395      Ob       1     SIL   O03Gk       1     -1.05    15.999
   18396      Si       1     SIL   Si1dO       1       2.1    28.086
   18397      Si       1     SIL   Si1dP       1       2.1    28.086
   18398      Si       1     SIL   Si1dQ       1       2.1    28.086
   18399      Ob       1     SIL   O03Gl       1     -1.05    15.999
   18400      Ob       1     SIL   O03Gm       1     -1.05    15.999
   18401      Ob       1     SIL   O03Gn       1     -1.05    15.999
   18402      Ob       1     SIL   O03Go       1     -1.05    15.999
   18403      Ob       1     SIL   O03Gp       1     -1.05    15.999
   18404      Ob       1     SIL   O03Gq       1     -1.05    15.999
   18405      Si       1     SIL   Si1dR       1       2.1    28.086
   18406      Si       1     SIL   Si1dS       1       2.1    28.086
   18407      Si       1     SIL   Si1dT       1       2.1    28.086
   18408      Ob       1     SIL   O03Gr       1     -1.05    15.999
   18409      Ob       1     SIL   O03Gs       1     -1.05    15.999
   18410      Ob       1     SIL   O03Gt       1     -1.05    15.999
   18411      Ob       1     SIL   O03Gu       1     -1.05    15.999
   18412      Ob       1     SIL   O03Gv       1     -1.05    15.999
   18413      Ob       1     SIL   O03Gw       1     -1.05    15.999
   18414      Si       1     SIL   Si1dU       1       2.1    28.086
   18415      Si       1     SIL   Si1dV       1       2.1    28.086
   18416      Si       1     SIL   Si1dW       1       2.1    28.086
   18417      Ob       1     SIL   O03Gx       1     -1.05    15.999
   18418      Ob       1     SIL   O03Gy       1     -1.05    15.999
   18419      Ob       1     SIL   O03Gz       1     -1.05    15.999
   18420      Ob       1     SIL   O03H0       1     -1.05    15.999
   18421      Ob       1     SIL   O03H1       1     -1.05    15.999
   18422      Ob       1     SIL   O03H2       1     -1.05    15.999
   18423      Si       1     SIL   Si1dX       1       2.1    28.086
   18424      Si       1     SIL   Si1dY       1       2.1    28.086
   18425      Si       1     SIL   Si1dZ       1       2.1    28.086
   18426      Ob       1     SIL   O03H3       1     -1.05    15.999
   18427      Ob       1     SIL   O03H4       1     -1.05    15.999
   18428      Ob       1     SIL   O03H5       1     -1.05    15.999
   18429      Ob       1     SIL   O03H6       1     -1.05    15.999
   18430      Ob       1     SIL   O03H7       1     -1.05    15.999
   18431      Ob       1     SIL   O03H8       1     -1.05    15.999
   18432      Si       1     SIL   Si1da       1       2.1    28.086
   18433      Si       1     SIL   Si1db       1       2.1    28.086
   18434      Si       1     SIL   Si1dc       1       2.1    28.086
   18435      Ob       1     SIL   O03H9       1     -1.05    15.999
   18436      Ob       1     SIL   O03HA       1     -1.05    15.999
   18437      Ob       1     SIL   O03HB       1     -1.05    15.999
   18438      Ob       1     SIL   O03HC       1     -1.05    15.999
   18439      Ob       1     SIL   O03HD       1     -1.05    15.999
   18440      Ob       1     SIL   O03HE       1     -1.05    15.999
   18441      Si       1     SIL   Si1dd       1       2.1    28.086
   18442      Si       1     SIL   Si1de       1       2.1    28.086
   18443      Si       1     SIL   Si1df       1       2.1    28.086
   18444      Ob       1     SIL   O03HF       1     -1.05    15.999
   18445      Ob       1     SIL   O03HG       1     -1.05    15.999
   18446      Ob       1     SIL   O03HH       1     -1.05    15.999
   18447      Ob       1     SIL   O03HI       1     -1.05    15.999
   18448      Ob       1     SIL   O03HJ       1     -1.05    15.999
   18449      Ob       1     SIL   O03HK       1     -1.05    15.999
   18450      Si       1     SIL   Si1dg       1       2.1    28.086
   18451      Si       1     SIL   Si1dh       1       2.1    28.086
   18452      Si       1     SIL   Si1di       1       2.1    28.086
   18453      Ob       1     SIL   O03HL       1     -1.05    15.999
   18454      Ob       1     SIL   O03HM       1     -1.05    15.999
   18455      Ob       1     SIL   O03HN       1     -1.05    15.999
   18456      Ob       1     SIL   O03HO       1     -1.05    15.999
   18457      Ob       1     SIL   O03HP       1     -1.05    15.999
   18458      Ob       1     SIL   O03HQ       1     -1.05    15.999
   18459      Si       1     SIL   Si1dj       1       2.1    28.086
   18460      Si       1     SIL   Si1dk       1       2.1    28.086
   18461      Si       1     SIL   Si1dl       1       2.1    28.086
   18462      Ob       1     SIL   O03HR       1     -1.05    15.999
   18463      Ob       1     SIL   O03HS       1     -1.05    15.999
   18464      Ob       1     SIL   O03HT       1     -1.05    15.999
   18465      Ob       1     SIL   O03HU       1     -1.05    15.999
   18466      Ob       1     SIL   O03HV       1     -1.05    15.999
   18467      Ob       1     SIL   O03HW       1     -1.05    15.999
   18468      Si       1     SIL   Si1dm       1       2.1    28.086
   18469      Si       1     SIL   Si1dn       1       2.1    28.086
   18470      Si       1     SIL   Si1do       1       2.1    28.086
   18471      Ob       1     SIL   O03HX       1     -1.05    15.999
   18472      Ob       1     SIL   O03HY       1     -1.05    15.999
   18473      Ob       1     SIL   O03HZ       1     -1.05    15.999
   18474      Ob       1     SIL   O03Ha       1     -1.05    15.999
   18475      Ob       1     SIL   O03Hb       1     -1.05    15.999
   18476      Ob       1     SIL   O03Hc       1     -1.05    15.999
   18477      Si       1     SIL   Si1dp       1       2.1    28.086
   18478      Si       1     SIL   Si1dq       1       2.1    28.086
   18479      Si       1     SIL   Si1dr       1       2.1    28.086
   18480      Ob       1     SIL   O03Hd       1     -1.05    15.999
   18481      Ob       1     SIL   O03He       1     -1.05    15.999
   18482      Ob       1     SIL   O03Hf       1     -1.05    15.999
   18483      Ob       1     SIL   O03Hg       1     -1.05    15.999
   18484      Ob       1     SIL   O03Hh       1     -1.05    15.999
   18485      Ob       1     SIL   O03Hi       1     -1.05    15.999
   18486      Si       1     SIL   Si1ds       1       2.1    28.086
   18487      Si       1     SIL   Si1dt       1       2.1    28.086
   18488      Si       1     SIL   Si1du       1       2.1    28.086
   18489      Ob       1     SIL   O03Hj       1     -1.05    15.999
   18490      Ob       1     SIL   O03Hk       1     -1.05    15.999
   18491      Ob       1     SIL   O03Hl       1     -1.05    15.999
   18492      Ob       1     SIL   O03Hm       1     -1.05    15.999
   18493      Ob       1     SIL   O03Hn       1     -1.05    15.999
   18494      Ob       1     SIL   O03Ho       1     -1.05    15.999
   18495      Si       1     SIL   Si1dv       1       2.1    28.086
   18496      Si       1     SIL   Si1dw       1       2.1    28.086
   18497      Si       1     SIL   Si1dx       1       2.1    28.086
   18498      Ob       1     SIL   O03Hp       1     -1.05    15.999
   18499      Ob       1     SIL   O03Hq       1     -1.05    15.999
   18500      Ob       1     SIL   O03Hr       1     -1.05    15.999
   18501      Ob       1     SIL   O03Hs       1     -1.05    15.999
   18502      Ob       1     SIL   O03Ht       1     -1.05    15.999
   18503      Ob       1     SIL   O03Hu       1     -1.05    15.999
   18504      Si       1     SIL   Si1dy       1       2.1    28.086
   18505      Si       1     SIL   Si1dz       1       2.1    28.086
   18506      Si       1     SIL   Si1e0       1       2.1    28.086
   18507      Ob       1     SIL   O03Hv       1     -1.05    15.999
   18508      Ob       1     SIL   O03Hw       1     -1.05    15.999
   18509      Ob       1     SIL   O03Hx       1     -1.05    15.999
   18510      Ob       1     SIL   O03Hy       1     -1.05    15.999
   18511      Ob       1     SIL   O03Hz       1     -1.05    15.999
   18512      Ob       1     SIL   O03I0       1     -1.05    15.999
   18513      Si       1     SIL   Si1e1       1       2.1    28.086
   18514      Si       1     SIL   Si1e2       1       2.1    28.086
   18515      Si       1     SIL   Si1e3       1       2.1    28.086
   18516      Ob       1     SIL   O03I1       1     -1.05    15.999
   18517      Ob       1     SIL   O03I2       1     -1.05    15.999
   18518      Ob       1     SIL   O03I3       1     -1.05    15.999
   18519      Ob       1     SIL   O03I4       1     -1.05    15.999
   18520      Ob       1     SIL   O03I5       1     -1.05    15.999
   18521      Ob       1     SIL   O03I6       1     -1.05    15.999
   18522      Si       1     SIL   Si1e4       1       2.1    28.086
   18523      Si       1     SIL   Si1e5       1       2.1    28.086
   18524      Si       1     SIL   Si1e6       1       2.1    28.086
   18525      Ob       1     SIL   O03I7       1     -1.05    15.999
   18526      Ob       1     SIL   O03I8       1     -1.05    15.999
   18527      Ob       1     SIL   O03I9       1     -1.05    15.999
   18528      Ob       1     SIL   O03IA       1     -1.05    15.999
   18529      Ob       1     SIL   O03IB       1     -1.05    15.999
   18530      Ob       1     SIL   O03IC       1     -1.05    15.999
   18531      Si       1     SIL   Si1e7       1       2.1    28.086
   18532      Si       1     SIL   Si1e8       1       2.1    28.086
   18533      Si       1     SIL   Si1e9       1       2.1    28.086
   18534      Ob       1     SIL   O03ID       1     -1.05    15.999
   18535      Ob       1     SIL   O03IE       1     -1.05    15.999
   18536      Ob       1     SIL   O03IF       1     -1.05    15.999
   18537      Ob       1     SIL   O03IG       1     -1.05    15.999
   18538      Ob       1     SIL   O03IH       1     -1.05    15.999
   18539      Ob       1     SIL   O03II       1     -1.05    15.999
   18540      Si       1     SIL   Si1eA       1       2.1    28.086
   18541      Si       1     SIL   Si1eB       1       2.1    28.086
   18542      Si       1     SIL   Si1eC       1       2.1    28.086
   18543      Ob       1     SIL   O03IJ       1     -1.05    15.999
   18544      Ob       1     SIL   O03IK       1     -1.05    15.999
   18545      Ob       1     SIL   O03IL       1     -1.05    15.999
   18546      Ob       1     SIL   O03IM       1     -1.05    15.999
   18547      Ob       1     SIL   O03IN       1     -1.05    15.999
   18548      Ob       1     SIL   O03IO       1     -1.05    15.999
   18549      Si       1     SIL   Si1eD       1       2.1    28.086
   18550      Si       1     SIL   Si1eE       1       2.1    28.086
   18551      Si       1     SIL   Si1eF       1       2.1    28.086
   18552      Ob       1     SIL   O03IP       1     -1.05    15.999
   18553      Ob       1     SIL   O03IQ       1     -1.05    15.999
   18554      Ob       1     SIL   O03IR       1     -1.05    15.999
   18555      Ob       1     SIL   O03IS       1     -1.05    15.999
   18556      Ob       1     SIL   O03IT       1     -1.05    15.999
   18557      Ob       1     SIL   O03IU       1     -1.05    15.999
   18558      Si       1     SIL   Si1eG       1       2.1    28.086
   18559      Si       1     SIL   Si1eH       1       2.1    28.086
   18560      Si       1     SIL   Si1eI       1       2.1    28.086
   18561      Ob       1     SIL   O03IV       1     -1.05    15.999
   18562      Ob       1     SIL   O03IW       1     -1.05    15.999
   18563      Ob       1     SIL   O03IX       1     -1.05    15.999
   18564      Ob       1     SIL   O03IY       1     -1.05    15.999
   18565      Ob       1     SIL   O03IZ       1     -1.05    15.999
   18566      Ob       1     SIL   O03Ia       1     -1.05    15.999
   18567      Si       1     SIL   Si1eJ       1       2.1    28.086
   18568      Si       1     SIL   Si1eK       1       2.1    28.086
   18569      Si       1     SIL   Si1eL       1       2.1    28.086
   18570      Ob       1     SIL   O03Ib       1     -1.05    15.999
   18571      Ob       1     SIL   O03Ic       1     -1.05    15.999
   18572      Ob       1     SIL   O03Id       1     -1.05    15.999
   18573      Ob       1     SIL   O03Ie       1     -1.05    15.999
   18574      Ob       1     SIL   O03If       1     -1.05    15.999
   18575      Ob       1     SIL   O03Ig       1     -1.05    15.999
   18576      Si       1     SIL   Si1eM       1       2.1    28.086
   18577      Si       1     SIL   Si1eN       1       2.1    28.086
   18578      Si       1     SIL   Si1eO       1       2.1    28.086
   18579      Ob       1     SIL   O03Ih       1     -1.05    15.999
   18580       O       1     SIL   O03Ii       1    -0.525    15.999
   18581       O       1     SIL   O03Ij       1    -0.525    15.999
   18582      Ob       1     SIL   O03Ik       1     -1.05    15.999
   18583      Ob       1     SIL   O03Il       1     -1.05    15.999
   18584      Ob       1     SIL   O03Im       1     -1.05    15.999
   18585      Si       1     SIL   Si1eP       1       2.1    28.086
   18586      Si       1     SIL   Si1eQ       1       2.1    28.086
   18587      Si       1     SIL   Si1eR       1       2.1    28.086
   18588      Ob       1     SIL   O03In       1     -1.05    15.999
   18589      Ob       1     SIL   O03Io       1     -1.05    15.999
   18590      Ob       1     SIL   O03Ip       1     -1.05    15.999
   18591      Ob       1     SIL   O03Iq       1     -1.05    15.999
   18592      Ob       1     SIL   O03Ir       1     -1.05    15.999
   18593      Ob       1     SIL   O03Is       1     -1.05    15.999
   18594      Si       1     SIL   Si1eS       1       2.1    28.086
   18595      Si       1     SIL   Si1eT       1       2.1    28.086
   18596      Si       1     SIL   Si1eU       1       2.1    28.086
   18597      Ob       1     SIL   O03It       1     -1.05    15.999
   18598      Ob       1     SIL   O03Iu       1     -1.05    15.999
   18599      Ob       1     SIL   O03Iv       1     -1.05    15.999
   18600      Ob       1     SIL   O03Iw       1     -1.05    15.999
   18601      Ob       1     SIL   O03Ix       1     -1.05    15.999
   18602      Ob       1     SIL   O03Iy       1     -1.05    15.999
   18603      Si       1     SIL   Si1eV       1       2.1    28.086
   18604      Si       1     SIL   Si1eW       1       2.1    28.086
   18605      Si       1     SIL   Si1eX       1       2.1    28.086
   18606      Ob       1     SIL   O03Iz       1     -1.05    15.999
   18607      Ob       1     SIL   O03J0       1     -1.05    15.999
   18608      Ob       1     SIL   O03J1       1     -1.05    15.999
   18609      Ob       1     SIL   O03J2       1     -1.05    15.999
   18610      Ob       1     SIL   O03J3       1     -1.05    15.999
   18611      Ob       1     SIL   O03J4       1     -1.05    15.999
   18612      Si       1     SIL   Si1eY       1       2.1    28.086
   18613      Si       1     SIL   Si1eZ       1       2.1    28.086
   18614      Si       1     SIL   Si1ea       1       2.1    28.086
   18615      Ob       1     SIL   O03J5       1     -1.05    15.999
   18616      Ob       1     SIL   O03J6       1     -1.05    15.999
   18617      Ob       1     SIL   O03J7       1     -1.05    15.999
   18618      Ob       1     SIL   O03J8       1     -1.05    15.999
   18619      Ob       1     SIL   O03J9       1     -1.05    15.999
   18620      Ob       1     SIL   O03JA       1     -1.05    15.999
   18621      Si       1     SIL   Si1eb       1       2.1    28.086
   18622      Si       1     SIL   Si1ec       1       2.1    28.086
   18623      Si       1     SIL   Si1ed       1       2.1    28.086
   18624      Ob       1     SIL   O03JB       1     -1.05    15.999
   18625      Ob       1     SIL   O03JC       1     -1.05    15.999
   18626      Ob       1     SIL   O03JD       1     -1.05    15.999
   18627      Ob       1     SIL   O03JE       1     -1.05    15.999
   18628      Ob       1     SIL   O03JF       1     -1.05    15.999
   18629      Ob       1     SIL   O03JG       1     -1.05    15.999
   18630      Si       1     SIL   Si1ee       1       2.1    28.086
   18631      Si       1     SIL   Si1ef       1       2.1    28.086
   18632      Si       1     SIL   Si1eg       1       2.1    28.086
   18633      Ob       1     SIL   O03JH       1     -1.05    15.999
   18634      Ob       1     SIL   O03JI       1     -1.05    15.999
   18635      Ob       1     SIL   O03JJ       1     -1.05    15.999
   18636      Ob       1     SIL   O03JK       1     -1.05    15.999
   18637      Ob       1     SIL   O03JL       1     -1.05    15.999
   18638      Ob       1     SIL   O03JM       1     -1.05    15.999
   18639      Si       1     SIL   Si1eh       1       2.1    28.086
   18640      Si       1     SIL   Si1ei       1       2.1    28.086
   18641      Si       1     SIL   Si1ej       1       2.1    28.086
   18642      Ob       1     SIL   O03JN       1     -1.05    15.999
   18643      Ob       1     SIL   O03JO       1     -1.05    15.999
   18644      Ob       1     SIL   O03JP       1     -1.05    15.999
   18645      Ob       1     SIL   O03JQ       1     -1.05    15.999
   18646      Ob       1     SIL   O03JR       1     -1.05    15.999
   18647      Ob       1     SIL   O03JS       1     -1.05    15.999
   18648      Si       1     SIL   Si1ek       1       2.1    28.086
   18649      Si       1     SIL   Si1el       1       2.1    28.086
   18650      Si       1     SIL   Si1em       1       2.1    28.086
   18651      Ob       1     SIL   O03JT       1     -1.05    15.999
   18652      Ob       1     SIL   O03JU       1     -1.05    15.999
   18653      Ob       1     SIL   O03JV       1     -1.05    15.999
   18654      Ob       1     SIL   O03JW       1     -1.05    15.999
   18655      Ob       1     SIL   O03JX       1     -1.05    15.999
   18656      Ob       1     SIL   O03JY       1     -1.05    15.999
   18657      Si       1     SIL   Si1en       1       2.1    28.086
   18658      Si       1     SIL   Si1eo       1       2.1    28.086
   18659      Si       1     SIL   Si1ep       1       2.1    28.086
   18660      Ob       1     SIL   O03JZ       1     -1.05    15.999
   18661      Ob       1     SIL   O03Ja       1     -1.05    15.999
   18662      Ob       1     SIL   O03Jb       1     -1.05    15.999
   18663      Ob       1     SIL   O03Jc       1     -1.05    15.999
   18664      Ob       1     SIL   O03Jd       1     -1.05    15.999
   18665      Ob       1     SIL   O03Je       1     -1.05    15.999
   18666      Si       1     SIL   Si1eq       1       2.1    28.086
   18667      Si       1     SIL   Si1er       1       2.1    28.086
   18668      Si       1     SIL   Si1es       1       2.1    28.086
   18669      Ob       1     SIL   O03Jf       1     -1.05    15.999
   18670      Ob       1     SIL   O03Jg       1     -1.05    15.999
   18671      Ob       1     SIL   O03Jh       1     -1.05    15.999
   18672      Ob       1     SIL   O03Ji       1     -1.05    15.999
   18673      Ob       1     SIL   O03Jj       1     -1.05    15.999
   18674      Ob       1     SIL   O03Jk       1     -1.05    15.999
   18675      Si       1     SIL   Si1et       1       2.1    28.086
   18676      Si       1     SIL   Si1eu       1       2.1    28.086
   18677      Si       1     SIL   Si1ev       1       2.1    28.086
   18678      Ob       1     SIL   O03Jl       1     -1.05    15.999
   18679      Ob       1     SIL   O03Jm       1     -1.05    15.999
   18680      Ob       1     SIL   O03Jn       1     -1.05    15.999
   18681      Ob       1     SIL   O03Jo       1     -1.05    15.999
   18682      Ob       1     SIL   O03Jp       1     -1.05    15.999
   18683      Ob       1     SIL   O03Jq       1     -1.05    15.999
   18684      Si       1     SIL   Si1ew       1       2.1    28.086
   18685      Si       1     SIL   Si1ex       1       2.1    28.086
   18686      Si       1     SIL   Si1ey       1       2.1    28.086
   18687      Ob       1     SIL   O03Jr       1     -1.05    15.999
   18688      Ob       1     SIL   O03Js       1     -1.05    15.999
   18689      Ob       1     SIL   O03Jt       1     -1.05    15.999
   18690      Ob       1     SIL   O03Ju       1     -1.05    15.999
   18691      Ob       1     SIL   O03Jv       1     -1.05    15.999
   18692      Ob       1     SIL   O03Jw       1     -1.05    15.999
   18693      Si       1     SIL   Si1ez       1       2.1    28.086
   18694      Si       1     SIL   Si1f0       1       2.1    28.086
   18695      Si       1     SIL   Si1f1       1       2.1    28.086
   18696      Ob       1     SIL   O03Jx       1     -1.05    15.999
   18697      Ob       1     SIL   O03Jy       1     -1.05    15.999
   18698      Ob       1     SIL   O03Jz       1     -1.05    15.999
   18699      Ob       1     SIL   O03K0       1     -1.05    15.999
   18700      Ob       1     SIL   O03K1       1     -1.05    15.999
   18701      Ob       1     SIL   O03K2       1     -1.05    15.999
   18702      Si       1     SIL   Si1f2       1       2.1    28.086
   18703      Si       1     SIL   Si1f3       1       2.1    28.086
   18704      Si       1     SIL   Si1f4       1       2.1    28.086
   18705      Ob       1     SIL   O03K3       1     -1.05    15.999
   18706      Ob       1     SIL   O03K4       1     -1.05    15.999
   18707      Ob       1     SIL   O03K5       1     -1.05    15.999
   18708      Ob       1     SIL   O03K6       1     -1.05    15.999
   18709      Ob       1     SIL   O03K7       1     -1.05    15.999
   18710      Ob       1     SIL   O03K8       1     -1.05    15.999
   18711      Si       1     SIL   Si1f5       1       2.1    28.086
   18712      Si       1     SIL   Si1f6       1       2.1    28.086
   18713      Si       1     SIL   Si1f7       1       2.1    28.086
   18714      Ob       1     SIL   O03K9       1     -1.05    15.999
   18715      Ob       1     SIL   O03KA       1     -1.05    15.999
   18716      Ob       1     SIL   O03KB       1     -1.05    15.999
   18717      Ob       1     SIL   O03KC       1     -1.05    15.999
   18718      Ob       1     SIL   O03KD       1     -1.05    15.999
   18719      Ob       1     SIL   O03KE       1     -1.05    15.999
   18720      Si       1     SIL   Si1f8       1       2.1    28.086
   18721      Si       1     SIL   Si1f9       1       2.1    28.086
   18722      Si       1     SIL   Si1fA       1       2.1    28.086
   18723      Ob       1     SIL   O03KF       1     -1.05    15.999
   18724      Ob       1     SIL   O03KG       1     -1.05    15.999
   18725      Ob       1     SIL   O03KH       1     -1.05    15.999
   18726      Ob       1     SIL   O03KI       1     -1.05    15.999
   18727      Ob       1     SIL   O03KJ       1     -1.05    15.999
   18728      Ob       1     SIL   O03KK       1     -1.05    15.999
   18729      Si       1     SIL   Si1fB       1       2.1    28.086
   18730      Si       1     SIL   Si1fC       1       2.1    28.086
   18731      Si       1     SIL   Si1fD       1       2.1    28.086
   18732      Ob       1     SIL   O03KL       1     -1.05    15.999
   18733      Ob       1     SIL   O03KM       1     -1.05    15.999
   18734      Ob       1     SIL   O03KN       1     -1.05    15.999
   18735      Ob       1     SIL   O03KO       1     -1.05    15.999
   18736      Ob       1     SIL   O03KP       1     -1.05    15.999
   18737      Ob       1     SIL   O03KQ       1     -1.05    15.999
   18738      Si       1     SIL   Si1fE       1       2.1    28.086
   18739      Si       1     SIL   Si1fF       1       2.1    28.086
   18740      Si       1     SIL   Si1fG       1       2.1    28.086
   18741      Ob       1     SIL   O03KR       1     -1.05    15.999
   18742      Ob       1     SIL   O03KS       1     -1.05    15.999
   18743      Ob       1     SIL   O03KT       1     -1.05    15.999
   18744      Ob       1     SIL   O03KU       1     -1.05    15.999
   18745      Ob       1     SIL   O03KV       1     -1.05    15.999
   18746      Ob       1     SIL   O03KW       1     -1.05    15.999
   18747      Si       1     SIL   Si1fH       1       2.1    28.086
   18748      Si       1     SIL   Si1fI       1       2.1    28.086
   18749      Si       1     SIL   Si1fJ       1       2.1    28.086
   18750      Ob       1     SIL   O03KX       1     -1.05    15.999
   18751      Ob       1     SIL   O03KY       1     -1.05    15.999
   18752      Ob       1     SIL   O03KZ       1     -1.05    15.999
   18753      Ob       1     SIL   O03Ka       1     -1.05    15.999
   18754      Ob       1     SIL   O03Kb       1     -1.05    15.999
   18755      Ob       1     SIL   O03Kc       1     -1.05    15.999
   18756      Si       1     SIL   Si1fK       1       2.1    28.086
   18757      Si       1     SIL   Si1fL       1       2.1    28.086
   18758      Si       1     SIL   Si1fM       1       2.1    28.086
   18759      Ob       1     SIL   O03Kd       1     -1.05    15.999
   18760      Ob       1     SIL   O03Ke       1     -1.05    15.999
   18761      Ob       1     SIL   O03Kf       1     -1.05    15.999
   18762      Ob       1     SIL   O03Kg       1     -1.05    15.999
   18763      Ob       1     SIL   O03Kh       1     -1.05    15.999
   18764      Ob       1     SIL   O03Ki       1     -1.05    15.999
   18765      Si       1     SIL   Si1fN       1       2.1    28.086
   18766      Si       1     SIL   Si1fO       1       2.1    28.086
   18767      Si       1     SIL   Si1fP       1       2.1    28.086
   18768      Ob       1     SIL   O03Kj       1     -1.05    15.999
   18769      Ob       1     SIL   O03Kk       1     -1.05    15.999
   18770      Ob       1     SIL   O03Kl       1     -1.05    15.999
   18771      Ob       1     SIL   O03Km       1     -1.05    15.999
   18772      Ob       1     SIL   O03Kn       1     -1.05    15.999
   18773      Ob       1     SIL   O03Ko       1     -1.05    15.999
   18774      Si       1     SIL   Si1fQ       1       2.1    28.086
   18775      Si       1     SIL   Si1fR       1       2.1    28.086
   18776      Si       1     SIL   Si1fS       1       2.1    28.086
   18777      Ob       1     SIL   O03Kp       1     -1.05    15.999
   18778      Ob       1     SIL   O03Kq       1     -1.05    15.999
   18779      Ob       1     SIL   O03Kr       1     -1.05    15.999
   18780      Ob       1     SIL   O03Ks       1     -1.05    15.999
   18781      Ob       1     SIL   O03Kt       1     -1.05    15.999
   18782      Ob       1     SIL   O03Ku       1     -1.05    15.999
   18783      Si       1     SIL   Si1fT       1       2.1    28.086
   18784      Si       1     SIL   Si1fU       1       2.1    28.086
   18785      Si       1     SIL   Si1fV       1       2.1    28.086
   18786      Ob       1     SIL   O03Kv       1     -1.05    15.999
   18787       O       1     SIL   O03Kw       1    -0.525    15.999
   18788       O       1     SIL   O03Kx       1    -0.525    15.999
   18789      Ob       1     SIL   O03Ky       1     -1.05    15.999
   18790      Ob       1     SIL   O03Kz       1     -1.05    15.999
   18791      Ob       1     SIL   O03L0       1     -1.05    15.999
   18792      Si       1     SIL   Si1fW       1       2.1    28.086
   18793      Si       1     SIL   Si1fX       1       2.1    28.086
   18794      Si       1     SIL   Si1fY       1       2.1    28.086
   18795      Ob       1     SIL   O03L1       1     -1.05    15.999
   18796      Ob       1     SIL   O03L2       1     -1.05    15.999
   18797      Ob       1     SIL   O03L3       1     -1.05    15.999
   18798      Ob       1     SIL   O03L4       1     -1.05    15.999
   18799      Ob       1     SIL   O03L5       1     -1.05    15.999
   18800      Ob       1     SIL   O03L6       1     -1.05    15.999
   18801      Si       1     SIL   Si1fZ       1       2.1    28.086
   18802      Si       1     SIL   Si1fa       1       2.1    28.086
   18803      Si       1     SIL   Si1fb       1       2.1    28.086
   18804      Ob       1     SIL   O03L7       1     -1.05    15.999
   18805      Ob       1     SIL   O03L8       1     -1.05    15.999
   18806      Ob       1     SIL   O03L9       1     -1.05    15.999
   18807      Ob       1     SIL   O03LA       1     -1.05    15.999
   18808      Ob       1     SIL   O03LB       1     -1.05    15.999
   18809      Ob       1     SIL   O03LC       1     -1.05    15.999
   18810      Si       1     SIL   Si1fc       1       2.1    28.086
   18811      Si       1     SIL   Si1fd       1       2.1    28.086
   18812      Si       1     SIL   Si1fe       1       2.1    28.086
   18813      Ob       1     SIL   O03LD       1     -1.05    15.999
   18814      Ob       1     SIL   O03LE       1     -1.05    15.999
   18815      Ob       1     SIL   O03LF       1     -1.05    15.999
   18816      Ob       1     SIL   O03LG       1     -1.05    15.999
   18817      Ob       1     SIL   O03LH       1     -1.05    15.999
   18818      Ob       1     SIL   O03LI       1     -1.05    15.999
   18819      Si       1     SIL   Si1ff       1       2.1    28.086
   18820      Si       1     SIL   Si1fg       1       2.1    28.086
   18821      Si       1     SIL   Si1fh       1       2.1    28.086
   18822      Ob       1     SIL   O03LJ       1     -1.05    15.999
   18823      Ob       1     SIL   O03LK       1     -1.05    15.999
   18824      Ob       1     SIL   O03LL       1     -1.05    15.999
   18825      Ob       1     SIL   O03LM       1     -1.05    15.999
   18826      Ob       1     SIL   O03LN       1     -1.05    15.999
   18827      Ob       1     SIL   O03LO       1     -1.05    15.999
   18828      Si       1     SIL   Si1fi       1       2.1    28.086
   18829      Si       1     SIL   Si1fj       1       2.1    28.086
   18830      Si       1     SIL   Si1fk       1       2.1    28.086
   18831      Ob       1     SIL   O03LP       1     -1.05    15.999
   18832      Ob       1     SIL   O03LQ       1     -1.05    15.999
   18833      Ob       1     SIL   O03LR       1     -1.05    15.999
   18834      Ob       1     SIL   O03LS       1     -1.05    15.999
   18835      Ob       1     SIL   O03LT       1     -1.05    15.999
   18836      Ob       1     SIL   O03LU       1     -1.05    15.999
   18837      Si       1     SIL   Si1fl       1       2.1    28.086
   18838      Si       1     SIL   Si1fm       1       2.1    28.086
   18839      Si       1     SIL   Si1fn       1       2.1    28.086
   18840      Ob       1     SIL   O03LV       1     -1.05    15.999
   18841      Ob       1     SIL   O03LW       1     -1.05    15.999
   18842      Ob       1     SIL   O03LX       1     -1.05    15.999
   18843      Ob       1     SIL   O03LY       1     -1.05    15.999
   18844      Ob       1     SIL   O03LZ       1     -1.05    15.999
   18845      Ob       1     SIL   O03La       1     -1.05    15.999
   18846      Si       1     SIL   Si1fo       1       2.1    28.086
   18847      Si       1     SIL   Si1fp       1       2.1    28.086
   18848      Si       1     SIL   Si1fq       1       2.1    28.086
   18849      Ob       1     SIL   O03Lb       1     -1.05    15.999
   18850      Ob       1     SIL   O03Lc       1     -1.05    15.999
   18851      Ob       1     SIL   O03Ld       1     -1.05    15.999
   18852      Ob       1     SIL   O03Le       1     -1.05    15.999
   18853      Ob       1     SIL   O03Lf       1     -1.05    15.999
   18854      Ob       1     SIL   O03Lg       1     -1.05    15.999
   18855      Si       1     SIL   Si1fr       1       2.1    28.086
   18856      Si       1     SIL   Si1fs       1       2.1    28.086
   18857      Si       1     SIL   Si1ft       1       2.1    28.086
   18858      Ob       1     SIL   O03Lh       1     -1.05    15.999
   18859      Ob       1     SIL   O03Li       1     -1.05    15.999
   18860      Ob       1     SIL   O03Lj       1     -1.05    15.999
   18861      Ob       1     SIL   O03Lk       1     -1.05    15.999
   18862      Ob       1     SIL   O03Ll       1     -1.05    15.999
   18863      Ob       1     SIL   O03Lm       1     -1.05    15.999
   18864      Si       1     SIL   Si1fu       1       2.1    28.086
   18865      Si       1     SIL   Si1fv       1       2.1    28.086
   18866      Si       1     SIL   Si1fw       1       2.1    28.086
   18867      Ob       1     SIL   O03Ln       1     -1.05    15.999
   18868      Ob       1     SIL   O03Lo       1     -1.05    15.999
   18869      Ob       1     SIL   O03Lp       1     -1.05    15.999
   18870      Ob       1     SIL   O03Lq       1     -1.05    15.999
   18871      Ob       1     SIL   O03Lr       1     -1.05    15.999
   18872      Ob       1     SIL   O03Ls       1     -1.05    15.999
   18873      Si       1     SIL   Si1fx       1       2.1    28.086
   18874      Si       1     SIL   Si1fy       1       2.1    28.086
   18875      Si       1     SIL   Si1fz       1       2.1    28.086
   18876      Ob       1     SIL   O03Lt       1     -1.05    15.999
   18877      Ob       1     SIL   O03Lu       1     -1.05    15.999
   18878      Ob       1     SIL   O03Lv       1     -1.05    15.999
   18879      Ob       1     SIL   O03Lw       1     -1.05    15.999
   18880      Ob       1     SIL   O03Lx       1     -1.05    15.999
   18881      Ob       1     SIL   O03Ly       1     -1.05    15.999
   18882      Si       1     SIL   Si1g0       1       2.1    28.086
   18883      Si       1     SIL   Si1g1       1       2.1    28.086
   18884      Si       1     SIL   Si1g2       1       2.1    28.086
   18885      Ob       1     SIL   O03Lz       1     -1.05    15.999
   18886      Ob       1     SIL   O03M0       1     -1.05    15.999
   18887      Ob       1     SIL   O03M1       1     -1.05    15.999
   18888      Ob       1     SIL   O03M2       1     -1.05    15.999
   18889      Ob       1     SIL   O03M3       1     -1.05    15.999
   18890      Ob       1     SIL   O03M4       1     -1.05    15.999
   18891      Si       1     SIL   Si1g3       1       2.1    28.086
   18892      Si       1     SIL   Si1g4       1       2.1    28.086
   18893      Si       1     SIL   Si1g5       1       2.1    28.086
   18894      Ob       1     SIL   O03M5       1     -1.05    15.999
   18895      Ob       1     SIL   O03M6       1     -1.05    15.999
   18896      Ob       1     SIL   O03M7       1     -1.05    15.999
   18897      Ob       1     SIL   O03M8       1     -1.05    15.999
   18898      Ob       1     SIL   O03M9       1     -1.05    15.999
   18899      Ob       1     SIL   O03MA       1     -1.05    15.999
   18900      Si       1     SIL   Si1g6       1       2.1    28.086
   18901      Si       1     SIL   Si1g7       1       2.1    28.086
   18902      Si       1     SIL   Si1g8       1       2.1    28.086
   18903      Ob       1     SIL   O03MB       1     -1.05    15.999
   18904      Ob       1     SIL   O03MC       1     -1.05    15.999
   18905      Ob       1     SIL   O03MD       1     -1.05    15.999
   18906      Ob       1     SIL   O03ME       1     -1.05    15.999
   18907      Ob       1     SIL   O03MF       1     -1.05    15.999
   18908      Ob       1     SIL   O03MG       1     -1.05    15.999
   18909      Si       1     SIL   Si1g9       1       2.1    28.086
   18910      Si       1     SIL   Si1gA       1       2.1    28.086
   18911      Si       1     SIL   Si1gB       1       2.1    28.086
   18912      Ob       1     SIL   O03MH       1     -1.05    15.999
   18913      Ob       1     SIL   O03MI       1     -1.05    15.999
   18914      Ob       1     SIL   O03MJ       1     -1.05    15.999
   18915      Ob       1     SIL   O03MK       1     -1.05    15.999
   18916      Ob       1     SIL   O03ML       1     -1.05    15.999
   18917      Ob       1     SIL   O03MM       1     -1.05    15.999
   18918      Si       1     SIL   Si1gC       1       2.1    28.086
   18919      Si       1     SIL   Si1gD       1       2.1    28.086
   18920      Si       1     SIL   Si1gE       1       2.1    28.086
   18921      Ob       1     SIL   O03MN       1     -1.05    15.999
   18922      Ob       1     SIL   O03MO       1     -1.05    15.999
   18923      Ob       1     SIL   O03MP       1     -1.05    15.999
   18924      Ob       1     SIL   O03MQ       1     -1.05    15.999
   18925      Ob       1     SIL   O03MR       1     -1.05    15.999
   18926      Ob       1     SIL   O03MS       1     -1.05    15.999
   18927      Si       1     SIL   Si1gF       1       2.1    28.086
   18928      Si       1     SIL   Si1gG       1       2.1    28.086
   18929      Si       1     SIL   Si1gH       1       2.1    28.086
   18930      Ob       1     SIL   O03MT       1     -1.05    15.999
   18931      Ob       1     SIL   O03MU       1     -1.05    15.999
   18932      Ob       1     SIL   O03MV       1     -1.05    15.999
   18933      Ob       1     SIL   O03MW       1     -1.05    15.999
   18934      Ob       1     SIL   O03MX       1     -1.05    15.999
   18935      Ob       1     SIL   O03MY       1     -1.05    15.999
   18936      Si       1     SIL   Si1gI       1       2.1    28.086
   18937      Si       1     SIL   Si1gJ       1       2.1    28.086
   18938      Si       1     SIL   Si1gK       1       2.1    28.086
   18939      Ob       1     SIL   O03MZ       1     -1.05    15.999
   18940      Ob       1     SIL   O03Ma       1     -1.05    15.999
   18941      Ob       1     SIL   O03Mb       1     -1.05    15.999
   18942      Ob       1     SIL   O03Mc       1     -1.05    15.999
   18943      Ob       1     SIL   O03Md       1     -1.05    15.999
   18944      Ob       1     SIL   O03Me       1     -1.05    15.999
   18945      Si       1     SIL   Si1gL       1       2.1    28.086
   18946      Si       1     SIL   Si1gM       1       2.1    28.086
   18947      Si       1     SIL   Si1gN       1       2.1    28.086
   18948      Ob       1     SIL   O03Mf       1     -1.05    15.999
   18949      Ob       1     SIL   O03Mg       1     -1.05    15.999
   18950      Ob       1     SIL   O03Mh       1     -1.05    15.999
   18951      Ob       1     SIL   O03Mi       1     -1.05    15.999
   18952      Ob       1     SIL   O03Mj       1     -1.05    15.999
   18953      Ob       1     SIL   O03Mk       1     -1.05    15.999
   18954      Si       1     SIL   Si1gO       1       2.1    28.086
   18955      Si       1     SIL   Si1gP       1       2.1    28.086
   18956      Si       1     SIL   Si1gQ       1       2.1    28.086
   18957      Ob       1     SIL   O03Ml       1     -1.05    15.999
   18958      Ob       1     SIL   O03Mm       1     -1.05    15.999
   18959      Ob       1     SIL   O03Mn       1     -1.05    15.999
   18960      Ob       1     SIL   O03Mo       1     -1.05    15.999
   18961      Ob       1     SIL   O03Mp       1     -1.05    15.999
   18962      Ob       1     SIL   O03Mq       1     -1.05    15.999
   18963      Si       1     SIL   Si1gR       1       2.1    28.086
   18964      Si       1     SIL   Si1gS       1       2.1    28.086
   18965      Si       1     SIL   Si1gT       1       2.1    28.086
   18966      Ob       1     SIL   O03Mr       1     -1.05    15.999
   18967      Ob       1     SIL   O03Ms       1     -1.05    15.999
   18968      Ob       1     SIL   O03Mt       1     -1.05    15.999
   18969      Ob       1     SIL   O03Mu       1     -1.05    15.999
   18970      Ob       1     SIL   O03Mv       1     -1.05    15.999
   18971      Ob       1     SIL   O03Mw       1     -1.05    15.999
   18972      Si       1     SIL   Si1gU       1       2.1    28.086
   18973      Si       1     SIL   Si1gV       1       2.1    28.086
   18974      Si       1     SIL   Si1gW       1       2.1    28.086
   18975      Ob       1     SIL   O03Mx       1     -1.05    15.999
   18976      Ob       1     SIL   O03My       1     -1.05    15.999
   18977      Ob       1     SIL   O03Mz       1     -1.05    15.999
   18978      Ob       1     SIL   O03N0       1     -1.05    15.999
   18979      Ob       1     SIL   O03N1       1     -1.05    15.999
   18980      Ob       1     SIL   O03N2       1     -1.05    15.999
   18981      Si       1     SIL   Si1gX       1       2.1    28.086
   18982      Si       1     SIL   Si1gY       1       2.1    28.086
   18983      Si       1     SIL   Si1gZ       1       2.1    28.086
   18984      Ob       1     SIL   O03N3       1     -1.05    15.999
   18985      Ob       1     SIL   O03N4       1     -1.05    15.999
   18986      Ob       1     SIL   O03N5       1     -1.05    15.999
   18987      Ob       1     SIL   O03N6       1     -1.05    15.999
   18988      Ob       1     SIL   O03N7       1     -1.05    15.999
   18989      Ob       1     SIL   O03N8       1     -1.05    15.999
   18990      Si       1     SIL   Si1ga       1       2.1    28.086
   18991      Si       1     SIL   Si1gb       1       2.1    28.086
   18992      Si       1     SIL   Si1gc       1       2.1    28.086
   18993      Ob       1     SIL   O03N9       1     -1.05    15.999
   18994       O       1     SIL   O03NA       1    -0.525    15.999
   18995       O       1     SIL   O03NB       1    -0.525    15.999
   18996      Ob       1     SIL   O03NC       1     -1.05    15.999
   18997      Ob       1     SIL   O03ND       1     -1.05    15.999
   18998      Ob       1     SIL   O03NE       1     -1.05    15.999
   18999      Si       1     SIL   Si1gd       1       2.1    28.086
   19000      Si       1     SIL   Si1ge       1       2.1    28.086
   19001      Si       1     SIL   Si1gf       1       2.1    28.086
   19002      Ob       1     SIL   O03NF       1     -1.05    15.999
   19003      Ob       1     SIL   O03NG       1     -1.05    15.999
   19004      Ob       1     SIL   O03NH       1     -1.05    15.999
   19005      Ob       1     SIL   O03NI       1     -1.05    15.999
   19006      Ob       1     SIL   O03NJ       1     -1.05    15.999
   19007      Ob       1     SIL   O03NK       1     -1.05    15.999
   19008      Si       1     SIL   Si1gg       1       2.1    28.086
   19009      Si       1     SIL   Si1gh       1       2.1    28.086
   19010      Si       1     SIL   Si1gi       1       2.1    28.086
   19011      Ob       1     SIL   O03NL       1     -1.05    15.999
   19012      Ob       1     SIL   O03NM       1     -1.05    15.999
   19013      Ob       1     SIL   O03NN       1     -1.05    15.999
   19014      Ob       1     SIL   O03NO       1     -1.05    15.999
   19015      Ob       1     SIL   O03NP       1     -1.05    15.999
   19016      Ob       1     SIL   O03NQ       1     -1.05    15.999
   19017      Si       1     SIL   Si1gj       1       2.1    28.086
   19018      Si       1     SIL   Si1gk       1       2.1    28.086
   19019      Si       1     SIL   Si1gl       1       2.1    28.086
   19020      Ob       1     SIL   O03NR       1     -1.05    15.999
   19021      Ob       1     SIL   O03NS       1     -1.05    15.999
   19022      Ob       1     SIL   O03NT       1     -1.05    15.999
   19023      Ob       1     SIL   O03NU       1     -1.05    15.999
   19024      Ob       1     SIL   O03NV       1     -1.05    15.999
   19025      Ob       1     SIL   O03NW       1     -1.05    15.999
   19026      Si       1     SIL   Si1gm       1       2.1    28.086
   19027      Si       1     SIL   Si1gn       1       2.1    28.086
   19028      Si       1     SIL   Si1go       1       2.1    28.086
   19029      Ob       1     SIL   O03NX       1     -1.05    15.999
   19030      Ob       1     SIL   O03NY       1     -1.05    15.999
   19031      Ob       1     SIL   O03NZ       1     -1.05    15.999
   19032      Ob       1     SIL   O03Na       1     -1.05    15.999
   19033      Ob       1     SIL   O03Nb       1     -1.05    15.999
   19034      Ob       1     SIL   O03Nc       1     -1.05    15.999
   19035      Si       1     SIL   Si1gp       1       2.1    28.086
   19036      Si       1     SIL   Si1gq       1       2.1    28.086
   19037      Si       1     SIL   Si1gr       1       2.1    28.086
   19038      Ob       1     SIL   O03Nd       1     -1.05    15.999
   19039      Ob       1     SIL   O03Ne       1     -1.05    15.999
   19040      Ob       1     SIL   O03Nf       1     -1.05    15.999
   19041      Ob       1     SIL   O03Ng       1     -1.05    15.999
   19042      Ob       1     SIL   O03Nh       1     -1.05    15.999
   19043      Ob       1     SIL   O03Ni       1     -1.05    15.999
   19044      Si       1     SIL   Si1gs       1       2.1    28.086
   19045      Si       1     SIL   Si1gt       1       2.1    28.086
   19046      Si       1     SIL   Si1gu       1       2.1    28.086
   19047      Ob       1     SIL   O03Nj       1     -1.05    15.999
   19048      Ob       1     SIL   O03Nk       1     -1.05    15.999
   19049      Ob       1     SIL   O03Nl       1     -1.05    15.999
   19050      Ob       1     SIL   O03Nm       1     -1.05    15.999
   19051      Ob       1     SIL   O03Nn       1     -1.05    15.999
   19052      Ob       1     SIL   O03No       1     -1.05    15.999
   19053      Si       1     SIL   Si1gv       1       2.1    28.086
   19054      Si       1     SIL   Si1gw       1       2.1    28.086
   19055      Si       1     SIL   Si1gx       1       2.1    28.086
   19056      Ob       1     SIL   O03Np       1     -1.05    15.999
   19057      Ob       1     SIL   O03Nq       1     -1.05    15.999
   19058      Ob       1     SIL   O03Nr       1     -1.05    15.999
   19059      Ob       1     SIL   O03Ns       1     -1.05    15.999
   19060      Ob       1     SIL   O03Nt       1     -1.05    15.999
   19061      Ob       1     SIL   O03Nu       1     -1.05    15.999
   19062      Si       1     SIL   Si1gy       1       2.1    28.086
   19063      Si       1     SIL   Si1gz       1       2.1    28.086
   19064      Si       1     SIL   Si1h0       1       2.1    28.086
   19065      Ob       1     SIL   O03Nv       1     -1.05    15.999
   19066      Ob       1     SIL   O03Nw       1     -1.05    15.999
   19067      Ob       1     SIL   O03Nx       1     -1.05    15.999
   19068      Ob       1     SIL   O03Ny       1     -1.05    15.999
   19069      Ob       1     SIL   O03Nz       1     -1.05    15.999
   19070      Ob       1     SIL   O03O0       1     -1.05    15.999
   19071      Si       1     SIL   Si1h1       1       2.1    28.086
   19072      Si       1     SIL   Si1h2       1       2.1    28.086
   19073      Si       1     SIL   Si1h3       1       2.1    28.086
   19074      Ob       1     SIL   O03O1       1     -1.05    15.999
   19075      Ob       1     SIL   O03O2       1     -1.05    15.999
   19076      Ob       1     SIL   O03O3       1     -1.05    15.999
   19077      Ob       1     SIL   O03O4       1     -1.05    15.999
   19078      Ob       1     SIL   O03O5       1     -1.05    15.999
   19079      Ob       1     SIL   O03O6       1     -1.05    15.999
   19080      Si       1     SIL   Si1h4       1       2.1    28.086
   19081      Si       1     SIL   Si1h5       1       2.1    28.086
   19082      Si       1     SIL   Si1h6       1       2.1    28.086
   19083      Ob       1     SIL   O03O7       1     -1.05    15.999
   19084      Ob       1     SIL   O03O8       1     -1.05    15.999
   19085      Ob       1     SIL   O03O9       1     -1.05    15.999
   19086      Ob       1     SIL   O03OA       1     -1.05    15.999
   19087      Ob       1     SIL   O03OB       1     -1.05    15.999
   19088      Ob       1     SIL   O03OC       1     -1.05    15.999
   19089      Si       1     SIL   Si1h7       1       2.1    28.086
   19090      Si       1     SIL   Si1h8       1       2.1    28.086
   19091      Si       1     SIL   Si1h9       1       2.1    28.086
   19092      Ob       1     SIL   O03OD       1     -1.05    15.999
   19093      Ob       1     SIL   O03OE       1     -1.05    15.999
   19094      Ob       1     SIL   O03OF       1     -1.05    15.999
   19095      Ob       1     SIL   O03OG       1     -1.05    15.999
   19096      Ob       1     SIL   O03OH       1     -1.05    15.999
   19097      Ob       1     SIL   O03OI       1     -1.05    15.999
   19098      Si       1     SIL   Si1hA       1       2.1    28.086
   19099      Si       1     SIL   Si1hB       1       2.1    28.086
   19100      Si       1     SIL   Si1hC       1       2.1    28.086
   19101      Ob       1     SIL   O03OJ       1     -1.05    15.999
   19102      Ob       1     SIL   O03OK       1     -1.05    15.999
   19103      Ob       1     SIL   O03OL       1     -1.05    15.999
   19104      Ob       1     SIL   O03OM       1     -1.05    15.999
   19105      Ob       1     SIL   O03ON       1     -1.05    15.999
   19106      Ob       1     SIL   O03OO       1     -1.05    15.999
   19107      Si       1     SIL   Si1hD       1       2.1    28.086
   19108      Si       1     SIL   Si1hE       1       2.1    28.086
   19109      Si       1     SIL   Si1hF       1       2.1    28.086
   19110      Ob       1     SIL   O03OP       1     -1.05    15.999
   19111      Ob       1     SIL   O03OQ       1     -1.05    15.999
   19112      Ob       1     SIL   O03OR       1     -1.05    15.999
   19113      Ob       1     SIL   O03OS       1     -1.05    15.999
   19114      Ob       1     SIL   O03OT       1     -1.05    15.999
   19115      Ob       1     SIL   O03OU       1     -1.05    15.999
   19116      Si       1     SIL   Si1hG       1       2.1    28.086
   19117      Si       1     SIL   Si1hH       1       2.1    28.086
   19118      Si       1     SIL   Si1hI       1       2.1    28.086
   19119      Ob       1     SIL   O03OV       1     -1.05    15.999
   19120      Ob       1     SIL   O03OW       1     -1.05    15.999
   19121      Ob       1     SIL   O03OX       1     -1.05    15.999
   19122      Ob       1     SIL   O03OY       1     -1.05    15.999
   19123      Ob       1     SIL   O03OZ       1     -1.05    15.999
   19124      Ob       1     SIL   O03Oa       1     -1.05    15.999
   19125      Si       1     SIL   Si1hJ       1       2.1    28.086
   19126      Si       1     SIL   Si1hK       1       2.1    28.086
   19127      Si       1     SIL   Si1hL       1       2.1    28.086
   19128      Ob       1     SIL   O03Ob       1     -1.05    15.999
   19129      Ob       1     SIL   O03Oc       1     -1.05    15.999
   19130      Ob       1     SIL   O03Od       1     -1.05    15.999
   19131      Ob       1     SIL   O03Oe       1     -1.05    15.999
   19132      Ob       1     SIL   O03Of       1     -1.05    15.999
   19133      Ob       1     SIL   O03Og       1     -1.05    15.999
   19134      Si       1     SIL   Si1hM       1       2.1    28.086
   19135      Si       1     SIL   Si1hN       1       2.1    28.086
   19136      Si       1     SIL   Si1hO       1       2.1    28.086
   19137      Ob       1     SIL   O03Oh       1     -1.05    15.999
   19138      Ob       1     SIL   O03Oi       1     -1.05    15.999
   19139      Ob       1     SIL   O03Oj       1     -1.05    15.999
   19140      Ob       1     SIL   O03Ok       1     -1.05    15.999
   19141      Ob       1     SIL   O03Ol       1     -1.05    15.999
   19142      Ob       1     SIL   O03Om       1     -1.05    15.999
   19143      Si       1     SIL   Si1hP       1       2.1    28.086
   19144      Si       1     SIL   Si1hQ       1       2.1    28.086
   19145      Si       1     SIL   Si1hR       1       2.1    28.086
   19146      Ob       1     SIL   O03On       1     -1.05    15.999
   19147      Ob       1     SIL   O03Oo       1     -1.05    15.999
   19148      Ob       1     SIL   O03Op       1     -1.05    15.999
   19149      Ob       1     SIL   O03Oq       1     -1.05    15.999
   19150      Ob       1     SIL   O03Or       1     -1.05    15.999
   19151      Ob       1     SIL   O03Os       1     -1.05    15.999
   19152      Si       1     SIL   Si1hS       1       2.1    28.086
   19153      Si       1     SIL   Si1hT       1       2.1    28.086
   19154      Si       1     SIL   Si1hU       1       2.1    28.086
   19155      Ob       1     SIL   O03Ot       1     -1.05    15.999
   19156      Ob       1     SIL   O03Ou       1     -1.05    15.999
   19157      Ob       1     SIL   O03Ov       1     -1.05    15.999
   19158      Ob       1     SIL   O03Ow       1     -1.05    15.999
   19159      Ob       1     SIL   O03Ox       1     -1.05    15.999
   19160      Ob       1     SIL   O03Oy       1     -1.05    15.999
   19161      Si       1     SIL   Si1hV       1       2.1    28.086
   19162      Si       1     SIL   Si1hW       1       2.1    28.086
   19163      Si       1     SIL   Si1hX       1       2.1    28.086
   19164      Ob       1     SIL   O03Oz       1     -1.05    15.999
   19165      Ob       1     SIL   O03P0       1     -1.05    15.999
   19166      Ob       1     SIL   O03P1       1     -1.05    15.999
   19167      Ob       1     SIL   O03P2       1     -1.05    15.999
   19168      Ob       1     SIL   O03P3       1     -1.05    15.999
   19169      Ob       1     SIL   O03P4       1     -1.05    15.999
   19170      Si       1     SIL   Si1hY       1       2.1    28.086
   19171      Si       1     SIL   Si1hZ       1       2.1    28.086
   19172      Si       1     SIL   Si1ha       1       2.1    28.086
   19173      Ob       1     SIL   O03P5       1     -1.05    15.999
   19174      Ob       1     SIL   O03P6       1     -1.05    15.999
   19175      Ob       1     SIL   O03P7       1     -1.05    15.999
   19176      Ob       1     SIL   O03P8       1     -1.05    15.999
   19177      Ob       1     SIL   O03P9       1     -1.05    15.999
   19178      Ob       1     SIL   O03PA       1     -1.05    15.999
   19179      Si       1     SIL   Si1hb       1       2.1    28.086
   19180      Si       1     SIL   Si1hc       1       2.1    28.086
   19181      Si       1     SIL   Si1hd       1       2.1    28.086
   19182      Ob       1     SIL   O03PB       1     -1.05    15.999
   19183      Ob       1     SIL   O03PC       1     -1.05    15.999
   19184      Ob       1     SIL   O03PD       1     -1.05    15.999
   19185      Ob       1     SIL   O03PE       1     -1.05    15.999
   19186      Ob       1     SIL   O03PF       1     -1.05    15.999
   19187      Ob       1     SIL   O03PG       1     -1.05    15.999
   19188      Si       1     SIL   Si1he       1       2.1    28.086
   19189      Si       1     SIL   Si1hf       1       2.1    28.086
   19190      Si       1     SIL   Si1hg       1       2.1    28.086
   19191      Ob       1     SIL   O03PH       1     -1.05    15.999
   19192      Ob       1     SIL   O03PI       1     -1.05    15.999
   19193      Ob       1     SIL   O03PJ       1     -1.05    15.999
   19194      Ob       1     SIL   O03PK       1     -1.05    15.999
   19195      Ob       1     SIL   O03PL       1     -1.05    15.999
   19196      Ob       1     SIL   O03PM       1     -1.05    15.999
   19197      Si       1     SIL   Si1hh       1       2.1    28.086
   19198      Si       1     SIL   Si1hi       1       2.1    28.086
   19199      Si       1     SIL   Si1hj       1       2.1    28.086
   19200      Ob       1     SIL   O03PN       1     -1.05    15.999
   19201       O       1     SIL   O03PO       1    -0.525    15.999
   19202       O       1     SIL   O03PP       1    -0.525    15.999
   19203      Ob       1     SIL   O03PQ       1     -1.05    15.999
   19204      Ob       1     SIL   O03PR       1     -1.05    15.999
   19205      Ob       1     SIL   O03PS       1     -1.05    15.999
   19206      Si       1     SIL   Si1hk       1       2.1    28.086
   19207      Si       1     SIL   Si1hl       1       2.1    28.086
   19208      Si       1     SIL   Si1hm       1       2.1    28.086
   19209      Ob       1     SIL   O03PT       1     -1.05    15.999
   19210      Ob       1     SIL   O03PU       1     -1.05    15.999
   19211      Ob       1     SIL   O03PV       1     -1.05    15.999
   19212      Ob       1     SIL   O03PW       1     -1.05    15.999
   19213      Ob       1     SIL   O03PX       1     -1.05    15.999
   19214      Ob       1     SIL   O03PY       1     -1.05    15.999
   19215      Si       1     SIL   Si1hn       1       2.1    28.086
   19216      Si       1     SIL   Si1ho       1       2.1    28.086
   19217      Si       1     SIL   Si1hp       1       2.1    28.086
   19218      Ob       1     SIL   O03PZ       1     -1.05    15.999
   19219      Ob       1     SIL   O03Pa       1     -1.05    15.999
   19220      Ob       1     SIL   O03Pb       1     -1.05    15.999
   19221      Ob       1     SIL   O03Pc       1     -1.05    15.999
   19222      Ob       1     SIL   O03Pd       1     -1.05    15.999
   19223      Ob       1     SIL   O03Pe       1     -1.05    15.999
   19224      Si       1     SIL   Si1hq       1       2.1    28.086
   19225      Si       1     SIL   Si1hr       1       2.1    28.086
   19226      Si       1     SIL   Si1hs       1       2.1    28.086
   19227      Ob       1     SIL   O03Pf       1     -1.05    15.999
   19228      Ob       1     SIL   O03Pg       1     -1.05    15.999
   19229      Ob       1     SIL   O03Ph       1     -1.05    15.999
   19230      Ob       1     SIL   O03Pi       1     -1.05    15.999
   19231      Ob       1     SIL   O03Pj       1     -1.05    15.999
   19232      Ob       1     SIL   O03Pk       1     -1.05    15.999
   19233      Si       1     SIL   Si1ht       1       2.1    28.086
   19234      Si       1     SIL   Si1hu       1       2.1    28.086
   19235      Si       1     SIL   Si1hv       1       2.1    28.086
   19236      Ob       1     SIL   O03Pl       1     -1.05    15.999
   19237      Ob       1     SIL   O03Pm       1     -1.05    15.999
   19238      Ob       1     SIL   O03Pn       1     -1.05    15.999
   19239      Ob       1     SIL   O03Po       1     -1.05    15.999
   19240      Ob       1     SIL   O03Pp       1     -1.05    15.999
   19241      Ob       1     SIL   O03Pq       1     -1.05    15.999
   19242      Si       1     SIL   Si1hw       1       2.1    28.086
   19243      Si       1     SIL   Si1hx       1       2.1    28.086
   19244      Si       1     SIL   Si1hy       1       2.1    28.086
   19245      Ob       1     SIL   O03Pr       1     -1.05    15.999
   19246      Ob       1     SIL   O03Ps       1     -1.05    15.999
   19247      Ob       1     SIL   O03Pt       1     -1.05    15.999
   19248      Ob       1     SIL   O03Pu       1     -1.05    15.999
   19249      Ob       1     SIL   O03Pv       1     -1.05    15.999
   19250      Ob       1     SIL   O03Pw       1     -1.05    15.999
   19251      Si       1     SIL   Si1hz       1       2.1    28.086
   19252      Si       1     SIL   Si1i0       1       2.1    28.086
   19253      Si       1     SIL   Si1i1       1       2.1    28.086
   19254      Ob       1     SIL   O03Px       1     -1.05    15.999
   19255      Ob       1     SIL   O03Py       1     -1.05    15.999
   19256      Ob       1     SIL   O03Pz       1     -1.05    15.999
   19257      Ob       1     SIL   O03Q0       1     -1.05    15.999
   19258      Ob       1     SIL   O03Q1       1     -1.05    15.999
   19259      Ob       1     SIL   O03Q2       1     -1.05    15.999
   19260      Si       1     SIL   Si1i2       1       2.1    28.086
   19261      Si       1     SIL   Si1i3       1       2.1    28.086
   19262      Si       1     SIL   Si1i4       1       2.1    28.086
   19263      Ob       1     SIL   O03Q3       1     -1.05    15.999
   19264      Ob       1     SIL   O03Q4       1     -1.05    15.999
   19265      Ob       1     SIL   O03Q5       1     -1.05    15.999
   19266      Ob       1     SIL   O03Q6       1     -1.05    15.999
   19267      Ob       1     SIL   O03Q7       1     -1.05    15.999
   19268      Ob       1     SIL   O03Q8       1     -1.05    15.999
   19269      Si       1     SIL   Si1i5       1       2.1    28.086
   19270      Si       1     SIL   Si1i6       1       2.1    28.086
   19271      Si       1     SIL   Si1i7       1       2.1    28.086
   19272      Ob       1     SIL   O03Q9       1     -1.05    15.999
   19273      Ob       1     SIL   O03QA       1     -1.05    15.999
   19274      Ob       1     SIL   O03QB       1     -1.05    15.999
   19275      Ob       1     SIL   O03QC       1     -1.05    15.999
   19276      Ob       1     SIL   O03QD       1     -1.05    15.999
   19277      Ob       1     SIL   O03QE       1     -1.05    15.999
   19278      Si       1     SIL   Si1i8       1       2.1    28.086
   19279      Si       1     SIL   Si1i9       1       2.1    28.086
   19280      Si       1     SIL   Si1iA       1       2.1    28.086
   19281      Ob       1     SIL   O03QF       1     -1.05    15.999
   19282      Ob       1     SIL   O03QG       1     -1.05    15.999
   19283      Ob       1     SIL   O03QH       1     -1.05    15.999
   19284      Ob       1     SIL   O03QI       1     -1.05    15.999
   19285      Ob       1     SIL   O03QJ       1     -1.05    15.999
   19286      Ob       1     SIL   O03QK       1     -1.05    15.999
   19287      Si       1     SIL   Si1iB       1       2.1    28.086
   19288      Si       1     SIL   Si1iC       1       2.1    28.086
   19289      Si       1     SIL   Si1iD       1       2.1    28.086
   19290      Ob       1     SIL   O03QL       1     -1.05    15.999
   19291      Ob       1     SIL   O03QM       1     -1.05    15.999
   19292      Ob       1     SIL   O03QN       1     -1.05    15.999
   19293      Ob       1     SIL   O03QO       1     -1.05    15.999
   19294      Ob       1     SIL   O03QP       1     -1.05    15.999
   19295      Ob       1     SIL   O03QQ       1     -1.05    15.999
   19296      Si       1     SIL   Si1iE       1       2.1    28.086
   19297      Si       1     SIL   Si1iF       1       2.1    28.086
   19298      Si       1     SIL   Si1iG       1       2.1    28.086
   19299      Ob       1     SIL   O03QR       1     -1.05    15.999
   19300      Ob       1     SIL   O03QS       1     -1.05    15.999
   19301      Ob       1     SIL   O03QT       1     -1.05    15.999
   19302      Ob       1     SIL   O03QU       1     -1.05    15.999
   19303      Ob       1     SIL   O03QV       1     -1.05    15.999
   19304      Ob       1     SIL   O03QW       1     -1.05    15.999
   19305      Si       1     SIL   Si1iH       1       2.1    28.086
   19306      Si       1     SIL   Si1iI       1       2.1    28.086
   19307      Si       1     SIL   Si1iJ       1       2.1    28.086
   19308      Ob       1     SIL   O03QX       1     -1.05    15.999
   19309      Ob       1     SIL   O03QY       1     -1.05    15.999
   19310      Ob       1     SIL   O03QZ       1     -1.05    15.999
   19311      Ob       1     SIL   O03Qa       1     -1.05    15.999
   19312      Ob       1     SIL   O03Qb       1     -1.05    15.999
   19313      Ob       1     SIL   O03Qc       1     -1.05    15.999
   19314      Si       1     SIL   Si1iK       1       2.1    28.086
   19315      Si       1     SIL   Si1iL       1       2.1    28.086
   19316      Si       1     SIL   Si1iM       1       2.1    28.086
   19317      Ob       1     SIL   O03Qd       1     -1.05    15.999
   19318      Ob       1     SIL   O03Qe       1     -1.05    15.999
   19319      Ob       1     SIL   O03Qf       1     -1.05    15.999
   19320      Ob       1     SIL   O03Qg       1     -1.05    15.999
   19321      Ob       1     SIL   O03Qh       1     -1.05    15.999
   19322      Ob       1     SIL   O03Qi       1     -1.05    15.999
   19323      Si       1     SIL   Si1iN       1       2.1    28.086
   19324      Si       1     SIL   Si1iO       1       2.1    28.086
   19325      Si       1     SIL   Si1iP       1       2.1    28.086
   19326      Ob       1     SIL   O03Qj       1     -1.05    15.999
   19327      Ob       1     SIL   O03Qk       1     -1.05    15.999
   19328      Ob       1     SIL   O03Ql       1     -1.05    15.999
   19329      Ob       1     SIL   O03Qm       1     -1.05    15.999
   19330      Ob       1     SIL   O03Qn       1     -1.05    15.999
   19331      Ob       1     SIL   O03Qo       1     -1.05    15.999
   19332      Si       1     SIL   Si1iQ       1       2.1    28.086
   19333      Si       1     SIL   Si1iR       1       2.1    28.086
   19334      Si       1     SIL   Si1iS       1       2.1    28.086
   19335      Ob       1     SIL   O03Qp       1     -1.05    15.999
   19336      Ob       1     SIL   O03Qq       1     -1.05    15.999
   19337      Ob       1     SIL   O03Qr       1     -1.05    15.999
   19338      Ob       1     SIL   O03Qs       1     -1.05    15.999
   19339      Ob       1     SIL   O03Qt       1     -1.05    15.999
   19340      Ob       1     SIL   O03Qu       1     -1.05    15.999
   19341      Si       1     SIL   Si1iT       1       2.1    28.086
   19342      Si       1     SIL   Si1iU       1       2.1    28.086
   19343      Si       1     SIL   Si1iV       1       2.1    28.086
   19344      Ob       1     SIL   O03Qv       1     -1.05    15.999
   19345      Ob       1     SIL   O03Qw       1     -1.05    15.999
   19346      Ob       1     SIL   O03Qx       1     -1.05    15.999
   19347      Ob       1     SIL   O03Qy       1     -1.05    15.999
   19348      Ob       1     SIL   O03Qz       1     -1.05    15.999
   19349      Ob       1     SIL   O03R0       1     -1.05    15.999
   19350      Si       1     SIL   Si1iW       1       2.1    28.086
   19351      Si       1     SIL   Si1iX       1       2.1    28.086
   19352      Si       1     SIL   Si1iY       1       2.1    28.086
   19353      Ob       1     SIL   O03R1       1     -1.05    15.999
   19354      Ob       1     SIL   O03R2       1     -1.05    15.999
   19355      Ob       1     SIL   O03R3       1     -1.05    15.999
   19356      Ob       1     SIL   O03R4       1     -1.05    15.999
   19357      Ob       1     SIL   O03R5       1     -1.05    15.999
   19358      Ob       1     SIL   O03R6       1     -1.05    15.999
   19359      Si       1     SIL   Si1iZ       1       2.1    28.086
   19360      Si       1     SIL   Si1ia       1       2.1    28.086
   19361      Si       1     SIL   Si1ib       1       2.1    28.086
   19362      Ob       1     SIL   O03R7       1     -1.05    15.999
   19363      Ob       1     SIL   O03R8       1     -1.05    15.999
   19364      Ob       1     SIL   O03R9       1     -1.05    15.999
   19365      Ob       1     SIL   O03RA       1     -1.05    15.999
   19366      Ob       1     SIL   O03RB       1     -1.05    15.999
   19367      Ob       1     SIL   O03RC       1     -1.05    15.999
   19368      Si       1     SIL   Si1ic       1       2.1    28.086
   19369      Si       1     SIL   Si1id       1       2.1    28.086
   19370      Si       1     SIL   Si1ie       1       2.1    28.086
   19371      Ob       1     SIL   O03RD       1     -1.05    15.999
   19372      Ob       1     SIL   O03RE       1     -1.05    15.999
   19373      Ob       1     SIL   O03RF       1     -1.05    15.999
   19374      Ob       1     SIL   O03RG       1     -1.05    15.999
   19375      Ob       1     SIL   O03RH       1     -1.05    15.999
   19376      Ob       1     SIL   O03RI       1     -1.05    15.999
   19377      Si       1     SIL   Si1if       1       2.1    28.086
   19378      Si       1     SIL   Si1ig       1       2.1    28.086
   19379      Si       1     SIL   Si1ih       1       2.1    28.086
   19380      Ob       1     SIL   O03RJ       1     -1.05    15.999
   19381      Ob       1     SIL   O03RK       1     -1.05    15.999
   19382      Ob       1     SIL   O03RL       1     -1.05    15.999
   19383      Ob       1     SIL   O03RM       1     -1.05    15.999
   19384      Ob       1     SIL   O03RN       1     -1.05    15.999
   19385      Ob       1     SIL   O03RO       1     -1.05    15.999
   19386      Si       1     SIL   Si1ii       1       2.1    28.086
   19387      Si       1     SIL   Si1ij       1       2.1    28.086
   19388      Si       1     SIL   Si1ik       1       2.1    28.086
   19389      Ob       1     SIL   O03RP       1     -1.05    15.999
   19390      Ob       1     SIL   O03RQ       1     -1.05    15.999
   19391      Ob       1     SIL   O03RR       1     -1.05    15.999
   19392      Ob       1     SIL   O03RS       1     -1.05    15.999
   19393      Ob       1     SIL   O03RT       1     -1.05    15.999
   19394      Ob       1     SIL   O03RU       1     -1.05    15.999
   19395      Si       1     SIL   Si1il       1       2.1    28.086
   19396      Si       1     SIL   Si1im       1       2.1    28.086
   19397      Si       1     SIL   Si1in       1       2.1    28.086
   19398      Ob       1     SIL   O03RV       1     -1.05    15.999
   19399      Ob       1     SIL   O03RW       1     -1.05    15.999
   19400      Ob       1     SIL   O03RX       1     -1.05    15.999
   19401      Ob       1     SIL   O03RY       1     -1.05    15.999
   19402      Ob       1     SIL   O03RZ       1     -1.05    15.999
   19403      Ob       1     SIL   O03Ra       1     -1.05    15.999
   19404      Si       1     SIL   Si1io       1       2.1    28.086
   19405      Si       1     SIL   Si1ip       1       2.1    28.086
   19406      Si       1     SIL   Si1iq       1       2.1    28.086
   19407      Ob       1     SIL   O03Rb       1     -1.05    15.999
   19408       O       1     SIL   O03Rc       1    -0.525    15.999
   19409       O       1     SIL   O03Rd       1    -0.525    15.999
   19410      Ob       1     SIL   O03Re       1     -1.05    15.999
   19411      Ob       1     SIL   O03Rf       1     -1.05    15.999
   19412      Ob       1     SIL   O03Rg       1     -1.05    15.999
   19413      Si       1     SIL   Si1ir       1       2.1    28.086
   19414      Si       1     SIL   Si1is       1       2.1    28.086
   19415      Si       1     SIL   Si1it       1       2.1    28.086
   19416      Ob       1     SIL   O03Rh       1     -1.05    15.999
   19417      Ob       1     SIL   O03Ri       1     -1.05    15.999
   19418      Ob       1     SIL   O03Rj       1     -1.05    15.999
   19419      Ob       1     SIL   O03Rk       1     -1.05    15.999
   19420      Ob       1     SIL   O03Rl       1     -1.05    15.999
   19421      Ob       1     SIL   O03Rm       1     -1.05    15.999
   19422      Si       1     SIL   Si1iu       1       2.1    28.086
   19423      Si       1     SIL   Si1iv       1       2.1    28.086
   19424      Si       1     SIL   Si1iw       1       2.1    28.086
   19425      Ob       1     SIL   O03Rn       1     -1.05    15.999
   19426      Ob       1     SIL   O03Ro       1     -1.05    15.999
   19427      Ob       1     SIL   O03Rp       1     -1.05    15.999
   19428      Ob       1     SIL   O03Rq       1     -1.05    15.999
   19429      Ob       1     SIL   O03Rr       1     -1.05    15.999
   19430      Ob       1     SIL   O03Rs       1     -1.05    15.999
   19431      Si       1     SIL   Si1ix       1       2.1    28.086
   19432      Si       1     SIL   Si1iy       1       2.1    28.086
   19433      Si       1     SIL   Si1iz       1       2.1    28.086
   19434      Ob       1     SIL   O03Rt       1     -1.05    15.999
   19435      Ob       1     SIL   O03Ru       1     -1.05    15.999
   19436      Ob       1     SIL   O03Rv       1     -1.05    15.999
   19437      Ob       1     SIL   O03Rw       1     -1.05    15.999
   19438      Ob       1     SIL   O03Rx       1     -1.05    15.999
   19439      Ob       1     SIL   O03Ry       1     -1.05    15.999
   19440      Si       1     SIL   Si1j0       1       2.1    28.086
   19441      Si       1     SIL   Si1j1       1       2.1    28.086
   19442      Si       1     SIL   Si1j2       1       2.1    28.086
   19443      Ob       1     SIL   O03Rz       1     -1.05    15.999
   19444      Ob       1     SIL   O03S0       1     -1.05    15.999
   19445      Ob       1     SIL   O03S1       1     -1.05    15.999
   19446      Ob       1     SIL   O03S2       1     -1.05    15.999
   19447      Ob       1     SIL   O03S3       1     -1.05    15.999
   19448      Ob       1     SIL   O03S4       1     -1.05    15.999
   19449      Si       1     SIL   Si1j3       1       2.1    28.086
   19450      Si       1     SIL   Si1j4       1       2.1    28.086
   19451      Si       1     SIL   Si1j5       1       2.1    28.086
   19452      Ob       1     SIL   O03S5       1     -1.05    15.999
   19453      Ob       1     SIL   O03S6       1     -1.05    15.999
   19454      Ob       1     SIL   O03S7       1     -1.05    15.999
   19455      Ob       1     SIL   O03S8       1     -1.05    15.999
   19456      Ob       1     SIL   O03S9       1     -1.05    15.999
   19457      Ob       1     SIL   O03SA       1     -1.05    15.999
   19458      Si       1     SIL   Si1j6       1       2.1    28.086
   19459      Si       1     SIL   Si1j7       1       2.1    28.086
   19460      Si       1     SIL   Si1j8       1       2.1    28.086
   19461      Ob       1     SIL   O03SB       1     -1.05    15.999
   19462      Ob       1     SIL   O03SC       1     -1.05    15.999
   19463      Ob       1     SIL   O03SD       1     -1.05    15.999
   19464      Ob       1     SIL   O03SE       1     -1.05    15.999
   19465      Ob       1     SIL   O03SF       1     -1.05    15.999
   19466      Ob       1     SIL   O03SG       1     -1.05    15.999
   19467      Si       1     SIL   Si1j9       1       2.1    28.086
   19468      Si       1     SIL   Si1jA       1       2.1    28.086
   19469      Si       1     SIL   Si1jB       1       2.1    28.086
   19470      Ob       1     SIL   O03SH       1     -1.05    15.999
   19471      Ob       1     SIL   O03SI       1     -1.05    15.999
   19472      Ob       1     SIL   O03SJ       1     -1.05    15.999
   19473      Ob       1     SIL   O03SK       1     -1.05    15.999
   19474      Ob       1     SIL   O03SL       1     -1.05    15.999
   19475      Ob       1     SIL   O03SM       1     -1.05    15.999
   19476      Si       1     SIL   Si1jC       1       2.1    28.086
   19477      Si       1     SIL   Si1jD       1       2.1    28.086
   19478      Si       1     SIL   Si1jE       1       2.1    28.086
   19479      Ob       1     SIL   O03SN       1     -1.05    15.999
   19480      Ob       1     SIL   O03SO       1     -1.05    15.999
   19481      Ob       1     SIL   O03SP       1     -1.05    15.999
   19482      Ob       1     SIL   O03SQ       1     -1.05    15.999
   19483      Ob       1     SIL   O03SR       1     -1.05    15.999
   19484      Ob       1     SIL   O03SS       1     -1.05    15.999
   19485      Si       1     SIL   Si1jF       1       2.1    28.086
   19486      Si       1     SIL   Si1jG       1       2.1    28.086
   19487      Si       1     SIL   Si1jH       1       2.1    28.086
   19488      Ob       1     SIL   O03ST       1     -1.05    15.999
   19489      Ob       1     SIL   O03SU       1     -1.05    15.999
   19490      Ob       1     SIL   O03SV       1     -1.05    15.999
   19491      Ob       1     SIL   O03SW       1     -1.05    15.999
   19492      Ob       1     SIL   O03SX       1     -1.05    15.999
   19493      Ob       1     SIL   O03SY       1     -1.05    15.999
   19494      Si       1     SIL   Si1jI       1       2.1    28.086
   19495      Si       1     SIL   Si1jJ       1       2.1    28.086
   19496      Si       1     SIL   Si1jK       1       2.1    28.086
   19497      Ob       1     SIL   O03SZ       1     -1.05    15.999
   19498      Ob       1     SIL   O03Sa       1     -1.05    15.999
   19499      Ob       1     SIL   O03Sb       1     -1.05    15.999
   19500      Ob       1     SIL   O03Sc       1     -1.05    15.999
   19501      Ob       1     SIL   O03Sd       1     -1.05    15.999
   19502      Ob       1     SIL   O03Se       1     -1.05    15.999
   19503      Si       1     SIL   Si1jL       1       2.1    28.086
   19504      Si       1     SIL   Si1jM       1       2.1    28.086
   19505      Si       1     SIL   Si1jN       1       2.1    28.086
   19506      Ob       1     SIL   O03Sf       1     -1.05    15.999
   19507      Ob       1     SIL   O03Sg       1     -1.05    15.999
   19508      Ob       1     SIL   O03Sh       1     -1.05    15.999
   19509      Ob       1     SIL   O03Si       1     -1.05    15.999
   19510      Ob       1     SIL   O03Sj       1     -1.05    15.999
   19511      Ob       1     SIL   O03Sk       1     -1.05    15.999
   19512      Si       1     SIL   Si1jO       1       2.1    28.086
   19513      Si       1     SIL   Si1jP       1       2.1    28.086
   19514      Si       1     SIL   Si1jQ       1       2.1    28.086
   19515      Ob       1     SIL   O03Sl       1     -1.05    15.999
   19516      Ob       1     SIL   O03Sm       1     -1.05    15.999
   19517      Ob       1     SIL   O03Sn       1     -1.05    15.999
   19518      Ob       1     SIL   O03So       1     -1.05    15.999
   19519      Ob       1     SIL   O03Sp       1     -1.05    15.999
   19520      Ob       1     SIL   O03Sq       1     -1.05    15.999
   19521      Si       1     SIL   Si1jR       1       2.1    28.086
   19522      Si       1     SIL   Si1jS       1       2.1    28.086
   19523      Si       1     SIL   Si1jT       1       2.1    28.086
   19524      Ob       1     SIL   O03Sr       1     -1.05    15.999
   19525      Ob       1     SIL   O03Ss       1     -1.05    15.999
   19526      Ob       1     SIL   O03St       1     -1.05    15.999
   19527      Ob       1     SIL   O03Su       1     -1.05    15.999
   19528      Ob       1     SIL   O03Sv       1     -1.05    15.999
   19529      Ob       1     SIL   O03Sw       1     -1.05    15.999
   19530      Si       1     SIL   Si1jU       1       2.1    28.086
   19531      Si       1     SIL   Si1jV       1       2.1    28.086
   19532      Si       1     SIL   Si1jW       1       2.1    28.086
   19533      Ob       1     SIL   O03Sx       1     -1.05    15.999
   19534      Ob       1     SIL   O03Sy       1     -1.05    15.999
   19535      Ob       1     SIL   O03Sz       1     -1.05    15.999
   19536      Ob       1     SIL   O03T0       1     -1.05    15.999
   19537      Ob       1     SIL   O03T1       1     -1.05    15.999
   19538      Ob       1     SIL   O03T2       1     -1.05    15.999
   19539      Si       1     SIL   Si1jX       1       2.1    28.086
   19540      Si       1     SIL   Si1jY       1       2.1    28.086
   19541      Si       1     SIL   Si1jZ       1       2.1    28.086
   19542      Ob       1     SIL   O03T3       1     -1.05    15.999
   19543      Ob       1     SIL   O03T4       1     -1.05    15.999
   19544      Ob       1     SIL   O03T5       1     -1.05    15.999
   19545      Ob       1     SIL   O03T6       1     -1.05    15.999
   19546      Ob       1     SIL   O03T7       1     -1.05    15.999
   19547      Ob       1     SIL   O03T8       1     -1.05    15.999
   19548      Si       1     SIL   Si1ja       1       2.1    28.086
   19549      Si       1     SIL   Si1jb       1       2.1    28.086
   19550      Si       1     SIL   Si1jc       1       2.1    28.086
   19551      Ob       1     SIL   O03T9       1     -1.05    15.999
   19552      Ob       1     SIL   O03TA       1     -1.05    15.999
   19553      Ob       1     SIL   O03TB       1     -1.05    15.999
   19554      Ob       1     SIL   O03TC       1     -1.05    15.999
   19555      Ob       1     SIL   O03TD       1     -1.05    15.999
   19556      Ob       1     SIL   O03TE       1     -1.05    15.999
   19557      Si       1     SIL   Si1jd       1       2.1    28.086
   19558      Si       1     SIL   Si1je       1       2.1    28.086
   19559      Si       1     SIL   Si1jf       1       2.1    28.086
   19560      Ob       1     SIL   O03TF       1     -1.05    15.999
   19561      Ob       1     SIL   O03TG       1     -1.05    15.999
   19562      Ob       1     SIL   O03TH       1     -1.05    15.999
   19563      Ob       1     SIL   O03TI       1     -1.05    15.999
   19564      Ob       1     SIL   O03TJ       1     -1.05    15.999
   19565      Ob       1     SIL   O03TK       1     -1.05    15.999
   19566      Si       1     SIL   Si1jg       1       2.1    28.086
   19567      Si       1     SIL   Si1jh       1       2.1    28.086
   19568      Si       1     SIL   Si1ji       1       2.1    28.086
   19569      Ob       1     SIL   O03TL       1     -1.05    15.999
   19570      Ob       1     SIL   O03TM       1     -1.05    15.999
   19571      Ob       1     SIL   O03TN       1     -1.05    15.999
   19572      Ob       1     SIL   O03TO       1     -1.05    15.999
   19573      Ob       1     SIL   O03TP       1     -1.05    15.999
   19574      Ob       1     SIL   O03TQ       1     -1.05    15.999
   19575      Si       1     SIL   Si1jj       1       2.1    28.086
   19576      Si       1     SIL   Si1jk       1       2.1    28.086
   19577      Si       1     SIL   Si1jl       1       2.1    28.086
   19578      Ob       1     SIL   O03TR       1     -1.05    15.999
   19579      Ob       1     SIL   O03TS       1     -1.05    15.999
   19580      Ob       1     SIL   O03TT       1     -1.05    15.999
   19581      Ob       1     SIL   O03TU       1     -1.05    15.999
   19582      Ob       1     SIL   O03TV       1     -1.05    15.999
   19583      Ob       1     SIL   O03TW       1     -1.05    15.999
   19584      Si       1     SIL   Si1jm       1       2.1    28.086
   19585      Si       1     SIL   Si1jn       1       2.1    28.086
   19586      Si       1     SIL   Si1jo       1       2.1    28.086
   19587      Ob       1     SIL   O03TX       1     -1.05    15.999
   19588      Ob       1     SIL   O03TY       1     -1.05    15.999
   19589      Ob       1     SIL   O03TZ       1     -1.05    15.999
   19590      Ob       1     SIL   O03Ta       1     -1.05    15.999
   19591      Ob       1     SIL   O03Tb       1     -1.05    15.999
   19592      Ob       1     SIL   O03Tc       1     -1.05    15.999
   19593      Si       1     SIL   Si1jp       1       2.1    28.086
   19594      Si       1     SIL   Si1jq       1       2.1    28.086
   19595      Si       1     SIL   Si1jr       1       2.1    28.086
   19596      Ob       1     SIL   O03Td       1     -1.05    15.999
   19597      Ob       1     SIL   O03Te       1     -1.05    15.999
   19598      Ob       1     SIL   O03Tf       1     -1.05    15.999
   19599      Ob       1     SIL   O03Tg       1     -1.05    15.999
   19600      Ob       1     SIL   O03Th       1     -1.05    15.999
   19601      Ob       1     SIL   O03Ti       1     -1.05    15.999
   19602      Si       1     SIL   Si1js       1       2.1    28.086
   19603      Si       1     SIL   Si1jt       1       2.1    28.086
   19604      Si       1     SIL   Si1ju       1       2.1    28.086
   19605      Ob       1     SIL   O03Tj       1     -1.05    15.999
   19606      Ob       1     SIL   O03Tk       1     -1.05    15.999
   19607      Ob       1     SIL   O03Tl       1     -1.05    15.999
   19608      Ob       1     SIL   O03Tm       1     -1.05    15.999
   19609      Ob       1     SIL   O03Tn       1     -1.05    15.999
   19610      Ob       1     SIL   O03To       1     -1.05    15.999
   19611      Si       1     SIL   Si1jv       1       2.1    28.086
   19612      Si       1     SIL   Si1jw       1       2.1    28.086
   19613      Si       1     SIL   Si1jx       1       2.1    28.086
   19614      Ob       1     SIL   O03Tp       1     -1.05    15.999
   19615       O       1     SIL   O03Tq       1    -0.525    15.999
   19616       O       1     SIL   O03Tr       1    -0.525    15.999
   19617      Ob       1     SIL   O03Ts       1     -1.05    15.999
   19618      Ob       1     SIL   O03Tt       1     -1.05    15.999
   19619      Ob       1     SIL   O03Tu       1     -1.05    15.999
   19620      Si       1     SIL   Si1jy       1       2.1    28.086
   19621      Si       1     SIL   Si1jz       1       2.1    28.086
   19622      Si       1     SIL   Si1k0       1       2.1    28.086
   19623      Ob       1     SIL   O03Tv       1     -1.05    15.999
   19624      Ob       1     SIL   O03Tw       1     -1.05    15.999
   19625      Ob       1     SIL   O03Tx       1     -1.05    15.999
   19626      Ob       1     SIL   O03Ty       1     -1.05    15.999
   19627      Ob       1     SIL   O03Tz       1     -1.05    15.999
   19628      Ob       1     SIL   O03U0       1     -1.05    15.999
   19629      Si       1     SIL   Si1k1       1       2.1    28.086
   19630      Si       1     SIL   Si1k2       1       2.1    28.086
   19631      Si       1     SIL   Si1k3       1       2.1    28.086
   19632      Ob       1     SIL   O03U1       1     -1.05    15.999
   19633      Ob       1     SIL   O03U2       1     -1.05    15.999
   19634      Ob       1     SIL   O03U3       1     -1.05    15.999
   19635      Ob       1     SIL   O03U4       1     -1.05    15.999
   19636      Ob       1     SIL   O03U5       1     -1.05    15.999
   19637      Ob       1     SIL   O03U6       1     -1.05    15.999
   19638      Si       1     SIL   Si1k4       1       2.1    28.086
   19639      Si       1     SIL   Si1k5       1       2.1    28.086
   19640      Si       1     SIL   Si1k6       1       2.1    28.086
   19641      Ob       1     SIL   O03U7       1     -1.05    15.999
   19642      Ob       1     SIL   O03U8       1     -1.05    15.999
   19643      Ob       1     SIL   O03U9       1     -1.05    15.999
   19644      Ob       1     SIL   O03UA       1     -1.05    15.999
   19645      Ob       1     SIL   O03UB       1     -1.05    15.999
   19646      Ob       1     SIL   O03UC       1     -1.05    15.999
   19647      Si       1     SIL   Si1k7       1       2.1    28.086
   19648      Si       1     SIL   Si1k8       1       2.1    28.086
   19649      Si       1     SIL   Si1k9       1       2.1    28.086
   19650      Ob       1     SIL   O03UD       1     -1.05    15.999
   19651      Ob       1     SIL   O03UE       1     -1.05    15.999
   19652      Ob       1     SIL   O03UF       1     -1.05    15.999
   19653      Ob       1     SIL   O03UG       1     -1.05    15.999
   19654      Ob       1     SIL   O03UH       1     -1.05    15.999
   19655      Ob       1     SIL   O03UI       1     -1.05    15.999
   19656      Si       1     SIL   Si1kA       1       2.1    28.086
   19657      Si       1     SIL   Si1kB       1       2.1    28.086
   19658      Si       1     SIL   Si1kC       1       2.1    28.086
   19659      Ob       1     SIL   O03UJ       1     -1.05    15.999
   19660      Ob       1     SIL   O03UK       1     -1.05    15.999
   19661      Ob       1     SIL   O03UL       1     -1.05    15.999
   19662      Ob       1     SIL   O03UM       1     -1.05    15.999
   19663      Ob       1     SIL   O03UN       1     -1.05    15.999
   19664      Ob       1     SIL   O03UO       1     -1.05    15.999
   19665      Si       1     SIL   Si1kD       1       2.1    28.086
   19666      Si       1     SIL   Si1kE       1       2.1    28.086
   19667      Si       1     SIL   Si1kF       1       2.1    28.086
   19668      Ob       1     SIL   O03UP       1     -1.05    15.999
   19669      Ob       1     SIL   O03UQ       1     -1.05    15.999
   19670      Ob       1     SIL   O03UR       1     -1.05    15.999
   19671      Ob       1     SIL   O03US       1     -1.05    15.999
   19672      Ob       1     SIL   O03UT       1     -1.05    15.999
   19673      Ob       1     SIL   O03UU       1     -1.05    15.999
   19674      Si       1     SIL   Si1kG       1       2.1    28.086
   19675      Si       1     SIL   Si1kH       1       2.1    28.086
   19676      Si       1     SIL   Si1kI       1       2.1    28.086
   19677      Ob       1     SIL   O03UV       1     -1.05    15.999
   19678      Ob       1     SIL   O03UW       1     -1.05    15.999
   19679      Ob       1     SIL   O03UX       1     -1.05    15.999
   19680      Ob       1     SIL   O03UY       1     -1.05    15.999
   19681      Ob       1     SIL   O03UZ       1     -1.05    15.999
   19682      Ob       1     SIL   O03Ua       1     -1.05    15.999
   19683      Si       1     SIL   Si1kJ       1       2.1    28.086
   19684      Si       1     SIL   Si1kK       1       2.1    28.086
   19685      Si       1     SIL   Si1kL       1       2.1    28.086
   19686      Ob       1     SIL   O03Ub       1     -1.05    15.999
   19687      Ob       1     SIL   O03Uc       1     -1.05    15.999
   19688      Ob       1     SIL   O03Ud       1     -1.05    15.999
   19689      Ob       1     SIL   O03Ue       1     -1.05    15.999
   19690      Ob       1     SIL   O03Uf       1     -1.05    15.999
   19691      Ob       1     SIL   O03Ug       1     -1.05    15.999
   19692      Si       1     SIL   Si1kM       1       2.1    28.086
   19693      Si       1     SIL   Si1kN       1       2.1    28.086
   19694      Si       1     SIL   Si1kO       1       2.1    28.086
   19695      Ob       1     SIL   O03Uh       1     -1.05    15.999
   19696      Ob       1     SIL   O03Ui       1     -1.05    15.999
   19697      Ob       1     SIL   O03Uj       1     -1.05    15.999
   19698      Ob       1     SIL   O03Uk       1     -1.05    15.999
   19699      Ob       1     SIL   O03Ul       1     -1.05    15.999
   19700      Ob       1     SIL   O03Um       1     -1.05    15.999
   19701      Si       1     SIL   Si1kP       1       2.1    28.086
   19702      Si       1     SIL   Si1kQ       1       2.1    28.086
   19703      Si       1     SIL   Si1kR       1       2.1    28.086
   19704      Ob       1     SIL   O03Un       1     -1.05    15.999
   19705      Ob       1     SIL   O03Uo       1     -1.05    15.999
   19706      Ob       1     SIL   O03Up       1     -1.05    15.999
   19707      Ob       1     SIL   O03Uq       1     -1.05    15.999
   19708      Ob       1     SIL   O03Ur       1     -1.05    15.999
   19709      Ob       1     SIL   O03Us       1     -1.05    15.999
   19710      Si       1     SIL   Si1kS       1       2.1    28.086
   19711      Si       1     SIL   Si1kT       1       2.1    28.086
   19712      Si       1     SIL   Si1kU       1       2.1    28.086
   19713      Ob       1     SIL   O03Ut       1     -1.05    15.999
   19714      Ob       1     SIL   O03Uu       1     -1.05    15.999
   19715      Ob       1     SIL   O03Uv       1     -1.05    15.999
   19716      Ob       1     SIL   O03Uw       1     -1.05    15.999
   19717      Ob       1     SIL   O03Ux       1     -1.05    15.999
   19718      Ob       1     SIL   O03Uy       1     -1.05    15.999
   19719      Si       1     SIL   Si1kV       1       2.1    28.086
   19720      Si       1     SIL   Si1kW       1       2.1    28.086
   19721      Si       1     SIL   Si1kX       1       2.1    28.086
   19722      Ob       1     SIL   O03Uz       1     -1.05    15.999
   19723      Ob       1     SIL   O03V0       1     -1.05    15.999
   19724      Ob       1     SIL   O03V1       1     -1.05    15.999
   19725      Ob       1     SIL   O03V2       1     -1.05    15.999
   19726      Ob       1     SIL   O03V3       1     -1.05    15.999
   19727      Ob       1     SIL   O03V4       1     -1.05    15.999
   19728      Si       1     SIL   Si1kY       1       2.1    28.086
   19729      Si       1     SIL   Si1kZ       1       2.1    28.086
   19730      Si       1     SIL   Si1ka       1       2.1    28.086
   19731      Ob       1     SIL   O03V5       1     -1.05    15.999
   19732      Ob       1     SIL   O03V6       1     -1.05    15.999
   19733      Ob       1     SIL   O03V7       1     -1.05    15.999
   19734      Ob       1     SIL   O03V8       1     -1.05    15.999
   19735      Ob       1     SIL   O03V9       1     -1.05    15.999
   19736      Ob       1     SIL   O03VA       1     -1.05    15.999
   19737      Si       1     SIL   Si1kb       1       2.1    28.086
   19738      Si       1     SIL   Si1kc       1       2.1    28.086
   19739      Si       1     SIL   Si1kd       1       2.1    28.086
   19740      Ob       1     SIL   O03VB       1     -1.05    15.999
   19741      Ob       1     SIL   O03VC       1     -1.05    15.999
   19742      Ob       1     SIL   O03VD       1     -1.05    15.999
   19743      Ob       1     SIL   O03VE       1     -1.05    15.999
   19744      Ob       1     SIL   O03VF       1     -1.05    15.999
   19745      Ob       1     SIL   O03VG       1     -1.05    15.999
   19746      Si       1     SIL   Si1ke       1       2.1    28.086
   19747      Si       1     SIL   Si1kf       1       2.1    28.086
   19748      Si       1     SIL   Si1kg       1       2.1    28.086
   19749      Ob       1     SIL   O03VH       1     -1.05    15.999
   19750      Ob       1     SIL   O03VI       1     -1.05    15.999
   19751      Ob       1     SIL   O03VJ       1     -1.05    15.999
   19752      Ob       1     SIL   O03VK       1     -1.05    15.999
   19753      Ob       1     SIL   O03VL       1     -1.05    15.999
   19754      Ob       1     SIL   O03VM       1     -1.05    15.999
   19755      Si       1     SIL   Si1kh       1       2.1    28.086
   19756      Si       1     SIL   Si1ki       1       2.1    28.086
   19757      Si       1     SIL   Si1kj       1       2.1    28.086
   19758      Ob       1     SIL   O03VN       1     -1.05    15.999
   19759      Ob       1     SIL   O03VO       1     -1.05    15.999
   19760      Ob       1     SIL   O03VP       1     -1.05    15.999
   19761      Ob       1     SIL   O03VQ       1     -1.05    15.999
   19762      Ob       1     SIL   O03VR       1     -1.05    15.999
   19763      Ob       1     SIL   O03VS       1     -1.05    15.999
   19764      Si       1     SIL   Si1kk       1       2.1    28.086
   19765      Si       1     SIL   Si1kl       1       2.1    28.086
   19766      Si       1     SIL   Si1km       1       2.1    28.086
   19767      Ob       1     SIL   O03VT       1     -1.05    15.999
   19768      Ob       1     SIL   O03VU       1     -1.05    15.999
   19769      Ob       1     SIL   O03VV       1     -1.05    15.999
   19770      Ob       1     SIL   O03VW       1     -1.05    15.999
   19771      Ob       1     SIL   O03VX       1     -1.05    15.999
   19772      Ob       1     SIL   O03VY       1     -1.05    15.999
   19773      Si       1     SIL   Si1kn       1       2.1    28.086
   19774      Si       1     SIL   Si1ko       1       2.1    28.086
   19775      Si       1     SIL   Si1kp       1       2.1    28.086
   19776      Ob       1     SIL   O03VZ       1     -1.05    15.999
   19777      Ob       1     SIL   O03Va       1     -1.05    15.999
   19778      Ob       1     SIL   O03Vb       1     -1.05    15.999
   19779      Ob       1     SIL   O03Vc       1     -1.05    15.999
   19780      Ob       1     SIL   O03Vd       1     -1.05    15.999
   19781      Ob       1     SIL   O03Ve       1     -1.05    15.999
   19782      Si       1     SIL   Si1kq       1       2.1    28.086
   19783      Si       1     SIL   Si1kr       1       2.1    28.086
   19784      Si       1     SIL   Si1ks       1       2.1    28.086
   19785      Ob       1     SIL   O03Vf       1     -1.05    15.999
   19786      Ob       1     SIL   O03Vg       1     -1.05    15.999
   19787      Ob       1     SIL   O03Vh       1     -1.05    15.999
   19788      Ob       1     SIL   O03Vi       1     -1.05    15.999
   19789      Ob       1     SIL   O03Vj       1     -1.05    15.999
   19790      Ob       1     SIL   O03Vk       1     -1.05    15.999
   19791      Si       1     SIL   Si1kt       1       2.1    28.086
   19792      Si       1     SIL   Si1ku       1       2.1    28.086
   19793      Si       1     SIL   Si1kv       1       2.1    28.086
   19794      Ob       1     SIL   O03Vl       1     -1.05    15.999
   19795      Ob       1     SIL   O03Vm       1     -1.05    15.999
   19796      Ob       1     SIL   O03Vn       1     -1.05    15.999
   19797      Ob       1     SIL   O03Vo       1     -1.05    15.999
   19798      Ob       1     SIL   O03Vp       1     -1.05    15.999
   19799      Ob       1     SIL   O03Vq       1     -1.05    15.999
   19800      Si       1     SIL   Si1kw       1       2.1    28.086
   19801      Si       1     SIL   Si1kx       1       2.1    28.086
   19802      Si       1     SIL   Si1ky       1       2.1    28.086
   19803      Ob       1     SIL   O03Vr       1     -1.05    15.999
   19804      Ob       1     SIL   O03Vs       1     -1.05    15.999
   19805      Ob       1     SIL   O03Vt       1     -1.05    15.999
   19806      Ob       1     SIL   O03Vu       1     -1.05    15.999
   19807      Ob       1     SIL   O03Vv       1     -1.05    15.999
   19808      Ob       1     SIL   O03Vw       1     -1.05    15.999
   19809      Si       1     SIL   Si1kz       1       2.1    28.086
   19810      Si       1     SIL   Si1l0       1       2.1    28.086
   19811      Si       1     SIL   Si1l1       1       2.1    28.086
   19812      Ob       1     SIL   O03Vx       1     -1.05    15.999
   19813      Ob       1     SIL   O03Vy       1     -1.05    15.999
   19814      Ob       1     SIL   O03Vz       1     -1.05    15.999
   19815      Ob       1     SIL   O03W0       1     -1.05    15.999
   19816      Ob       1     SIL   O03W1       1     -1.05    15.999
   19817      Ob       1     SIL   O03W2       1     -1.05    15.999
   19818      Si       1     SIL   Si1l2       1       2.1    28.086
   19819      Si       1     SIL   Si1l3       1       2.1    28.086
   19820      Si       1     SIL   Si1l4       1       2.1    28.086
   19821      Ob       1     SIL   O03W3       1     -1.05    15.999
   19822       O       1     SIL   O03W4       1    -0.525    15.999
   19823       O       1     SIL   O03W5       1    -0.525    15.999
   19824      Ob       1     SIL   O03W6       1     -1.05    15.999
   19825      Ob       1     SIL   O03W7       1     -1.05    15.999
   19826      Ob       1     SIL   O03W8       1     -1.05    15.999
   19827      Si       1     SIL   Si1l5       1       2.1    28.086
   19828      Si       1     SIL   Si1l6       1       2.1    28.086
   19829      Si       1     SIL   Si1l7       1       2.1    28.086
   19830      Ob       1     SIL   O03W9       1     -1.05    15.999
   19831      Ob       1     SIL   O03WA       1     -1.05    15.999
   19832      Ob       1     SIL   O03WB       1     -1.05    15.999
   19833      Ob       1     SIL   O03WC       1     -1.05    15.999
   19834      Ob       1     SIL   O03WD       1     -1.05    15.999
   19835      Ob       1     SIL   O03WE       1     -1.05    15.999
   19836      Si       1     SIL   Si1l8       1       2.1    28.086
   19837      Si       1     SIL   Si1l9       1       2.1    28.086
   19838      Si       1     SIL   Si1lA       1       2.1    28.086
   19839      Ob       1     SIL   O03WF       1     -1.05    15.999
   19840      Ob       1     SIL   O03WG       1     -1.05    15.999
   19841      Ob       1     SIL   O03WH       1     -1.05    15.999
   19842      Ob       1     SIL   O03WI       1     -1.05    15.999
   19843      Ob       1     SIL   O03WJ       1     -1.05    15.999
   19844      Ob       1     SIL   O03WK       1     -1.05    15.999
   19845      Si       1     SIL   Si1lB       1       2.1    28.086
   19846      Si       1     SIL   Si1lC       1       2.1    28.086
   19847      Si       1     SIL   Si1lD       1       2.1    28.086
   19848      Ob       1     SIL   O03WL       1     -1.05    15.999
   19849      Ob       1     SIL   O03WM       1     -1.05    15.999
   19850      Ob       1     SIL   O03WN       1     -1.05    15.999
   19851      Ob       1     SIL   O03WO       1     -1.05    15.999
   19852      Ob       1     SIL   O03WP       1     -1.05    15.999
   19853      Ob       1     SIL   O03WQ       1     -1.05    15.999
   19854      Si       1     SIL   Si1lE       1       2.1    28.086
   19855      Si       1     SIL   Si1lF       1       2.1    28.086
   19856      Si       1     SIL   Si1lG       1       2.1    28.086
   19857      Ob       1     SIL   O03WR       1     -1.05    15.999
   19858      Ob       1     SIL   O03WS       1     -1.05    15.999
   19859      Ob       1     SIL   O03WT       1     -1.05    15.999
   19860      Ob       1     SIL   O03WU       1     -1.05    15.999
   19861      Ob       1     SIL   O03WV       1     -1.05    15.999
   19862      Ob       1     SIL   O03WW       1     -1.05    15.999
   19863      Si       1     SIL   Si1lH       1       2.1    28.086
   19864      Si       1     SIL   Si1lI       1       2.1    28.086
   19865      Si       1     SIL   Si1lJ       1       2.1    28.086
   19866      Ob       1     SIL   O03WX       1     -1.05    15.999
   19867      Ob       1     SIL   O03WY       1     -1.05    15.999
   19868      Ob       1     SIL   O03WZ       1     -1.05    15.999
   19869      Ob       1     SIL   O03Wa       1     -1.05    15.999
   19870      Ob       1     SIL   O03Wb       1     -1.05    15.999
   19871      Ob       1     SIL   O03Wc       1     -1.05    15.999
   19872      Si       1     SIL   Si1lK       1       2.1    28.086
   19873      Si       1     SIL   Si1lL       1       2.1    28.086
   19874      Si       1     SIL   Si1lM       1       2.1    28.086
   19875      Ob       1     SIL   O03Wd       1     -1.05    15.999
   19876      Ob       1     SIL   O03We       1     -1.05    15.999
   19877      Ob       1     SIL   O03Wf       1     -1.05    15.999
   19878      Ob       1     SIL   O03Wg       1     -1.05    15.999
   19879      Ob       1     SIL   O03Wh       1     -1.05    15.999
   19880      Ob       1     SIL   O03Wi       1     -1.05    15.999
   19881      Si       1     SIL   Si1lN       1       2.1    28.086
   19882      Si       1     SIL   Si1lO       1       2.1    28.086
   19883      Si       1     SIL   Si1lP       1       2.1    28.086
   19884      Ob       1     SIL   O03Wj       1     -1.05    15.999
   19885      Ob       1     SIL   O03Wk       1     -1.05    15.999
   19886      Ob       1     SIL   O03Wl       1     -1.05    15.999
   19887      Ob       1     SIL   O03Wm       1     -1.05    15.999
   19888      Ob       1     SIL   O03Wn       1     -1.05    15.999
   19889      Ob       1     SIL   O03Wo       1     -1.05    15.999
   19890      Si       1     SIL   Si1lQ       1       2.1    28.086
   19891      Si       1     SIL   Si1lR       1       2.1    28.086
   19892      Si       1     SIL   Si1lS       1       2.1    28.086
   19893      Ob       1     SIL   O03Wp       1     -1.05    15.999
   19894      Ob       1     SIL   O03Wq       1     -1.05    15.999
   19895      Ob       1     SIL   O03Wr       1     -1.05    15.999
   19896      Ob       1     SIL   O03Ws       1     -1.05    15.999
   19897      Ob       1     SIL   O03Wt       1     -1.05    15.999
   19898      Ob       1     SIL   O03Wu       1     -1.05    15.999
   19899      Si       1     SIL   Si1lT       1       2.1    28.086
   19900      Si       1     SIL   Si1lU       1       2.1    28.086
   19901      Si       1     SIL   Si1lV       1       2.1    28.086
   19902      Ob       1     SIL   O03Wv       1     -1.05    15.999
   19903      Ob       1     SIL   O03Ww       1     -1.05    15.999
   19904      Ob       1     SIL   O03Wx       1     -1.05    15.999
   19905      Ob       1     SIL   O03Wy       1     -1.05    15.999
   19906      Ob       1     SIL   O03Wz       1     -1.05    15.999
   19907      Ob       1     SIL   O03X0       1     -1.05    15.999
   19908      Si       1     SIL   Si1lW       1       2.1    28.086
   19909      Si       1     SIL   Si1lX       1       2.1    28.086
   19910      Si       1     SIL   Si1lY       1       2.1    28.086
   19911      Ob       1     SIL   O03X1       1     -1.05    15.999
   19912      Ob       1     SIL   O03X2       1     -1.05    15.999
   19913      Ob       1     SIL   O03X3       1     -1.05    15.999
   19914      Ob       1     SIL   O03X4       1     -1.05    15.999
   19915      Ob       1     SIL   O03X5       1     -1.05    15.999
   19916      Ob       1     SIL   O03X6       1     -1.05    15.999
   19917      Si       1     SIL   Si1lZ       1       2.1    28.086
   19918      Si       1     SIL   Si1la       1       2.1    28.086
   19919      Si       1     SIL   Si1lb       1       2.1    28.086
   19920      Ob       1     SIL   O03X7       1     -1.05    15.999
   19921      Ob       1     SIL   O03X8       1     -1.05    15.999
   19922      Ob       1     SIL   O03X9       1     -1.05    15.999
   19923      Ob       1     SIL   O03XA       1     -1.05    15.999
   19924      Ob       1     SIL   O03XB       1     -1.05    15.999
   19925      Ob       1     SIL   O03XC       1     -1.05    15.999
   19926      Si       1     SIL   Si1lc       1       2.1    28.086
   19927      Si       1     SIL   Si1ld       1       2.1    28.086
   19928      Si       1     SIL   Si1le       1       2.1    28.086
   19929      Ob       1     SIL   O03XD       1     -1.05    15.999
   19930      Ob       1     SIL   O03XE       1     -1.05    15.999
   19931      Ob       1     SIL   O03XF       1     -1.05    15.999
   19932      Ob       1     SIL   O03XG       1     -1.05    15.999
   19933      Ob       1     SIL   O03XH       1     -1.05    15.999
   19934      Ob       1     SIL   O03XI       1     -1.05    15.999
   19935      Si       1     SIL   Si1lf       1       2.1    28.086
   19936      Si       1     SIL   Si1lg       1       2.1    28.086
   19937      Si       1     SIL   Si1lh       1       2.1    28.086
   19938      Ob       1     SIL   O03XJ       1     -1.05    15.999
   19939      Ob       1     SIL   O03XK       1     -1.05    15.999
   19940      Ob       1     SIL   O03XL       1     -1.05    15.999
   19941      Ob       1     SIL   O03XM       1     -1.05    15.999
   19942      Ob       1     SIL   O03XN       1     -1.05    15.999
   19943      Ob       1     SIL   O03XO       1     -1.05    15.999
   19944      Si       1     SIL   Si1li       1       2.1    28.086
   19945      Si       1     SIL   Si1lj       1       2.1    28.086
   19946      Si       1     SIL   Si1lk       1       2.1    28.086
   19947      Ob       1     SIL   O03XP       1     -1.05    15.999
   19948      Ob       1     SIL   O03XQ       1     -1.05    15.999
   19949      Ob       1     SIL   O03XR       1     -1.05    15.999
   19950      Ob       1     SIL   O03XS       1     -1.05    15.999
   19951      Ob       1     SIL   O03XT       1     -1.05    15.999
   19952      Ob       1     SIL   O03XU       1     -1.05    15.999
   19953      Si       1     SIL   Si1ll       1       2.1    28.086
   19954      Si       1     SIL   Si1lm       1       2.1    28.086
   19955      Si       1     SIL   Si1ln       1       2.1    28.086
   19956      Ob       1     SIL   O03XV       1     -1.05    15.999
   19957      Ob       1     SIL   O03XW       1     -1.05    15.999
   19958      Ob       1     SIL   O03XX       1     -1.05    15.999
   19959      Ob       1     SIL   O03XY       1     -1.05    15.999
   19960      Ob       1     SIL   O03XZ       1     -1.05    15.999
   19961      Ob       1     SIL   O03Xa       1     -1.05    15.999
   19962      Si       1     SIL   Si1lo       1       2.1    28.086
   19963      Si       1     SIL   Si1lp       1       2.1    28.086
   19964      Si       1     SIL   Si1lq       1       2.1    28.086
   19965      Ob       1     SIL   O03Xb       1     -1.05    15.999
   19966      Ob       1     SIL   O03Xc       1     -1.05    15.999
   19967      Ob       1     SIL   O03Xd       1     -1.05    15.999
   19968      Ob       1     SIL   O03Xe       1     -1.05    15.999
   19969      Ob       1     SIL   O03Xf       1     -1.05    15.999
   19970      Ob       1     SIL   O03Xg       1     -1.05    15.999
   19971      Si       1     SIL   Si1lr       1       2.1    28.086
   19972      Si       1     SIL   Si1ls       1       2.1    28.086
   19973      Si       1     SIL   Si1lt       1       2.1    28.086
   19974      Ob       1     SIL   O03Xh       1     -1.05    15.999
   19975      Ob       1     SIL   O03Xi       1     -1.05    15.999
   19976      Ob       1     SIL   O03Xj       1     -1.05    15.999
   19977      Ob       1     SIL   O03Xk       1     -1.05    15.999
   19978      Ob       1     SIL   O03Xl       1     -1.05    15.999
   19979      Ob       1     SIL   O03Xm       1     -1.05    15.999
   19980      Si       1     SIL   Si1lu       1       2.1    28.086
   19981      Si       1     SIL   Si1lv       1       2.1    28.086
   19982      Si       1     SIL   Si1lw       1       2.1    28.086
   19983      Ob       1     SIL   O03Xn       1     -1.05    15.999
   19984      Ob       1     SIL   O03Xo       1     -1.05    15.999
   19985      Ob       1     SIL   O03Xp       1     -1.05    15.999
   19986      Ob       1     SIL   O03Xq       1     -1.05    15.999
   19987      Ob       1     SIL   O03Xr       1     -1.05    15.999
   19988      Ob       1     SIL   O03Xs       1     -1.05    15.999
   19989      Si       1     SIL   Si1lx       1       2.1    28.086
   19990      Si       1     SIL   Si1ly       1       2.1    28.086
   19991      Si       1     SIL   Si1lz       1       2.1    28.086
   19992      Ob       1     SIL   O03Xt       1     -1.05    15.999
   19993      Ob       1     SIL   O03Xu       1     -1.05    15.999
   19994      Ob       1     SIL   O03Xv       1     -1.05    15.999
   19995      Ob       1     SIL   O03Xw       1     -1.05    15.999
   19996      Ob       1     SIL   O03Xx       1     -1.05    15.999
   19997      Ob       1     SIL   O03Xy       1     -1.05    15.999
   19998      Si       1     SIL   Si1m0       1       2.1    28.086
   19999      Si       1     SIL   Si1m1       1       2.1    28.086
   20000      Si       1     SIL   Si1m2       1       2.1    28.086
   20001      Ob       1     SIL   O03Xz       1     -1.05    15.999
   20002      Ob       1     SIL   O03Y0       1     -1.05    15.999
   20003      Ob       1     SIL   O03Y1       1     -1.05    15.999
   20004      Ob       1     SIL   O03Y2       1     -1.05    15.999
   20005      Ob       1     SIL   O03Y3       1     -1.05    15.999
   20006      Ob       1     SIL   O03Y4       1     -1.05    15.999
   20007      Si       1     SIL   Si1m3       1       2.1    28.086
   20008      Si       1     SIL   Si1m4       1       2.1    28.086
   20009      Si       1     SIL   Si1m5       1       2.1    28.086
   20010      Ob       1     SIL   O03Y5       1     -1.05    15.999
   20011      Ob       1     SIL   O03Y6       1     -1.05    15.999
   20012      Ob       1     SIL   O03Y7       1     -1.05    15.999
   20013      Ob       1     SIL   O03Y8       1     -1.05    15.999
   20014      Ob       1     SIL   O03Y9       1     -1.05    15.999
   20015      Ob       1     SIL   O03YA       1     -1.05    15.999
   20016      Si       1     SIL   Si1m6       1       2.1    28.086
   20017      Si       1     SIL   Si1m7       1       2.1    28.086
   20018      Si       1     SIL   Si1m8       1       2.1    28.086
   20019      Ob       1     SIL   O03YB       1     -1.05    15.999
   20020      Ob       1     SIL   O03YC       1     -1.05    15.999
   20021      Ob       1     SIL   O03YD       1     -1.05    15.999
   20022      Ob       1     SIL   O03YE       1     -1.05    15.999
   20023      Ob       1     SIL   O03YF       1     -1.05    15.999
   20024      Ob       1     SIL   O03YG       1     -1.05    15.999
   20025      Si       1     SIL   Si1m9       1       2.1    28.086
   20026      Si       1     SIL   Si1mA       1       2.1    28.086
   20027      Si       1     SIL   Si1mB       1       2.1    28.086
   20028      Ob       1     SIL   O03YH       1     -1.05    15.999
   20029       O       1     SIL   O03YI       1    -0.525    15.999
   20030       O       1     SIL   O03YJ       1    -0.525    15.999
   20031      Ob       1     SIL   O03YK       1     -1.05    15.999
   20032      Ob       1     SIL   O03YL       1     -1.05    15.999
   20033      Ob       1     SIL   O03YM       1     -1.05    15.999
   20034      Si       1     SIL   Si1mC       1       2.1    28.086
   20035      Si       1     SIL   Si1mD       1       2.1    28.086
   20036      Si       1     SIL   Si1mE       1       2.1    28.086
   20037      Ob       1     SIL   O03YN       1     -1.05    15.999
   20038      Ob       1     SIL   O03YO       1     -1.05    15.999
   20039      Ob       1     SIL   O03YP       1     -1.05    15.999
   20040      Ob       1     SIL   O03YQ       1     -1.05    15.999
   20041      Ob       1     SIL   O03YR       1     -1.05    15.999
   20042      Ob       1     SIL   O03YS       1     -1.05    15.999
   20043      Si       1     SIL   Si1mF       1       2.1    28.086
   20044      Si       1     SIL   Si1mG       1       2.1    28.086
   20045      Si       1     SIL   Si1mH       1       2.1    28.086
   20046      Ob       1     SIL   O03YT       1     -1.05    15.999
   20047      Ob       1     SIL   O03YU       1     -1.05    15.999
   20048      Ob       1     SIL   O03YV       1     -1.05    15.999
   20049      Ob       1     SIL   O03YW       1     -1.05    15.999
   20050      Ob       1     SIL   O03YX       1     -1.05    15.999
   20051      Ob       1     SIL   O03YY       1     -1.05    15.999
   20052      Si       1     SIL   Si1mI       1       2.1    28.086
   20053      Si       1     SIL   Si1mJ       1       2.1    28.086
   20054      Si       1     SIL   Si1mK       1       2.1    28.086
   20055      Ob       1     SIL   O03YZ       1     -1.05    15.999
   20056      Ob       1     SIL   O03Ya       1     -1.05    15.999
   20057      Ob       1     SIL   O03Yb       1     -1.05    15.999
   20058      Ob       1     SIL   O03Yc       1     -1.05    15.999
   20059      Ob       1     SIL   O03Yd       1     -1.05    15.999
   20060      Ob       1     SIL   O03Ye       1     -1.05    15.999
   20061      Si       1     SIL   Si1mL       1       2.1    28.086
   20062      Si       1     SIL   Si1mM       1       2.1    28.086
   20063      Si       1     SIL   Si1mN       1       2.1    28.086
   20064      Ob       1     SIL   O03Yf       1     -1.05    15.999
   20065      Ob       1     SIL   O03Yg       1     -1.05    15.999
   20066      Ob       1     SIL   O03Yh       1     -1.05    15.999
   20067      Ob       1     SIL   O03Yi       1     -1.05    15.999
   20068      Ob       1     SIL   O03Yj       1     -1.05    15.999
   20069      Ob       1     SIL   O03Yk       1     -1.05    15.999
   20070      Si       1     SIL   Si1mO       1       2.1    28.086
   20071      Si       1     SIL   Si1mP       1       2.1    28.086
   20072      Si       1     SIL   Si1mQ       1       2.1    28.086
   20073      Ob       1     SIL   O03Yl       1     -1.05    15.999
   20074      Ob       1     SIL   O03Ym       1     -1.05    15.999
   20075      Ob       1     SIL   O03Yn       1     -1.05    15.999
   20076      Ob       1     SIL   O03Yo       1     -1.05    15.999
   20077      Ob       1     SIL   O03Yp       1     -1.05    15.999
   20078      Ob       1     SIL   O03Yq       1     -1.05    15.999
   20079      Si       1     SIL   Si1mR       1       2.1    28.086
   20080      Si       1     SIL   Si1mS       1       2.1    28.086
   20081      Si       1     SIL   Si1mT       1       2.1    28.086
   20082      Ob       1     SIL   O03Yr       1     -1.05    15.999
   20083      Ob       1     SIL   O03Ys       1     -1.05    15.999
   20084      Ob       1     SIL   O03Yt       1     -1.05    15.999
   20085      Ob       1     SIL   O03Yu       1     -1.05    15.999
   20086      Ob       1     SIL   O03Yv       1     -1.05    15.999
   20087      Ob       1     SIL   O03Yw       1     -1.05    15.999
   20088      Si       1     SIL   Si1mU       1       2.1    28.086
   20089      Si       1     SIL   Si1mV       1       2.1    28.086
   20090      Si       1     SIL   Si1mW       1       2.1    28.086
   20091      Ob       1     SIL   O03Yx       1     -1.05    15.999
   20092      Ob       1     SIL   O03Yy       1     -1.05    15.999
   20093      Ob       1     SIL   O03Yz       1     -1.05    15.999
   20094      Ob       1     SIL   O03Z0       1     -1.05    15.999
   20095      Ob       1     SIL   O03Z1       1     -1.05    15.999
   20096      Ob       1     SIL   O03Z2       1     -1.05    15.999
   20097      Si       1     SIL   Si1mX       1       2.1    28.086
   20098      Si       1     SIL   Si1mY       1       2.1    28.086
   20099      Si       1     SIL   Si1mZ       1       2.1    28.086
   20100      Ob       1     SIL   O03Z3       1     -1.05    15.999
   20101      Ob       1     SIL   O03Z4       1     -1.05    15.999
   20102      Ob       1     SIL   O03Z5       1     -1.05    15.999
   20103      Ob       1     SIL   O03Z6       1     -1.05    15.999
   20104      Ob       1     SIL   O03Z7       1     -1.05    15.999
   20105      Ob       1     SIL   O03Z8       1     -1.05    15.999
   20106      Si       1     SIL   Si1ma       1       2.1    28.086
   20107      Si       1     SIL   Si1mb       1       2.1    28.086
   20108      Si       1     SIL   Si1mc       1       2.1    28.086
   20109      Ob       1     SIL   O03Z9       1     -1.05    15.999
   20110      Ob       1     SIL   O03ZA       1     -1.05    15.999
   20111      Ob       1     SIL   O03ZB       1     -1.05    15.999
   20112      Ob       1     SIL   O03ZC       1     -1.05    15.999
   20113      Ob       1     SIL   O03ZD       1     -1.05    15.999
   20114      Ob       1     SIL   O03ZE       1     -1.05    15.999
   20115      Si       1     SIL   Si1md       1       2.1    28.086
   20116      Si       1     SIL   Si1me       1       2.1    28.086
   20117      Si       1     SIL   Si1mf       1       2.1    28.086
   20118      Ob       1     SIL   O03ZF       1     -1.05    15.999
   20119      Ob       1     SIL   O03ZG       1     -1.05    15.999
   20120      Ob       1     SIL   O03ZH       1     -1.05    15.999
   20121      Ob       1     SIL   O03ZI       1     -1.05    15.999
   20122      Ob       1     SIL   O03ZJ       1     -1.05    15.999
   20123      Ob       1     SIL   O03ZK       1     -1.05    15.999
   20124      Si       1     SIL   Si1mg       1       2.1    28.086
   20125      Si       1     SIL   Si1mh       1       2.1    28.086
   20126      Si       1     SIL   Si1mi       1       2.1    28.086
   20127      Ob       1     SIL   O03ZL       1     -1.05    15.999
   20128      Ob       1     SIL   O03ZM       1     -1.05    15.999
   20129      Ob       1     SIL   O03ZN       1     -1.05    15.999
   20130      Ob       1     SIL   O03ZO       1     -1.05    15.999
   20131      Ob       1     SIL   O03ZP       1     -1.05    15.999
   20132      Ob       1     SIL   O03ZQ       1     -1.05    15.999
   20133      Si       1     SIL   Si1mj       1       2.1    28.086
   20134      Si       1     SIL   Si1mk       1       2.1    28.086
   20135      Si       1     SIL   Si1ml       1       2.1    28.086
   20136      Ob       1     SIL   O03ZR       1     -1.05    15.999
   20137      Ob       1     SIL   O03ZS       1     -1.05    15.999
   20138      Ob       1     SIL   O03ZT       1     -1.05    15.999
   20139      Ob       1     SIL   O03ZU       1     -1.05    15.999
   20140      Ob       1     SIL   O03ZV       1     -1.05    15.999
   20141      Ob       1     SIL   O03ZW       1     -1.05    15.999
   20142      Si       1     SIL   Si1mm       1       2.1    28.086
   20143      Si       1     SIL   Si1mn       1       2.1    28.086
   20144      Si       1     SIL   Si1mo       1       2.1    28.086
   20145      Ob       1     SIL   O03ZX       1     -1.05    15.999
   20146      Ob       1     SIL   O03ZY       1     -1.05    15.999
   20147      Ob       1     SIL   O03ZZ       1     -1.05    15.999
   20148      Ob       1     SIL   O03Za       1     -1.05    15.999
   20149      Ob       1     SIL   O03Zb       1     -1.05    15.999
   20150      Ob       1     SIL   O03Zc       1     -1.05    15.999
   20151      Si       1     SIL   Si1mp       1       2.1    28.086
   20152      Si       1     SIL   Si1mq       1       2.1    28.086
   20153      Si       1     SIL   Si1mr       1       2.1    28.086
   20154      Ob       1     SIL   O03Zd       1     -1.05    15.999
   20155      Ob       1     SIL   O03Ze       1     -1.05    15.999
   20156      Ob       1     SIL   O03Zf       1     -1.05    15.999
   20157      Ob       1     SIL   O03Zg       1     -1.05    15.999
   20158      Ob       1     SIL   O03Zh       1     -1.05    15.999
   20159      Ob       1     SIL   O03Zi       1     -1.05    15.999
   20160      Si       1     SIL   Si1ms       1       2.1    28.086
   20161      Si       1     SIL   Si1mt       1       2.1    28.086
   20162      Si       1     SIL   Si1mu       1       2.1    28.086
   20163      Ob       1     SIL   O03Zj       1     -1.05    15.999
   20164      Ob       1     SIL   O03Zk       1     -1.05    15.999
   20165      Ob       1     SIL   O03Zl       1     -1.05    15.999
   20166      Ob       1     SIL   O03Zm       1     -1.05    15.999
   20167      Ob       1     SIL   O03Zn       1     -1.05    15.999
   20168      Ob       1     SIL   O03Zo       1     -1.05    15.999
   20169      Si       1     SIL   Si1mv       1       2.1    28.086
   20170      Si       1     SIL   Si1mw       1       2.1    28.086
   20171      Si       1     SIL   Si1mx       1       2.1    28.086
   20172      Ob       1     SIL   O03Zp       1     -1.05    15.999
   20173      Ob       1     SIL   O03Zq       1     -1.05    15.999
   20174      Ob       1     SIL   O03Zr       1     -1.05    15.999
   20175      Ob       1     SIL   O03Zs       1     -1.05    15.999
   20176      Ob       1     SIL   O03Zt       1     -1.05    15.999
   20177      Ob       1     SIL   O03Zu       1     -1.05    15.999
   20178      Si       1     SIL   Si1my       1       2.1    28.086
   20179      Si       1     SIL   Si1mz       1       2.1    28.086
   20180      Si       1     SIL   Si1n0       1       2.1    28.086
   20181      Ob       1     SIL   O03Zv       1     -1.05    15.999
   20182      Ob       1     SIL   O03Zw       1     -1.05    15.999
   20183      Ob       1     SIL   O03Zx       1     -1.05    15.999
   20184      Ob       1     SIL   O03Zy       1     -1.05    15.999
   20185      Ob       1     SIL   O03Zz       1     -1.05    15.999
   20186      Ob       1     SIL   O03a0       1     -1.05    15.999
   20187      Si       1     SIL   Si1n1       1       2.1    28.086
   20188      Si       1     SIL   Si1n2       1       2.1    28.086
   20189      Si       1     SIL   Si1n3       1       2.1    28.086
   20190      Ob       1     SIL   O03a1       1     -1.05    15.999
   20191      Ob       1     SIL   O03a2       1     -1.05    15.999
   20192      Ob       1     SIL   O03a3       1     -1.05    15.999
   20193      Ob       1     SIL   O03a4       1     -1.05    15.999
   20194      Ob       1     SIL   O03a5       1     -1.05    15.999
   20195      Ob       1     SIL   O03a6       1     -1.05    15.999
   20196      Si       1     SIL   Si1n4       1       2.1    28.086
   20197      Si       1     SIL   Si1n5       1       2.1    28.086
   20198      Si       1     SIL   Si1n6       1       2.1    28.086
   20199      Ob       1     SIL   O03a7       1     -1.05    15.999
   20200      Ob       1     SIL   O03a8       1     -1.05    15.999
   20201      Ob       1     SIL   O03a9       1     -1.05    15.999
   20202      Ob       1     SIL   O03aA       1     -1.05    15.999
   20203      Ob       1     SIL   O03aB       1     -1.05    15.999
   20204      Ob       1     SIL   O03aC       1     -1.05    15.999
   20205      Si       1     SIL   Si1n7       1       2.1    28.086
   20206      Si       1     SIL   Si1n8       1       2.1    28.086
   20207      Si       1     SIL   Si1n9       1       2.1    28.086
   20208      Ob       1     SIL   O03aD       1     -1.05    15.999
   20209      Ob       1     SIL   O03aE       1     -1.05    15.999
   20210      Ob       1     SIL   O03aF       1     -1.05    15.999
   20211      Ob       1     SIL   O03aG       1     -1.05    15.999
   20212      Ob       1     SIL   O03aH       1     -1.05    15.999
   20213      Ob       1     SIL   O03aI       1     -1.05    15.999
   20214      Si       1     SIL   Si1nA       1       2.1    28.086
   20215      Si       1     SIL   Si1nB       1       2.1    28.086
   20216      Si       1     SIL   Si1nC       1       2.1    28.086
   20217      Ob       1     SIL   O03aJ       1     -1.05    15.999
   20218      Ob       1     SIL   O03aK       1     -1.05    15.999
   20219      Ob       1     SIL   O03aL       1     -1.05    15.999
   20220      Ob       1     SIL   O03aM       1     -1.05    15.999
   20221      Ob       1     SIL   O03aN       1     -1.05    15.999
   20222      Ob       1     SIL   O03aO       1     -1.05    15.999
   20223      Si       1     SIL   Si1nD       1       2.1    28.086
   20224      Si       1     SIL   Si1nE       1       2.1    28.086
   20225      Si       1     SIL   Si1nF       1       2.1    28.086
   20226      Ob       1     SIL   O03aP       1     -1.05    15.999
   20227      Ob       1     SIL   O03aQ       1     -1.05    15.999
   20228      Ob       1     SIL   O03aR       1     -1.05    15.999
   20229      Ob       1     SIL   O03aS       1     -1.05    15.999
   20230      Ob       1     SIL   O03aT       1     -1.05    15.999
   20231      Ob       1     SIL   O03aU       1     -1.05    15.999
   20232      Si       1     SIL   Si1nG       1       2.1    28.086
   20233      Si       1     SIL   Si1nH       1       2.1    28.086
   20234      Si       1     SIL   Si1nI       1       2.1    28.086
   20235      Ob       1     SIL   O03aV       1     -1.05    15.999
   20236       O       1     SIL   O03aW       1    -0.525    15.999
   20237       O       1     SIL   O03aX       1    -0.525    15.999
   20238      Ob       1     SIL   O03aY       1     -1.05    15.999
   20239      Ob       1     SIL   O03aZ       1     -1.05    15.999
   20240      Ob       1     SIL   O03aa       1     -1.05    15.999
   20241      Si       1     SIL   Si1nJ       1       2.1    28.086
   20242      Si       1     SIL   Si1nK       1       2.1    28.086
   20243      Si       1     SIL   Si1nL       1       2.1    28.086
   20244      Ob       1     SIL   O03ab       1     -1.05    15.999
   20245      Ob       1     SIL   O03ac       1     -1.05    15.999
   20246      Ob       1     SIL   O03ad       1     -1.05    15.999
   20247      Ob       1     SIL   O03ae       1     -1.05    15.999
   20248      Ob       1     SIL   O03af       1     -1.05    15.999
   20249      Ob       1     SIL   O03ag       1     -1.05    15.999
   20250      Si       1     SIL   Si1nM       1       2.1    28.086
   20251      Si       1     SIL   Si1nN       1       2.1    28.086
   20252      Si       1     SIL   Si1nO       1       2.1    28.086
   20253      Ob       1     SIL   O03ah       1     -1.05    15.999
   20254      Ob       1     SIL   O03ai       1     -1.05    15.999
   20255      Ob       1     SIL   O03aj       1     -1.05    15.999
   20256      Ob       1     SIL   O03ak       1     -1.05    15.999
   20257      Ob       1     SIL   O03al       1     -1.05    15.999
   20258      Ob       1     SIL   O03am       1     -1.05    15.999
   20259      Si       1     SIL   Si1nP       1       2.1    28.086
   20260      Si       1     SIL   Si1nQ       1       2.1    28.086
   20261      Si       1     SIL   Si1nR       1       2.1    28.086
   20262      Ob       1     SIL   O03an       1     -1.05    15.999
   20263      Ob       1     SIL   O03ao       1     -1.05    15.999
   20264      Ob       1     SIL   O03ap       1     -1.05    15.999
   20265      Ob       1     SIL   O03aq       1     -1.05    15.999
   20266      Ob       1     SIL   O03ar       1     -1.05    15.999
   20267      Ob       1     SIL   O03as       1     -1.05    15.999
   20268      Si       1     SIL   Si1nS       1       2.1    28.086
   20269      Si       1     SIL   Si1nT       1       2.1    28.086
   20270      Si       1     SIL   Si1nU       1       2.1    28.086
   20271      Ob       1     SIL   O03at       1     -1.05    15.999
   20272      Ob       1     SIL   O03au       1     -1.05    15.999
   20273      Ob       1     SIL   O03av       1     -1.05    15.999
   20274      Ob       1     SIL   O03aw       1     -1.05    15.999
   20275      Ob       1     SIL   O03ax       1     -1.05    15.999
   20276      Ob       1     SIL   O03ay       1     -1.05    15.999
   20277      Si       1     SIL   Si1nV       1       2.1    28.086
   20278      Si       1     SIL   Si1nW       1       2.1    28.086
   20279      Si       1     SIL   Si1nX       1       2.1    28.086
   20280      Ob       1     SIL   O03az       1     -1.05    15.999
   20281      Ob       1     SIL   O03b0       1     -1.05    15.999
   20282      Ob       1     SIL   O03b1       1     -1.05    15.999
   20283      Ob       1     SIL   O03b2       1     -1.05    15.999
   20284      Ob       1     SIL   O03b3       1     -1.05    15.999
   20285      Ob       1     SIL   O03b4       1     -1.05    15.999
   20286      Si       1     SIL   Si1nY       1       2.1    28.086
   20287      Si       1     SIL   Si1nZ       1       2.1    28.086
   20288      Si       1     SIL   Si1na       1       2.1    28.086
   20289      Ob       1     SIL   O03b5       1     -1.05    15.999
   20290      Ob       1     SIL   O03b6       1     -1.05    15.999
   20291      Ob       1     SIL   O03b7       1     -1.05    15.999
   20292      Ob       1     SIL   O03b8       1     -1.05    15.999
   20293      Ob       1     SIL   O03b9       1     -1.05    15.999
   20294      Ob       1     SIL   O03bA       1     -1.05    15.999
   20295      Si       1     SIL   Si1nb       1       2.1    28.086
   20296      Si       1     SIL   Si1nc       1       2.1    28.086
   20297      Si       1     SIL   Si1nd       1       2.1    28.086
   20298      Ob       1     SIL   O03bB       1     -1.05    15.999
   20299      Ob       1     SIL   O03bC       1     -1.05    15.999
   20300      Ob       1     SIL   O03bD       1     -1.05    15.999
   20301      Ob       1     SIL   O03bE       1     -1.05    15.999
   20302      Ob       1     SIL   O03bF       1     -1.05    15.999
   20303      Ob       1     SIL   O03bG       1     -1.05    15.999
   20304      Si       1     SIL   Si1ne       1       2.1    28.086
   20305      Si       1     SIL   Si1nf       1       2.1    28.086
   20306      Si       1     SIL   Si1ng       1       2.1    28.086
   20307      Ob       1     SIL   O03bH       1     -1.05    15.999
   20308      Ob       1     SIL   O03bI       1     -1.05    15.999
   20309      Ob       1     SIL   O03bJ       1     -1.05    15.999
   20310      Ob       1     SIL   O03bK       1     -1.05    15.999
   20311      Ob       1     SIL   O03bL       1     -1.05    15.999
   20312      Ob       1     SIL   O03bM       1     -1.05    15.999
   20313      Si       1     SIL   Si1nh       1       2.1    28.086
   20314      Si       1     SIL   Si1ni       1       2.1    28.086
   20315      Si       1     SIL   Si1nj       1       2.1    28.086
   20316      Ob       1     SIL   O03bN       1     -1.05    15.999
   20317      Ob       1     SIL   O03bO       1     -1.05    15.999
   20318      Ob       1     SIL   O03bP       1     -1.05    15.999
   20319      Ob       1     SIL   O03bQ       1     -1.05    15.999
   20320      Ob       1     SIL   O03bR       1     -1.05    15.999
   20321      Ob       1     SIL   O03bS       1     -1.05    15.999
   20322      Si       1     SIL   Si1nk       1       2.1    28.086
   20323      Si       1     SIL   Si1nl       1       2.1    28.086
   20324      Si       1     SIL   Si1nm       1       2.1    28.086
   20325      Ob       1     SIL   O03bT       1     -1.05    15.999
   20326      Ob       1     SIL   O03bU       1     -1.05    15.999
   20327      Ob       1     SIL   O03bV       1     -1.05    15.999
   20328      Ob       1     SIL   O03bW       1     -1.05    15.999
   20329      Ob       1     SIL   O03bX       1     -1.05    15.999
   20330      Ob       1     SIL   O03bY       1     -1.05    15.999
   20331      Si       1     SIL   Si1nn       1       2.1    28.086
   20332      Si       1     SIL   Si1no       1       2.1    28.086
   20333      Si       1     SIL   Si1np       1       2.1    28.086
   20334      Ob       1     SIL   O03bZ       1     -1.05    15.999
   20335      Ob       1     SIL   O03ba       1     -1.05    15.999
   20336      Ob       1     SIL   O03bb       1     -1.05    15.999
   20337      Ob       1     SIL   O03bc       1     -1.05    15.999
   20338      Ob       1     SIL   O03bd       1     -1.05    15.999
   20339      Ob       1     SIL   O03be       1     -1.05    15.999
   20340      Si       1     SIL   Si1nq       1       2.1    28.086
   20341      Si       1     SIL   Si1nr       1       2.1    28.086
   20342      Si       1     SIL   Si1ns       1       2.1    28.086
   20343      Ob       1     SIL   O03bf       1     -1.05    15.999
   20344      Ob       1     SIL   O03bg       1     -1.05    15.999
   20345      Ob       1     SIL   O03bh       1     -1.05    15.999
   20346      Ob       1     SIL   O03bi       1     -1.05    15.999
   20347      Ob       1     SIL   O03bj       1     -1.05    15.999
   20348      Ob       1     SIL   O03bk       1     -1.05    15.999
   20349      Si       1     SIL   Si1nt       1       2.1    28.086
   20350      Si       1     SIL   Si1nu       1       2.1    28.086
   20351      Si       1     SIL   Si1nv       1       2.1    28.086
   20352      Ob       1     SIL   O03bl       1     -1.05    15.999
   20353      Ob       1     SIL   O03bm       1     -1.05    15.999
   20354      Ob       1     SIL   O03bn       1     -1.05    15.999
   20355      Ob       1     SIL   O03bo       1     -1.05    15.999
   20356      Ob       1     SIL   O03bp       1     -1.05    15.999
   20357      Ob       1     SIL   O03bq       1     -1.05    15.999
   20358      Si       1     SIL   Si1nw       1       2.1    28.086
   20359      Si       1     SIL   Si1nx       1       2.1    28.086
   20360      Si       1     SIL   Si1ny       1       2.1    28.086
   20361      Ob       1     SIL   O03br       1     -1.05    15.999
   20362      Ob       1     SIL   O03bs       1     -1.05    15.999
   20363      Ob       1     SIL   O03bt       1     -1.05    15.999
   20364      Ob       1     SIL   O03bu       1     -1.05    15.999
   20365      Ob       1     SIL   O03bv       1     -1.05    15.999
   20366      Ob       1     SIL   O03bw       1     -1.05    15.999
   20367      Si       1     SIL   Si1nz       1       2.1    28.086
   20368      Si       1     SIL   Si1o0       1       2.1    28.086
   20369      Si       1     SIL   Si1o1       1       2.1    28.086
   20370      Ob       1     SIL   O03bx       1     -1.05    15.999
   20371      Ob       1     SIL   O03by       1     -1.05    15.999
   20372      Ob       1     SIL   O03bz       1     -1.05    15.999
   20373      Ob       1     SIL   O03c0       1     -1.05    15.999
   20374      Ob       1     SIL   O03c1       1     -1.05    15.999
   20375      Ob       1     SIL   O03c2       1     -1.05    15.999
   20376      Si       1     SIL   Si1o2       1       2.1    28.086
   20377      Si       1     SIL   Si1o3       1       2.1    28.086
   20378      Si       1     SIL   Si1o4       1       2.1    28.086
   20379      Ob       1     SIL   O03c3       1     -1.05    15.999
   20380      Ob       1     SIL   O03c4       1     -1.05    15.999
   20381      Ob       1     SIL   O03c5       1     -1.05    15.999
   20382      Ob       1     SIL   O03c6       1     -1.05    15.999
   20383      Ob       1     SIL   O03c7       1     -1.05    15.999
   20384      Ob       1     SIL   O03c8       1     -1.05    15.999
   20385      Si       1     SIL   Si1o5       1       2.1    28.086
   20386      Si       1     SIL   Si1o6       1       2.1    28.086
   20387      Si       1     SIL   Si1o7       1       2.1    28.086
   20388      Ob       1     SIL   O03c9       1     -1.05    15.999
   20389      Ob       1     SIL   O03cA       1     -1.05    15.999
   20390      Ob       1     SIL   O03cB       1     -1.05    15.999
   20391      Ob       1     SIL   O03cC       1     -1.05    15.999
   20392      Ob       1     SIL   O03cD       1     -1.05    15.999
   20393      Ob       1     SIL   O03cE       1     -1.05    15.999
   20394      Si       1     SIL   Si1o8       1       2.1    28.086
   20395      Si       1     SIL   Si1o9       1       2.1    28.086
   20396      Si       1     SIL   Si1oA       1       2.1    28.086
   20397      Ob       1     SIL   O03cF       1     -1.05    15.999
   20398      Ob       1     SIL   O03cG       1     -1.05    15.999
   20399      Ob       1     SIL   O03cH       1     -1.05    15.999
   20400      Ob       1     SIL   O03cI       1     -1.05    15.999
   20401      Ob       1     SIL   O03cJ       1     -1.05    15.999
   20402      Ob       1     SIL   O03cK       1     -1.05    15.999
   20403      Si       1     SIL   Si1oB       1       2.1    28.086
   20404      Si       1     SIL   Si1oC       1       2.1    28.086
   20405      Si       1     SIL   Si1oD       1       2.1    28.086
   20406      Ob       1     SIL   O03cL       1     -1.05    15.999
   20407      Ob       1     SIL   O03cM       1     -1.05    15.999
   20408      Ob       1     SIL   O03cN       1     -1.05    15.999
   20409      Ob       1     SIL   O03cO       1     -1.05    15.999
   20410      Ob       1     SIL   O03cP       1     -1.05    15.999
   20411      Ob       1     SIL   O03cQ       1     -1.05    15.999
   20412      Si       1     SIL   Si1oE       1       2.1    28.086
   20413      Si       1     SIL   Si1oF       1       2.1    28.086
   20414      Si       1     SIL   Si1oG       1       2.1    28.086
   20415      Ob       1     SIL   O03cR       1     -1.05    15.999
   20416      Ob       1     SIL   O03cS       1     -1.05    15.999
   20417      Ob       1     SIL   O03cT       1     -1.05    15.999
   20418      Ob       1     SIL   O03cU       1     -1.05    15.999
   20419      Ob       1     SIL   O03cV       1     -1.05    15.999
   20420      Ob       1     SIL   O03cW       1     -1.05    15.999
   20421      Si       1     SIL   Si1oH       1       2.1    28.086
   20422      Si       1     SIL   Si1oI       1       2.1    28.086
   20423      Si       1     SIL   Si1oJ       1       2.1    28.086
   20424      Ob       1     SIL   O03cX       1     -1.05    15.999
   20425      Ob       1     SIL   O03cY       1     -1.05    15.999
   20426      Ob       1     SIL   O03cZ       1     -1.05    15.999
   20427      Ob       1     SIL   O03ca       1     -1.05    15.999
   20428      Ob       1     SIL   O03cb       1     -1.05    15.999
   20429      Ob       1     SIL   O03cc       1     -1.05    15.999
   20430      Si       1     SIL   Si1oK       1       2.1    28.086
   20431      Si       1     SIL   Si1oL       1       2.1    28.086
   20432      Si       1     SIL   Si1oM       1       2.1    28.086
   20433      Ob       1     SIL   O03cd       1     -1.05    15.999
   20434      Ob       1     SIL   O03ce       1     -1.05    15.999
   20435      Ob       1     SIL   O03cf       1     -1.05    15.999
   20436      Ob       1     SIL   O03cg       1     -1.05    15.999
   20437      Ob       1     SIL   O03ch       1     -1.05    15.999
   20438      Ob       1     SIL   O03ci       1     -1.05    15.999
   20439      Si       1     SIL   Si1oN       1       2.1    28.086
   20440      Si       1     SIL   Si1oO       1       2.1    28.086
   20441      Si       1     SIL   Si1oP       1       2.1    28.086
   20442      Ob       1     SIL   O03cj       1     -1.05    15.999
   20443       O       1     SIL   O03ck       1    -0.525    15.999
   20444       O       1     SIL   O03cl       1    -0.525    15.999
   20445      Ob       1     SIL   O03cm       1     -1.05    15.999
   20446      Ob       1     SIL   O03cn       1     -1.05    15.999
   20447      Ob       1     SIL   O03co       1     -1.05    15.999
   20448      Si       1     SIL   Si1oQ       1       2.1    28.086
   20449      Si       1     SIL   Si1oR       1       2.1    28.086
   20450      Si       1     SIL   Si1oS       1       2.1    28.086
   20451      Ob       1     SIL   O03cp       1     -1.05    15.999
   20452      Ob       1     SIL   O03cq       1     -1.05    15.999
   20453      Ob       1     SIL   O03cr       1     -1.05    15.999
   20454      Ob       1     SIL   O03cs       1     -1.05    15.999
   20455      Ob       1     SIL   O03ct       1     -1.05    15.999
   20456      Ob       1     SIL   O03cu       1     -1.05    15.999
   20457      Si       1     SIL   Si1oT       1       2.1    28.086
   20458      Si       1     SIL   Si1oU       1       2.1    28.086
   20459      Si       1     SIL   Si1oV       1       2.1    28.086
   20460      Ob       1     SIL   O03cv       1     -1.05    15.999
   20461      Ob       1     SIL   O03cw       1     -1.05    15.999
   20462      Ob       1     SIL   O03cx       1     -1.05    15.999
   20463      Ob       1     SIL   O03cy       1     -1.05    15.999
   20464      Ob       1     SIL   O03cz       1     -1.05    15.999
   20465      Ob       1     SIL   O03d0       1     -1.05    15.999
   20466      Si       1     SIL   Si1oW       1       2.1    28.086
   20467      Si       1     SIL   Si1oX       1       2.1    28.086
   20468      Si       1     SIL   Si1oY       1       2.1    28.086
   20469      Ob       1     SIL   O03d1       1     -1.05    15.999
   20470      Ob       1     SIL   O03d2       1     -1.05    15.999
   20471      Ob       1     SIL   O03d3       1     -1.05    15.999
   20472      Ob       1     SIL   O03d4       1     -1.05    15.999
   20473      Ob       1     SIL   O03d5       1     -1.05    15.999
   20474      Ob       1     SIL   O03d6       1     -1.05    15.999
   20475      Si       1     SIL   Si1oZ       1       2.1    28.086
   20476      Si       1     SIL   Si1oa       1       2.1    28.086
   20477      Si       1     SIL   Si1ob       1       2.1    28.086
   20478      Ob       1     SIL   O03d7       1     -1.05    15.999
   20479      Ob       1     SIL   O03d8       1     -1.05    15.999
   20480      Ob       1     SIL   O03d9       1     -1.05    15.999
   20481      Ob       1     SIL   O03dA       1     -1.05    15.999
   20482      Ob       1     SIL   O03dB       1     -1.05    15.999
   20483      Ob       1     SIL   O03dC       1     -1.05    15.999
   20484      Si       1     SIL   Si1oc       1       2.1    28.086
   20485      Si       1     SIL   Si1od       1       2.1    28.086
   20486      Si       1     SIL   Si1oe       1       2.1    28.086
   20487      Ob       1     SIL   O03dD       1     -1.05    15.999
   20488      Ob       1     SIL   O03dE       1     -1.05    15.999
   20489      Ob       1     SIL   O03dF       1     -1.05    15.999
   20490      Ob       1     SIL   O03dG       1     -1.05    15.999
   20491      Ob       1     SIL   O03dH       1     -1.05    15.999
   20492      Ob       1     SIL   O03dI       1     -1.05    15.999
   20493      Si       1     SIL   Si1of       1       2.1    28.086
   20494      Si       1     SIL   Si1og       1       2.1    28.086
   20495      Si       1     SIL   Si1oh       1       2.1    28.086
   20496      Ob       1     SIL   O03dJ       1     -1.05    15.999
   20497      Ob       1     SIL   O03dK       1     -1.05    15.999
   20498      Ob       1     SIL   O03dL       1     -1.05    15.999
   20499      Ob       1     SIL   O03dM       1     -1.05    15.999
   20500      Ob       1     SIL   O03dN       1     -1.05    15.999
   20501      Ob       1     SIL   O03dO       1     -1.05    15.999
   20502      Si       1     SIL   Si1oi       1       2.1    28.086
   20503      Si       1     SIL   Si1oj       1       2.1    28.086
   20504      Si       1     SIL   Si1ok       1       2.1    28.086
   20505      Ob       1     SIL   O03dP       1     -1.05    15.999
   20506      Ob       1     SIL   O03dQ       1     -1.05    15.999
   20507      Ob       1     SIL   O03dR       1     -1.05    15.999
   20508      Ob       1     SIL   O03dS       1     -1.05    15.999
   20509      Ob       1     SIL   O03dT       1     -1.05    15.999
   20510      Ob       1     SIL   O03dU       1     -1.05    15.999
   20511      Si       1     SIL   Si1ol       1       2.1    28.086
   20512      Si       1     SIL   Si1om       1       2.1    28.086
   20513      Si       1     SIL   Si1on       1       2.1    28.086
   20514      Ob       1     SIL   O03dV       1     -1.05    15.999
   20515      Ob       1     SIL   O03dW       1     -1.05    15.999
   20516      Ob       1     SIL   O03dX       1     -1.05    15.999
   20517      Ob       1     SIL   O03dY       1     -1.05    15.999
   20518      Ob       1     SIL   O03dZ       1     -1.05    15.999
   20519      Ob       1     SIL   O03da       1     -1.05    15.999
   20520      Si       1     SIL   Si1oo       1       2.1    28.086
   20521      Si       1     SIL   Si1op       1       2.1    28.086
   20522      Si       1     SIL   Si1oq       1       2.1    28.086
   20523      Ob       1     SIL   O03db       1     -1.05    15.999
   20524      Ob       1     SIL   O03dc       1     -1.05    15.999
   20525      Ob       1     SIL   O03dd       1     -1.05    15.999
   20526      Ob       1     SIL   O03de       1     -1.05    15.999
   20527      Ob       1     SIL   O03df       1     -1.05    15.999
   20528      Ob       1     SIL   O03dg       1     -1.05    15.999
   20529      Si       1     SIL   Si1or       1       2.1    28.086
   20530      Si       1     SIL   Si1os       1       2.1    28.086
   20531      Si       1     SIL   Si1ot       1       2.1    28.086
   20532      Ob       1     SIL   O03dh       1     -1.05    15.999
   20533      Ob       1     SIL   O03di       1     -1.05    15.999
   20534      Ob       1     SIL   O03dj       1     -1.05    15.999
   20535      Ob       1     SIL   O03dk       1     -1.05    15.999
   20536      Ob       1     SIL   O03dl       1     -1.05    15.999
   20537      Ob       1     SIL   O03dm       1     -1.05    15.999
   20538      Si       1     SIL   Si1ou       1       2.1    28.086
   20539      Si       1     SIL   Si1ov       1       2.1    28.086
   20540      Si       1     SIL   Si1ow       1       2.1    28.086
   20541      Ob       1     SIL   O03dn       1     -1.05    15.999
   20542      Ob       1     SIL   O03do       1     -1.05    15.999
   20543      Ob       1     SIL   O03dp       1     -1.05    15.999
   20544      Ob       1     SIL   O03dq       1     -1.05    15.999
   20545      Ob       1     SIL   O03dr       1     -1.05    15.999
   20546      Ob       1     SIL   O03ds       1     -1.05    15.999
   20547      Si       1     SIL   Si1ox       1       2.1    28.086
   20548      Si       1     SIL   Si1oy       1       2.1    28.086
   20549      Si       1     SIL   Si1oz       1       2.1    28.086
   20550      Ob       1     SIL   O03dt       1     -1.05    15.999
   20551      Ob       1     SIL   O03du       1     -1.05    15.999
   20552      Ob       1     SIL   O03dv       1     -1.05    15.999
   20553      Ob       1     SIL   O03dw       1     -1.05    15.999
   20554      Ob       1     SIL   O03dx       1     -1.05    15.999
   20555      Ob       1     SIL   O03dy       1     -1.05    15.999
   20556      Si       1     SIL   Si1p0       1       2.1    28.086
   20557      Si       1     SIL   Si1p1       1       2.1    28.086
   20558      Si       1     SIL   Si1p2       1       2.1    28.086
   20559      Ob       1     SIL   O03dz       1     -1.05    15.999
   20560      Ob       1     SIL   O03e0       1     -1.05    15.999
   20561      Ob       1     SIL   O03e1       1     -1.05    15.999
   20562      Ob       1     SIL   O03e2       1     -1.05    15.999
   20563      Ob       1     SIL   O03e3       1     -1.05    15.999
   20564      Ob       1     SIL   O03e4       1     -1.05    15.999
   20565      Si       1     SIL   Si1p3       1       2.1    28.086
   20566      Si       1     SIL   Si1p4       1       2.1    28.086
   20567      Si       1     SIL   Si1p5       1       2.1    28.086
   20568      Ob       1     SIL   O03e5       1     -1.05    15.999
   20569      Ob       1     SIL   O03e6       1     -1.05    15.999
   20570      Ob       1     SIL   O03e7       1     -1.05    15.999
   20571      Ob       1     SIL   O03e8       1     -1.05    15.999
   20572      Ob       1     SIL   O03e9       1     -1.05    15.999
   20573      Ob       1     SIL   O03eA       1     -1.05    15.999
   20574      Si       1     SIL   Si1p6       1       2.1    28.086
   20575      Si       1     SIL   Si1p7       1       2.1    28.086
   20576      Si       1     SIL   Si1p8       1       2.1    28.086
   20577      Ob       1     SIL   O03eB       1     -1.05    15.999
   20578      Ob       1     SIL   O03eC       1     -1.05    15.999
   20579      Ob       1     SIL   O03eD       1     -1.05    15.999
   20580      Ob       1     SIL   O03eE       1     -1.05    15.999
   20581      Ob       1     SIL   O03eF       1     -1.05    15.999
   20582      Ob       1     SIL   O03eG       1     -1.05    15.999
   20583      Si       1     SIL   Si1p9       1       2.1    28.086
   20584      Si       1     SIL   Si1pA       1       2.1    28.086
   20585      Si       1     SIL   Si1pB       1       2.1    28.086
   20586      Ob       1     SIL   O03eH       1     -1.05    15.999
   20587      Ob       1     SIL   O03eI       1     -1.05    15.999
   20588      Ob       1     SIL   O03eJ       1     -1.05    15.999
   20589      Ob       1     SIL   O03eK       1     -1.05    15.999
   20590      Ob       1     SIL   O03eL       1     -1.05    15.999
   20591      Ob       1     SIL   O03eM       1     -1.05    15.999
   20592      Si       1     SIL   Si1pC       1       2.1    28.086
   20593      Si       1     SIL   Si1pD       1       2.1    28.086
   20594      Si       1     SIL   Si1pE       1       2.1    28.086
   20595      Ob       1     SIL   O03eN       1     -1.05    15.999
   20596      Ob       1     SIL   O03eO       1     -1.05    15.999
   20597      Ob       1     SIL   O03eP       1     -1.05    15.999
   20598      Ob       1     SIL   O03eQ       1     -1.05    15.999
   20599      Ob       1     SIL   O03eR       1     -1.05    15.999
   20600      Ob       1     SIL   O03eS       1     -1.05    15.999
   20601      Si       1     SIL   Si1pF       1       2.1    28.086
   20602      Si       1     SIL   Si1pG       1       2.1    28.086
   20603      Si       1     SIL   Si1pH       1       2.1    28.086
   20604      Ob       1     SIL   O03eT       1     -1.05    15.999
   20605      Ob       1     SIL   O03eU       1     -1.05    15.999
   20606      Ob       1     SIL   O03eV       1     -1.05    15.999
   20607      Ob       1     SIL   O03eW       1     -1.05    15.999
   20608      Ob       1     SIL   O03eX       1     -1.05    15.999
   20609      Ob       1     SIL   O03eY       1     -1.05    15.999
   20610      Si       1     SIL   Si1pI       1       2.1    28.086
   20611      Si       1     SIL   Si1pJ       1       2.1    28.086
   20612      Si       1     SIL   Si1pK       1       2.1    28.086
   20613      Ob       1     SIL   O03eZ       1     -1.05    15.999
   20614      Ob       1     SIL   O03ea       1     -1.05    15.999
   20615      Ob       1     SIL   O03eb       1     -1.05    15.999
   20616      Ob       1     SIL   O03ec       1     -1.05    15.999
   20617      Ob       1     SIL   O03ed       1     -1.05    15.999
   20618      Ob       1     SIL   O03ee       1     -1.05    15.999
   20619      Si       1     SIL   Si1pL       1       2.1    28.086
   20620      Si       1     SIL   Si1pM       1       2.1    28.086
   20621      Si       1     SIL   Si1pN       1       2.1    28.086
   20622      Ob       1     SIL   O03ef       1     -1.05    15.999
   20623      Ob       1     SIL   O03eg       1     -1.05    15.999
   20624      Ob       1     SIL   O03eh       1     -1.05    15.999
   20625      Ob       1     SIL   O03ei       1     -1.05    15.999
   20626      Ob       1     SIL   O03ej       1     -1.05    15.999
   20627      Ob       1     SIL   O03ek       1     -1.05    15.999
   20628      Si       1     SIL   Si1pO       1       2.1    28.086
   20629      Si       1     SIL   Si1pP       1       2.1    28.086
   20630      Si       1     SIL   Si1pQ       1       2.1    28.086
   20631      Ob       1     SIL   O03el       1     -1.05    15.999
   20632      Ob       1     SIL   O03em       1     -1.05    15.999
   20633      Ob       1     SIL   O03en       1     -1.05    15.999
   20634      Ob       1     SIL   O03eo       1     -1.05    15.999
   20635      Ob       1     SIL   O03ep       1     -1.05    15.999
   20636      Ob       1     SIL   O03eq       1     -1.05    15.999
   20637      Si       1     SIL   Si1pR       1       2.1    28.086
   20638      Si       1     SIL   Si1pS       1       2.1    28.086
   20639      Si       1     SIL   Si1pT       1       2.1    28.086
   20640      Ob       1     SIL   O03er       1     -1.05    15.999
   20641      Ob       1     SIL   O03es       1     -1.05    15.999
   20642      Ob       1     SIL   O03et       1     -1.05    15.999
   20643      Ob       1     SIL   O03eu       1     -1.05    15.999
   20644      Ob       1     SIL   O03ev       1     -1.05    15.999
   20645      Ob       1     SIL   O03ew       1     -1.05    15.999
   20646      Si       1     SIL   Si1pU       1       2.1    28.086
   20647      Si       1     SIL   Si1pV       1       2.1    28.086
   20648      Si       1     SIL   Si1pW       1       2.1    28.086
   20649      Ob       1     SIL   O03ex       1     -1.05    15.999
   20650       O       1     SIL   O03ey       1    -0.525    15.999
   20651       O       1     SIL   O03ez       1    -0.525    15.999
   20652      Ob       1     SIL   O03f0       1     -1.05    15.999
   20653      Ob       1     SIL   O03f1       1     -1.05    15.999
   20654      Ob       1     SIL   O03f2       1     -1.05    15.999
   20655      Si       1     SIL   Si1pX       1       2.1    28.086
   20656      Si       1     SIL   Si1pY       1       2.1    28.086
   20657      Si       1     SIL   Si1pZ       1       2.1    28.086
   20658      Ob       1     SIL   O03f3       1     -1.05    15.999
   20659      Ob       1     SIL   O03f4       1     -1.05    15.999
   20660      Ob       1     SIL   O03f5       1     -1.05    15.999
   20661      Ob       1     SIL   O03f6       1     -1.05    15.999
   20662      Ob       1     SIL   O03f7       1     -1.05    15.999
   20663      Ob       1     SIL   O03f8       1     -1.05    15.999
   20664      Si       1     SIL   Si1pa       1       2.1    28.086
   20665      Si       1     SIL   Si1pb       1       2.1    28.086
   20666      Si       1     SIL   Si1pc       1       2.1    28.086
   20667      Ob       1     SIL   O03f9       1     -1.05    15.999
   20668      Ob       1     SIL   O03fA       1     -1.05    15.999
   20669      Ob       1     SIL   O03fB       1     -1.05    15.999
   20670      Ob       1     SIL   O03fC       1     -1.05    15.999
   20671      Ob       1     SIL   O03fD       1     -1.05    15.999
   20672      Ob       1     SIL   O03fE       1     -1.05    15.999
   20673      Si       1     SIL   Si1pd       1       2.1    28.086
   20674      Si       1     SIL   Si1pe       1       2.1    28.086
   20675      Si       1     SIL   Si1pf       1       2.1    28.086
   20676      Ob       1     SIL   O03fF       1     -1.05    15.999
   20677      Ob       1     SIL   O03fG       1     -1.05    15.999
   20678      Ob       1     SIL   O03fH       1     -1.05    15.999
   20679      Ob       1     SIL   O03fI       1     -1.05    15.999
   20680      Ob       1     SIL   O03fJ       1     -1.05    15.999
   20681      Ob       1     SIL   O03fK       1     -1.05    15.999
   20682      Si       1     SIL   Si1pg       1       2.1    28.086
   20683      Si       1     SIL   Si1ph       1       2.1    28.086
   20684      Si       1     SIL   Si1pi       1       2.1    28.086
   20685      Ob       1     SIL   O03fL       1     -1.05    15.999
   20686      Ob       1     SIL   O03fM       1     -1.05    15.999
   20687      Ob       1     SIL   O03fN       1     -1.05    15.999
   20688      Ob       1     SIL   O03fO       1     -1.05    15.999
   20689      Ob       1     SIL   O03fP       1     -1.05    15.999
   20690      Ob       1     SIL   O03fQ       1     -1.05    15.999
   20691      Si       1     SIL   Si1pj       1       2.1    28.086
   20692      Si       1     SIL   Si1pk       1       2.1    28.086
   20693      Si       1     SIL   Si1pl       1       2.1    28.086
   20694      Ob       1     SIL   O03fR       1     -1.05    15.999
   20695      Ob       1     SIL   O03fS       1     -1.05    15.999
   20696      Ob       1     SIL   O03fT       1     -1.05    15.999
   20697      Ob       1     SIL   O03fU       1     -1.05    15.999
   20698      Ob       1     SIL   O03fV       1     -1.05    15.999
   20699      Ob       1     SIL   O03fW       1     -1.05    15.999
   20700      Si       1     SIL   Si1pm       1       2.1    28.086
   20701      Si       1     SIL   Si1pn       1       2.1    28.086
   20702      Si       1     SIL   Si1po       1       2.1    28.086
   20703      Ob       1     SIL   O03fX       1     -1.05    15.999
   20704      Ob       1     SIL   O03fY       1     -1.05    15.999
   20705      Ob       1     SIL   O03fZ       1     -1.05    15.999
   20706      Ob       1     SIL   O03fa       1     -1.05    15.999
   20707      Ob       1     SIL   O03fb       1     -1.05    15.999
   20708      Ob       1     SIL   O03fc       1     -1.05    15.999
   20709      Si       1     SIL   Si1pp       1       2.1    28.086
   20710      Si       1     SIL   Si1pq       1       2.1    28.086
   20711      Si       1     SIL   Si1pr       1       2.1    28.086
   20712      Ob       1     SIL   O03fd       1     -1.05    15.999
   20713      Ob       1     SIL   O03fe       1     -1.05    15.999
   20714      Ob       1     SIL   O03ff       1     -1.05    15.999
   20715      Ob       1     SIL   O03fg       1     -1.05    15.999
   20716      Ob       1     SIL   O03fh       1     -1.05    15.999
   20717      Ob       1     SIL   O03fi       1     -1.05    15.999
   20718      Si       1     SIL   Si1ps       1       2.1    28.086
   20719      Si       1     SIL   Si1pt       1       2.1    28.086
   20720      Si       1     SIL   Si1pu       1       2.1    28.086
   20721      Ob       1     SIL   O03fj       1     -1.05    15.999
   20722      Ob       1     SIL   O03fk       1     -1.05    15.999
   20723      Ob       1     SIL   O03fl       1     -1.05    15.999
   20724      Ob       1     SIL   O03fm       1     -1.05    15.999
   20725      Ob       1     SIL   O03fn       1     -1.05    15.999
   20726      Ob       1     SIL   O03fo       1     -1.05    15.999
   20727      Si       1     SIL   Si1pv       1       2.1    28.086
   20728      Si       1     SIL   Si1pw       1       2.1    28.086
   20729      Si       1     SIL   Si1px       1       2.1    28.086
   20730      Ob       1     SIL   O03fp       1     -1.05    15.999
   20731      Ob       1     SIL   O03fq       1     -1.05    15.999
   20732      Ob       1     SIL   O03fr       1     -1.05    15.999
   20733      Ob       1     SIL   O03fs       1     -1.05    15.999
   20734      Ob       1     SIL   O03ft       1     -1.05    15.999
   20735      Ob       1     SIL   O03fu       1     -1.05    15.999
   20736      Si       1     SIL   Si1py       1       2.1    28.086
   20737      Si       1     SIL   Si1pz       1       2.1    28.086
   20738      Si       1     SIL   Si1q0       1       2.1    28.086
   20739      Ob       1     SIL   O03fv       1     -1.05    15.999
   20740      Ob       1     SIL   O03fw       1     -1.05    15.999
   20741      Ob       1     SIL   O03fx       1     -1.05    15.999
   20742      Ob       1     SIL   O03fy       1     -1.05    15.999
   20743      Ob       1     SIL   O03fz       1     -1.05    15.999
   20744      Ob       1     SIL   O03g0       1     -1.05    15.999
   20745      Si       1     SIL   Si1q1       1       2.1    28.086
   20746      Si       1     SIL   Si1q2       1       2.1    28.086
   20747      Si       1     SIL   Si1q3       1       2.1    28.086
   20748      Ob       1     SIL   O03g1       1     -1.05    15.999
   20749      Ob       1     SIL   O03g2       1     -1.05    15.999
   20750      Ob       1     SIL   O03g3       1     -1.05    15.999
   20751      Ob       1     SIL   O03g4       1     -1.05    15.999
   20752      Ob       1     SIL   O03g5       1     -1.05    15.999
   20753      Ob       1     SIL   O03g6       1     -1.05    15.999
   20754      Si       1     SIL   Si1q4       1       2.1    28.086
   20755      Si       1     SIL   Si1q5       1       2.1    28.086
   20756      Si       1     SIL   Si1q6       1       2.1    28.086
   20757      Ob       1     SIL   O03g7       1     -1.05    15.999
   20758      Ob       1     SIL   O03g8       1     -1.05    15.999
   20759      Ob       1     SIL   O03g9       1     -1.05    15.999
   20760      Ob       1     SIL   O03gA       1     -1.05    15.999
   20761      Ob       1     SIL   O03gB       1     -1.05    15.999
   20762      Ob       1     SIL   O03gC       1     -1.05    15.999
   20763      Si       1     SIL   Si1q7       1       2.1    28.086
   20764      Si       1     SIL   Si1q8       1       2.1    28.086
   20765      Si       1     SIL   Si1q9       1       2.1    28.086
   20766      Ob       1     SIL   O03gD       1     -1.05    15.999
   20767      Ob       1     SIL   O03gE       1     -1.05    15.999
   20768      Ob       1     SIL   O03gF       1     -1.05    15.999
   20769      Ob       1     SIL   O03gG       1     -1.05    15.999
   20770      Ob       1     SIL   O03gH       1     -1.05    15.999
   20771      Ob       1     SIL   O03gI       1     -1.05    15.999
   20772      Si       1     SIL   Si1qA       1       2.1    28.086
   20773      Si       1     SIL   Si1qB       1       2.1    28.086
   20774      Si       1     SIL   Si1qC       1       2.1    28.086
   20775      Ob       1     SIL   O03gJ       1     -1.05    15.999
   20776      Ob       1     SIL   O03gK       1     -1.05    15.999
   20777      Ob       1     SIL   O03gL       1     -1.05    15.999
   20778      Ob       1     SIL   O03gM       1     -1.05    15.999
   20779      Ob       1     SIL   O03gN       1     -1.05    15.999
   20780      Ob       1     SIL   O03gO       1     -1.05    15.999
   20781      Si       1     SIL   Si1qD       1       2.1    28.086
   20782      Si       1     SIL   Si1qE       1       2.1    28.086
   20783      Si       1     SIL   Si1qF       1       2.1    28.086
   20784      Ob       1     SIL   O03gP       1     -1.05    15.999
   20785      Ob       1     SIL   O03gQ       1     -1.05    15.999
   20786      Ob       1     SIL   O03gR       1     -1.05    15.999
   20787      Ob       1     SIL   O03gS       1     -1.05    15.999
   20788      Ob       1     SIL   O03gT       1     -1.05    15.999
   20789      Ob       1     SIL   O03gU       1     -1.05    15.999
   20790      Si       1     SIL   Si1qG       1       2.1    28.086
   20791      Si       1     SIL   Si1qH       1       2.1    28.086
   20792      Si       1     SIL   Si1qI       1       2.1    28.086
   20793      Ob       1     SIL   O03gV       1     -1.05    15.999
   20794      Ob       1     SIL   O03gW       1     -1.05    15.999
   20795      Ob       1     SIL   O03gX       1     -1.05    15.999
   20796      Ob       1     SIL   O03gY       1     -1.05    15.999
   20797      Ob       1     SIL   O03gZ       1     -1.05    15.999
   20798      Ob       1     SIL   O03ga       1     -1.05    15.999
   20799      Si       1     SIL   Si1qJ       1       2.1    28.086
   20800      Si       1     SIL   Si1qK       1       2.1    28.086
   20801      Si       1     SIL   Si1qL       1       2.1    28.086
   20802      Ob       1     SIL   O03gb       1     -1.05    15.999
   20803      Ob       1     SIL   O03gc       1     -1.05    15.999
   20804      Ob       1     SIL   O03gd       1     -1.05    15.999
   20805      Ob       1     SIL   O03ge       1     -1.05    15.999
   20806      Ob       1     SIL   O03gf       1     -1.05    15.999
   20807      Ob       1     SIL   O03gg       1     -1.05    15.999
   20808      Si       1     SIL   Si1qM       1       2.1    28.086
   20809      Si       1     SIL   Si1qN       1       2.1    28.086
   20810      Si       1     SIL   Si1qO       1       2.1    28.086
   20811      Ob       1     SIL   O03gh       1     -1.05    15.999
   20812      Ob       1     SIL   O03gi       1     -1.05    15.999
   20813      Ob       1     SIL   O03gj       1     -1.05    15.999
   20814      Ob       1     SIL   O03gk       1     -1.05    15.999
   20815      Ob       1     SIL   O03gl       1     -1.05    15.999
   20816      Ob       1     SIL   O03gm       1     -1.05    15.999
   20817      Si       1     SIL   Si1qP       1       2.1    28.086
   20818      Si       1     SIL   Si1qQ       1       2.1    28.086
   20819      Si       1     SIL   Si1qR       1       2.1    28.086
   20820      Ob       1     SIL   O03gn       1     -1.05    15.999
   20821      Ob       1     SIL   O03go       1     -1.05    15.999
   20822      Ob       1     SIL   O03gp       1     -1.05    15.999
   20823      Ob       1     SIL   O03gq       1     -1.05    15.999
   20824      Ob       1     SIL   O03gr       1     -1.05    15.999
   20825      Ob       1     SIL   O03gs       1     -1.05    15.999
   20826      Si       1     SIL   Si1qS       1       2.1    28.086
   20827      Si       1     SIL   Si1qT       1       2.1    28.086
   20828      Si       1     SIL   Si1qU       1       2.1    28.086
   20829      Ob       1     SIL   O03gt       1     -1.05    15.999
   20830      Ob       1     SIL   O03gu       1     -1.05    15.999
   20831      Ob       1     SIL   O03gv       1     -1.05    15.999
   20832      Ob       1     SIL   O03gw       1     -1.05    15.999
   20833      Ob       1     SIL   O03gx       1     -1.05    15.999
   20834      Ob       1     SIL   O03gy       1     -1.05    15.999
   20835      Si       1     SIL   Si1qV       1       2.1    28.086
   20836      Si       1     SIL   Si1qW       1       2.1    28.086
   20837      Si       1     SIL   Si1qX       1       2.1    28.086
   20838      Ob       1     SIL   O03gz       1     -1.05    15.999
   20839      Ob       1     SIL   O03h0       1     -1.05    15.999
   20840      Ob       1     SIL   O03h1       1     -1.05    15.999
   20841      Ob       1     SIL   O03h2       1     -1.05    15.999
   20842      Ob       1     SIL   O03h3       1     -1.05    15.999
   20843      Ob       1     SIL   O03h4       1     -1.05    15.999
   20844      Si       1     SIL   Si1qY       1       2.1    28.086
   20845      Si       1     SIL   Si1qZ       1       2.1    28.086
   20846      Si       1     SIL   Si1qa       1       2.1    28.086
   20847      Ob       1     SIL   O03h5       1     -1.05    15.999
   20848      Ob       1     SIL   O03h6       1     -1.05    15.999
   20849      Ob       1     SIL   O03h7       1     -1.05    15.999
   20850      Ob       1     SIL   O03h8       1     -1.05    15.999
   20851      Ob       1     SIL   O03h9       1     -1.05    15.999
   20852      Ob       1     SIL   O03hA       1     -1.05    15.999
   20853      Si       1     SIL   Si1qb       1       2.1    28.086
   20854      Si       1     SIL   Si1qc       1       2.1    28.086
   20855      Si       1     SIL   Si1qd       1       2.1    28.086
   20856      Ob       1     SIL   O03hB       1     -1.05    15.999
   20857       O       1     SIL   O03hC       1    -0.525    15.999
   20858       O       1     SIL   O03hD       1    -0.525    15.999
   20859      Ob       1     SIL   O03hE       1     -1.05    15.999
   20860      Ob       1     SIL   O03hF       1     -1.05    15.999
   20861      Ob       1     SIL   O03hG       1     -1.05    15.999
   20862      Si       1     SIL   Si1qe       1       2.1    28.086
   20863      Si       1     SIL   Si1qf       1       2.1    28.086
   20864      Si       1     SIL   Si1qg       1       2.1    28.086
   20865      Ob       1     SIL   O03hH       1     -1.05    15.999
   20866      Ob       1     SIL   O03hI       1     -1.05    15.999
   20867      Ob       1     SIL   O03hJ       1     -1.05    15.999
   20868      Ob       1     SIL   O03hK       1     -1.05    15.999
   20869      Ob       1     SIL   O03hL       1     -1.05    15.999
   20870      Ob       1     SIL   O03hM       1     -1.05    15.999
   20871      Si       1     SIL   Si1qh       1       2.1    28.086
   20872      Si       1     SIL   Si1qi       1       2.1    28.086
   20873      Si       1     SIL   Si1qj       1       2.1    28.086
   20874      Ob       1     SIL   O03hN       1     -1.05    15.999
   20875      Ob       1     SIL   O03hO       1     -1.05    15.999
   20876      Ob       1     SIL   O03hP       1     -1.05    15.999
   20877      Ob       1     SIL   O03hQ       1     -1.05    15.999
   20878      Ob       1     SIL   O03hR       1     -1.05    15.999
   20879      Ob       1     SIL   O03hS       1     -1.05    15.999
   20880      Si       1     SIL   Si1qk       1       2.1    28.086
   20881      Si       1     SIL   Si1ql       1       2.1    28.086
   20882      Si       1     SIL   Si1qm       1       2.1    28.086
   20883      Ob       1     SIL   O03hT       1     -1.05    15.999
   20884      Ob       1     SIL   O03hU       1     -1.05    15.999
   20885      Ob       1     SIL   O03hV       1     -1.05    15.999
   20886      Ob       1     SIL   O03hW       1     -1.05    15.999
   20887      Ob       1     SIL   O03hX       1     -1.05    15.999
   20888      Ob       1     SIL   O03hY       1     -1.05    15.999
   20889      Si       1     SIL   Si1qn       1       2.1    28.086
   20890      Si       1     SIL   Si1qo       1       2.1    28.086
   20891      Si       1     SIL   Si1qp       1       2.1    28.086
   20892      Ob       1     SIL   O03hZ       1     -1.05    15.999
   20893      Ob       1     SIL   O03ha       1     -1.05    15.999
   20894      Ob       1     SIL   O03hb       1     -1.05    15.999
   20895      Ob       1     SIL   O03hc       1     -1.05    15.999
   20896      Ob       1     SIL   O03hd       1     -1.05    15.999
   20897      Ob       1     SIL   O03he       1     -1.05    15.999
   20898      Si       1     SIL   Si1qq       1       2.1    28.086
   20899      Si       1     SIL   Si1qr       1       2.1    28.086
   20900      Si       1     SIL   Si1qs       1       2.1    28.086
   20901      Ob       1     SIL   O03hf       1     -1.05    15.999
   20902      Ob       1     SIL   O03hg       1     -1.05    15.999
   20903      Ob       1     SIL   O03hh       1     -1.05    15.999
   20904      Ob       1     SIL   O03hi       1     -1.05    15.999
   20905      Ob       1     SIL   O03hj       1     -1.05    15.999
   20906      Ob       1     SIL   O03hk       1     -1.05    15.999
   20907      Si       1     SIL   Si1qt       1       2.1    28.086
   20908      Si       1     SIL   Si1qu       1       2.1    28.086
   20909      Si       1     SIL   Si1qv       1       2.1    28.086
   20910      Ob       1     SIL   O03hl       1     -1.05    15.999
   20911      Ob       1     SIL   O03hm       1     -1.05    15.999
   20912      Ob       1     SIL   O03hn       1     -1.05    15.999
   20913      Ob       1     SIL   O03ho       1     -1.05    15.999
   20914      Ob       1     SIL   O03hp       1     -1.05    15.999
   20915      Ob       1     SIL   O03hq       1     -1.05    15.999
   20916      Si       1     SIL   Si1qw       1       2.1    28.086
   20917      Si       1     SIL   Si1qx       1       2.1    28.086
   20918      Si       1     SIL   Si1qy       1       2.1    28.086
   20919      Ob       1     SIL   O03hr       1     -1.05    15.999
   20920      Ob       1     SIL   O03hs       1     -1.05    15.999
   20921      Ob       1     SIL   O03ht       1     -1.05    15.999
   20922      Ob       1     SIL   O03hu       1     -1.05    15.999
   20923      Ob       1     SIL   O03hv       1     -1.05    15.999
   20924      Ob       1     SIL   O03hw       1     -1.05    15.999
   20925      Si       1     SIL   Si1qz       1       2.1    28.086
   20926      Si       1     SIL   Si1r0       1       2.1    28.086
   20927      Si       1     SIL   Si1r1       1       2.1    28.086
   20928      Ob       1     SIL   O03hx       1     -1.05    15.999
   20929      Ob       1     SIL   O03hy       1     -1.05    15.999
   20930      Ob       1     SIL   O03hz       1     -1.05    15.999
   20931      Ob       1     SIL   O03i0       1     -1.05    15.999
   20932      Ob       1     SIL   O03i1       1     -1.05    15.999
   20933      Ob       1     SIL   O03i2       1     -1.05    15.999
   20934      Si       1     SIL   Si1r2       1       2.1    28.086
   20935      Si       1     SIL   Si1r3       1       2.1    28.086
   20936      Si       1     SIL   Si1r4       1       2.1    28.086
   20937      Ob       1     SIL   O03i3       1     -1.05    15.999
   20938      Ob       1     SIL   O03i4       1     -1.05    15.999
   20939      Ob       1     SIL   O03i5       1     -1.05    15.999
   20940      Ob       1     SIL   O03i6       1     -1.05    15.999
   20941      Ob       1     SIL   O03i7       1     -1.05    15.999
   20942      Ob       1     SIL   O03i8       1     -1.05    15.999
   20943      Si       1     SIL   Si1r5       1       2.1    28.086
   20944      Si       1     SIL   Si1r6       1       2.1    28.086
   20945      Si       1     SIL   Si1r7       1       2.1    28.086
   20946      Ob       1     SIL   O03i9       1     -1.05    15.999
   20947      Ob       1     SIL   O03iA       1     -1.05    15.999
   20948      Ob       1     SIL   O03iB       1     -1.05    15.999
   20949      Ob       1     SIL   O03iC       1     -1.05    15.999
   20950      Ob       1     SIL   O03iD       1     -1.05    15.999
   20951      Ob       1     SIL   O03iE       1     -1.05    15.999
   20952      Si       1     SIL   Si1r8       1       2.1    28.086
   20953      Si       1     SIL   Si1r9       1       2.1    28.086
   20954      Si       1     SIL   Si1rA       1       2.1    28.086
   20955      Ob       1     SIL   O03iF       1     -1.05    15.999
   20956      Ob       1     SIL   O03iG       1     -1.05    15.999
   20957      Ob       1     SIL   O03iH       1     -1.05    15.999
   20958      Ob       1     SIL   O03iI       1     -1.05    15.999
   20959      Ob       1     SIL   O03iJ       1     -1.05    15.999
   20960      Ob       1     SIL   O03iK       1     -1.05    15.999
   20961      Si       1     SIL   Si1rB       1       2.1    28.086
   20962      Si       1     SIL   Si1rC       1       2.1    28.086
   20963      Si       1     SIL   Si1rD       1       2.1    28.086
   20964      Ob       1     SIL   O03iL       1     -1.05    15.999
   20965      Ob       1     SIL   O03iM       1     -1.05    15.999
   20966      Ob       1     SIL   O03iN       1     -1.05    15.999
   20967      Ob       1     SIL   O03iO       1     -1.05    15.999
   20968      Ob       1     SIL   O03iP       1     -1.05    15.999
   20969      Ob       1     SIL   O03iQ       1     -1.05    15.999
   20970      Si       1     SIL   Si1rE       1       2.1    28.086
   20971      Si       1     SIL   Si1rF       1       2.1    28.086
   20972      Si       1     SIL   Si1rG       1       2.1    28.086
   20973      Ob       1     SIL   O03iR       1     -1.05    15.999
   20974      Ob       1     SIL   O03iS       1     -1.05    15.999
   20975      Ob       1     SIL   O03iT       1     -1.05    15.999
   20976      Ob       1     SIL   O03iU       1     -1.05    15.999
   20977      Ob       1     SIL   O03iV       1     -1.05    15.999
   20978      Ob       1     SIL   O03iW       1     -1.05    15.999
   20979      Si       1     SIL   Si1rH       1       2.1    28.086
   20980      Si       1     SIL   Si1rI       1       2.1    28.086
   20981      Si       1     SIL   Si1rJ       1       2.1    28.086
   20982      Ob       1     SIL   O03iX       1     -1.05    15.999
   20983      Ob       1     SIL   O03iY       1     -1.05    15.999
   20984      Ob       1     SIL   O03iZ       1     -1.05    15.999
   20985      Ob       1     SIL   O03ia       1     -1.05    15.999
   20986      Ob       1     SIL   O03ib       1     -1.05    15.999
   20987      Ob       1     SIL   O03ic       1     -1.05    15.999
   20988      Si       1     SIL   Si1rK       1       2.1    28.086
   20989      Si       1     SIL   Si1rL       1       2.1    28.086
   20990      Si       1     SIL   Si1rM       1       2.1    28.086
   20991      Ob       1     SIL   O03id       1     -1.05    15.999
   20992      Ob       1     SIL   O03ie       1     -1.05    15.999
   20993      Ob       1     SIL   O03if       1     -1.05    15.999
   20994      Ob       1     SIL   O03ig       1     -1.05    15.999
   20995      Ob       1     SIL   O03ih       1     -1.05    15.999
   20996      Ob       1     SIL   O03ii       1     -1.05    15.999
   20997      Si       1     SIL   Si1rN       1       2.1    28.086
   20998      Si       1     SIL   Si1rO       1       2.1    28.086
   20999      Si       1     SIL   Si1rP       1       2.1    28.086
   21000      Ob       1     SIL   O03ij       1     -1.05    15.999
   21001      Ob       1     SIL   O03ik       1     -1.05    15.999
   21002      Ob       1     SIL   O03il       1     -1.05    15.999
   21003      Ob       1     SIL   O03im       1     -1.05    15.999
   21004      Ob       1     SIL   O03in       1     -1.05    15.999
   21005      Ob       1     SIL   O03io       1     -1.05    15.999
   21006      Si       1     SIL   Si1rQ       1       2.1    28.086
   21007      Si       1     SIL   Si1rR       1       2.1    28.086
   21008      Si       1     SIL   Si1rS       1       2.1    28.086
   21009      Ob       1     SIL   O03ip       1     -1.05    15.999
   21010      Ob       1     SIL   O03iq       1     -1.05    15.999
   21011      Ob       1     SIL   O03ir       1     -1.05    15.999
   21012      Ob       1     SIL   O03is       1     -1.05    15.999
   21013      Ob       1     SIL   O03it       1     -1.05    15.999
   21014      Ob       1     SIL   O03iu       1     -1.05    15.999
   21015      Si       1     SIL   Si1rT       1       2.1    28.086
   21016      Si       1     SIL   Si1rU       1       2.1    28.086
   21017      Si       1     SIL   Si1rV       1       2.1    28.086
   21018      Ob       1     SIL   O03iv       1     -1.05    15.999
   21019      Ob       1     SIL   O03iw       1     -1.05    15.999
   21020      Ob       1     SIL   O03ix       1     -1.05    15.999
   21021      Ob       1     SIL   O03iy       1     -1.05    15.999
   21022      Ob       1     SIL   O03iz       1     -1.05    15.999
   21023      Ob       1     SIL   O03j0       1     -1.05    15.999
   21024      Si       1     SIL   Si1rW       1       2.1    28.086
   21025      Si       1     SIL   Si1rX       1       2.1    28.086
   21026      Si       1     SIL   Si1rY       1       2.1    28.086
   21027      Ob       1     SIL   O03j1       1     -1.05    15.999
   21028      Ob       1     SIL   O03j2       1     -1.05    15.999
   21029      Ob       1     SIL   O03j3       1     -1.05    15.999
   21030      Ob       1     SIL   O03j4       1     -1.05    15.999
   21031      Ob       1     SIL   O03j5       1     -1.05    15.999
   21032      Ob       1     SIL   O03j6       1     -1.05    15.999
   21033      Si       1     SIL   Si1rZ       1       2.1    28.086
   21034      Si       1     SIL   Si1ra       1       2.1    28.086
   21035      Si       1     SIL   Si1rb       1       2.1    28.086
   21036      Ob       1     SIL   O03j7       1     -1.05    15.999
   21037      Ob       1     SIL   O03j8       1     -1.05    15.999
   21038      Ob       1     SIL   O03j9       1     -1.05    15.999
   21039      Ob       1     SIL   O03jA       1     -1.05    15.999
   21040      Ob       1     SIL   O03jB       1     -1.05    15.999
   21041      Ob       1     SIL   O03jC       1     -1.05    15.999
   21042      Si       1     SIL   Si1rc       1       2.1    28.086
   21043      Si       1     SIL   Si1rd       1       2.1    28.086
   21044      Si       1     SIL   Si1re       1       2.1    28.086
   21045      Ob       1     SIL   O03jD       1     -1.05    15.999
   21046      Ob       1     SIL   O03jE       1     -1.05    15.999
   21047      Ob       1     SIL   O03jF       1     -1.05    15.999
   21048      Ob       1     SIL   O03jG       1     -1.05    15.999
   21049      Ob       1     SIL   O03jH       1     -1.05    15.999
   21050      Ob       1     SIL   O03jI       1     -1.05    15.999
   21051      Si       1     SIL   Si1rf       1       2.1    28.086
   21052      Si       1     SIL   Si1rg       1       2.1    28.086
   21053      Si       1     SIL   Si1rh       1       2.1    28.086
   21054      Ob       1     SIL   O03jJ       1     -1.05    15.999
   21055      Ob       1     SIL   O03jK       1     -1.05    15.999
   21056      Ob       1     SIL   O03jL       1     -1.05    15.999
   21057      Ob       1     SIL   O03jM       1     -1.05    15.999
   21058      Ob       1     SIL   O03jN       1     -1.05    15.999
   21059      Ob       1     SIL   O03jO       1     -1.05    15.999
   21060      Si       1     SIL   Si1ri       1       2.1    28.086
   21061      Si       1     SIL   Si1rj       1       2.1    28.086
   21062      Si       1     SIL   Si1rk       1       2.1    28.086
   21063      Ob       1     SIL   O03jP       1     -1.05    15.999
   21064       O       1     SIL   O03jQ       1    -0.525    15.999
   21065       O       1     SIL   O03jR       1    -0.525    15.999
   21066      Ob       1     SIL   O03jS       1     -1.05    15.999
   21067      Ob       1     SIL   O03jT       1     -1.05    15.999
   21068      Ob       1     SIL   O03jU       1     -1.05    15.999
   21069      Si       1     SIL   Si1rl       1       2.1    28.086
   21070      Si       1     SIL   Si1rm       1       2.1    28.086
   21071      Si       1     SIL   Si1rn       1       2.1    28.086
   21072      Ob       1     SIL   O03jV       1     -1.05    15.999
   21073      Ob       1     SIL   O03jW       1     -1.05    15.999
   21074      Ob       1     SIL   O03jX       1     -1.05    15.999
   21075      Ob       1     SIL   O03jY       1     -1.05    15.999
   21076      Ob       1     SIL   O03jZ       1     -1.05    15.999
   21077      Ob       1     SIL   O03ja       1     -1.05    15.999
   21078      Si       1     SIL   Si1ro       1       2.1    28.086
   21079      Si       1     SIL   Si1rp       1       2.1    28.086
   21080      Si       1     SIL   Si1rq       1       2.1    28.086
   21081      Ob       1     SIL   O03jb       1     -1.05    15.999
   21082      Ob       1     SIL   O03jc       1     -1.05    15.999
   21083      Ob       1     SIL   O03jd       1     -1.05    15.999
   21084      Ob       1     SIL   O03je       1     -1.05    15.999
   21085      Ob       1     SIL   O03jf       1     -1.05    15.999
   21086      Ob       1     SIL   O03jg       1     -1.05    15.999
   21087      Si       1     SIL   Si1rr       1       2.1    28.086
   21088      Si       1     SIL   Si1rs       1       2.1    28.086
   21089      Si       1     SIL   Si1rt       1       2.1    28.086
   21090      Ob       1     SIL   O03jh       1     -1.05    15.999
   21091      Ob       1     SIL   O03ji       1     -1.05    15.999
   21092      Ob       1     SIL   O03jj       1     -1.05    15.999
   21093      Ob       1     SIL   O03jk       1     -1.05    15.999
   21094      Ob       1     SIL   O03jl       1     -1.05    15.999
   21095      Ob       1     SIL   O03jm       1     -1.05    15.999
   21096      Si       1     SIL   Si1ru       1       2.1    28.086
   21097      Si       1     SIL   Si1rv       1       2.1    28.086
   21098      Si       1     SIL   Si1rw       1       2.1    28.086
   21099      Ob       1     SIL   O03jn       1     -1.05    15.999
   21100      Ob       1     SIL   O03jo       1     -1.05    15.999
   21101      Ob       1     SIL   O03jp       1     -1.05    15.999
   21102      Ob       1     SIL   O03jq       1     -1.05    15.999
   21103      Ob       1     SIL   O03jr       1     -1.05    15.999
   21104      Ob       1     SIL   O03js       1     -1.05    15.999
   21105      Si       1     SIL   Si1rx       1       2.1    28.086
   21106      Si       1     SIL   Si1ry       1       2.1    28.086
   21107      Si       1     SIL   Si1rz       1       2.1    28.086
   21108      Ob       1     SIL   O03jt       1     -1.05    15.999
   21109      Ob       1     SIL   O03ju       1     -1.05    15.999
   21110      Ob       1     SIL   O03jv       1     -1.05    15.999
   21111      Ob       1     SIL   O03jw       1     -1.05    15.999
   21112      Ob       1     SIL   O03jx       1     -1.05    15.999
   21113      Ob       1     SIL   O03jy       1     -1.05    15.999
   21114      Si       1     SIL   Si1s0       1       2.1    28.086
   21115      Si       1     SIL   Si1s1       1       2.1    28.086
   21116      Si       1     SIL   Si1s2       1       2.1    28.086
   21117      Ob       1     SIL   O03jz       1     -1.05    15.999
   21118      Ob       1     SIL   O03k0       1     -1.05    15.999
   21119      Ob       1     SIL   O03k1       1     -1.05    15.999
   21120      Ob       1     SIL   O03k2       1     -1.05    15.999
   21121      Ob       1     SIL   O03k3       1     -1.05    15.999
   21122      Ob       1     SIL   O03k4       1     -1.05    15.999
   21123      Si       1     SIL   Si1s3       1       2.1    28.086
   21124      Si       1     SIL   Si1s4       1       2.1    28.086
   21125      Si       1     SIL   Si1s5       1       2.1    28.086
   21126      Ob       1     SIL   O03k5       1     -1.05    15.999
   21127      Ob       1     SIL   O03k6       1     -1.05    15.999
   21128      Ob       1     SIL   O03k7       1     -1.05    15.999
   21129      Ob       1     SIL   O03k8       1     -1.05    15.999
   21130      Ob       1     SIL   O03k9       1     -1.05    15.999
   21131      Ob       1     SIL   O03kA       1     -1.05    15.999
   21132      Si       1     SIL   Si1s6       1       2.1    28.086
   21133      Si       1     SIL   Si1s7       1       2.1    28.086
   21134      Si       1     SIL   Si1s8       1       2.1    28.086
   21135      Ob       1     SIL   O03kB       1     -1.05    15.999
   21136      Ob       1     SIL   O03kC       1     -1.05    15.999
   21137      Ob       1     SIL   O03kD       1     -1.05    15.999
   21138      Ob       1     SIL   O03kE       1     -1.05    15.999
   21139      Ob       1     SIL   O03kF       1     -1.05    15.999
   21140      Ob       1     SIL   O03kG       1     -1.05    15.999
   21141      Si       1     SIL   Si1s9       1       2.1    28.086
   21142      Si       1     SIL   Si1sA       1       2.1    28.086
   21143      Si       1     SIL   Si1sB       1       2.1    28.086
   21144      Ob       1     SIL   O03kH       1     -1.05    15.999
   21145      Ob       1     SIL   O03kI       1     -1.05    15.999
   21146      Ob       1     SIL   O03kJ       1     -1.05    15.999
   21147      Ob       1     SIL   O03kK       1     -1.05    15.999
   21148      Ob       1     SIL   O03kL       1     -1.05    15.999
   21149      Ob       1     SIL   O03kM       1     -1.05    15.999
   21150      Si       1     SIL   Si1sC       1       2.1    28.086
   21151      Si       1     SIL   Si1sD       1       2.1    28.086
   21152      Si       1     SIL   Si1sE       1       2.1    28.086
   21153      Ob       1     SIL   O03kN       1     -1.05    15.999
   21154      Ob       1     SIL   O03kO       1     -1.05    15.999
   21155      Ob       1     SIL   O03kP       1     -1.05    15.999
   21156      Ob       1     SIL   O03kQ       1     -1.05    15.999
   21157      Ob       1     SIL   O03kR       1     -1.05    15.999
   21158      Ob       1     SIL   O03kS       1     -1.05    15.999
   21159      Si       1     SIL   Si1sF       1       2.1    28.086
   21160      Si       1     SIL   Si1sG       1       2.1    28.086
   21161      Si       1     SIL   Si1sH       1       2.1    28.086
   21162      Ob       1     SIL   O03kT       1     -1.05    15.999
   21163      Ob       1     SIL   O03kU       1     -1.05    15.999
   21164      Ob       1     SIL   O03kV       1     -1.05    15.999
   21165      Ob       1     SIL   O03kW       1     -1.05    15.999
   21166      Ob       1     SIL   O03kX       1     -1.05    15.999
   21167      Ob       1     SIL   O03kY       1     -1.05    15.999
   21168      Si       1     SIL   Si1sI       1       2.1    28.086
   21169      Si       1     SIL   Si1sJ       1       2.1    28.086
   21170      Si       1     SIL   Si1sK       1       2.1    28.086
   21171      Ob       1     SIL   O03kZ       1     -1.05    15.999
   21172      Ob       1     SIL   O03ka       1     -1.05    15.999
   21173      Ob       1     SIL   O03kb       1     -1.05    15.999
   21174      Ob       1     SIL   O03kc       1     -1.05    15.999
   21175      Ob       1     SIL   O03kd       1     -1.05    15.999
   21176      Ob       1     SIL   O03ke       1     -1.05    15.999
   21177      Si       1     SIL   Si1sL       1       2.1    28.086
   21178      Si       1     SIL   Si1sM       1       2.1    28.086
   21179      Si       1     SIL   Si1sN       1       2.1    28.086
   21180      Ob       1     SIL   O03kf       1     -1.05    15.999
   21181      Ob       1     SIL   O03kg       1     -1.05    15.999
   21182      Ob       1     SIL   O03kh       1     -1.05    15.999
   21183      Ob       1     SIL   O03ki       1     -1.05    15.999
   21184      Ob       1     SIL   O03kj       1     -1.05    15.999
   21185      Ob       1     SIL   O03kk       1     -1.05    15.999
   21186      Si       1     SIL   Si1sO       1       2.1    28.086
   21187      Si       1     SIL   Si1sP       1       2.1    28.086
   21188      Si       1     SIL   Si1sQ       1       2.1    28.086
   21189      Ob       1     SIL   O03kl       1     -1.05    15.999
   21190      Ob       1     SIL   O03km       1     -1.05    15.999
   21191      Ob       1     SIL   O03kn       1     -1.05    15.999
   21192      Ob       1     SIL   O03ko       1     -1.05    15.999
   21193      Ob       1     SIL   O03kp       1     -1.05    15.999
   21194      Ob       1     SIL   O03kq       1     -1.05    15.999
   21195      Si       1     SIL   Si1sR       1       2.1    28.086
   21196      Si       1     SIL   Si1sS       1       2.1    28.086
   21197      Si       1     SIL   Si1sT       1       2.1    28.086
   21198      Ob       1     SIL   O03kr       1     -1.05    15.999
   21199      Ob       1     SIL   O03ks       1     -1.05    15.999
   21200      Ob       1     SIL   O03kt       1     -1.05    15.999
   21201      Ob       1     SIL   O03ku       1     -1.05    15.999
   21202      Ob       1     SIL   O03kv       1     -1.05    15.999
   21203      Ob       1     SIL   O03kw       1     -1.05    15.999
   21204      Si       1     SIL   Si1sU       1       2.1    28.086
   21205      Si       1     SIL   Si1sV       1       2.1    28.086
   21206      Si       1     SIL   Si1sW       1       2.1    28.086
   21207      Ob       1     SIL   O03kx       1     -1.05    15.999
   21208      Ob       1     SIL   O03ky       1     -1.05    15.999
   21209      Ob       1     SIL   O03kz       1     -1.05    15.999
   21210      Ob       1     SIL   O03l0       1     -1.05    15.999
   21211      Ob       1     SIL   O03l1       1     -1.05    15.999
   21212      Ob       1     SIL   O03l2       1     -1.05    15.999
   21213      Si       1     SIL   Si1sX       1       2.1    28.086
   21214      Si       1     SIL   Si1sY       1       2.1    28.086
   21215      Si       1     SIL   Si1sZ       1       2.1    28.086
   21216      Ob       1     SIL   O03l3       1     -1.05    15.999
   21217      Ob       1     SIL   O03l4       1     -1.05    15.999
   21218      Ob       1     SIL   O03l5       1     -1.05    15.999
   21219      Ob       1     SIL   O03l6       1     -1.05    15.999
   21220      Ob       1     SIL   O03l7       1     -1.05    15.999
   21221      Ob       1     SIL   O03l8       1     -1.05    15.999
   21222      Si       1     SIL   Si1sa       1       2.1    28.086
   21223      Si       1     SIL   Si1sb       1       2.1    28.086
   21224      Si       1     SIL   Si1sc       1       2.1    28.086
   21225      Ob       1     SIL   O03l9       1     -1.05    15.999
   21226      Ob       1     SIL   O03lA       1     -1.05    15.999
   21227      Ob       1     SIL   O03lB       1     -1.05    15.999
   21228      Ob       1     SIL   O03lC       1     -1.05    15.999
   21229      Ob       1     SIL   O03lD       1     -1.05    15.999
   21230      Ob       1     SIL   O03lE       1     -1.05    15.999
   21231      Si       1     SIL   Si1sd       1       2.1    28.086
   21232      Si       1     SIL   Si1se       1       2.1    28.086
   21233      Si       1     SIL   Si1sf       1       2.1    28.086
   21234      Ob       1     SIL   O03lF       1     -1.05    15.999
   21235      Ob       1     SIL   O03lG       1     -1.05    15.999
   21236      Ob       1     SIL   O03lH       1     -1.05    15.999
   21237      Ob       1     SIL   O03lI       1     -1.05    15.999
   21238      Ob       1     SIL   O03lJ       1     -1.05    15.999
   21239      Ob       1     SIL   O03lK       1     -1.05    15.999
   21240      Si       1     SIL   Si1sg       1       2.1    28.086
   21241      Si       1     SIL   Si1sh       1       2.1    28.086
   21242      Si       1     SIL   Si1si       1       2.1    28.086
   21243      Ob       1     SIL   O03lL       1     -1.05    15.999
   21244      Ob       1     SIL   O03lM       1     -1.05    15.999
   21245      Ob       1     SIL   O03lN       1     -1.05    15.999
   21246      Ob       1     SIL   O03lO       1     -1.05    15.999
   21247      Ob       1     SIL   O03lP       1     -1.05    15.999
   21248      Ob       1     SIL   O03lQ       1     -1.05    15.999
   21249      Si       1     SIL   Si1sj       1       2.1    28.086
   21250      Si       1     SIL   Si1sk       1       2.1    28.086
   21251      Si       1     SIL   Si1sl       1       2.1    28.086
   21252      Ob       1     SIL   O03lR       1     -1.05    15.999
   21253      Ob       1     SIL   O03lS       1     -1.05    15.999
   21254      Ob       1     SIL   O03lT       1     -1.05    15.999
   21255      Ob       1     SIL   O03lU       1     -1.05    15.999
   21256      Ob       1     SIL   O03lV       1     -1.05    15.999
   21257      Ob       1     SIL   O03lW       1     -1.05    15.999
   21258      Si       1     SIL   Si1sm       1       2.1    28.086
   21259      Si       1     SIL   Si1sn       1       2.1    28.086
   21260      Si       1     SIL   Si1so       1       2.1    28.086
   21261      Ob       1     SIL   O03lX       1     -1.05    15.999
   21262      Ob       1     SIL   O03lY       1     -1.05    15.999
   21263      Ob       1     SIL   O03lZ       1     -1.05    15.999
   21264      Ob       1     SIL   O03la       1     -1.05    15.999
   21265      Ob       1     SIL   O03lb       1     -1.05    15.999
   21266      Ob       1     SIL   O03lc       1     -1.05    15.999
   21267      Si       1     SIL   Si1sp       1       2.1    28.086
   21268      Si       1     SIL   Si1sq       1       2.1    28.086
   21269      Si       1     SIL   Si1sr       1       2.1    28.086
   21270      Ob       1     SIL   O03ld       1     -1.05    15.999
   21271       O       1     SIL   O03le       1    -0.525    15.999
   21272       O       1     SIL   O03lf       1    -0.525    15.999
   21273      Ob       1     SIL   O03lg       1     -1.05    15.999
   21274      Ob       1     SIL   O03lh       1     -1.05    15.999
   21275      Ob       1     SIL   O03li       1     -1.05    15.999
   21276      Si       1     SIL   Si1ss       1       2.1    28.086
   21277      Si       1     SIL   Si1st       1       2.1    28.086
   21278      Si       1     SIL   Si1su       1       2.1    28.086
   21279      Ob       1     SIL   O03lj       1     -1.05    15.999
   21280      Ob       1     SIL   O03lk       1     -1.05    15.999
   21281      Ob       1     SIL   O03ll       1     -1.05    15.999
   21282      Ob       1     SIL   O03lm       1     -1.05    15.999
   21283      Ob       1     SIL   O03ln       1     -1.05    15.999
   21284      Ob       1     SIL   O03lo       1     -1.05    15.999
   21285      Si       1     SIL   Si1sv       1       2.1    28.086
   21286      Si       1     SIL   Si1sw       1       2.1    28.086
   21287      Si       1     SIL   Si1sx       1       2.1    28.086
   21288      Ob       1     SIL   O03lp       1     -1.05    15.999
   21289      Ob       1     SIL   O03lq       1     -1.05    15.999
   21290      Ob       1     SIL   O03lr       1     -1.05    15.999
   21291      Ob       1     SIL   O03ls       1     -1.05    15.999
   21292      Ob       1     SIL   O03lt       1     -1.05    15.999
   21293      Ob       1     SIL   O03lu       1     -1.05    15.999
   21294      Si       1     SIL   Si1sy       1       2.1    28.086
   21295      Si       1     SIL   Si1sz       1       2.1    28.086
   21296      Si       1     SIL   Si1t0       1       2.1    28.086
   21297      Ob       1     SIL   O03lv       1     -1.05    15.999
   21298      Ob       1     SIL   O03lw       1     -1.05    15.999
   21299      Ob       1     SIL   O03lx       1     -1.05    15.999
   21300      Ob       1     SIL   O03ly       1     -1.05    15.999
   21301      Ob       1     SIL   O03lz       1     -1.05    15.999
   21302      Ob       1     SIL   O03m0       1     -1.05    15.999
   21303      Si       1     SIL   Si1t1       1       2.1    28.086
   21304      Si       1     SIL   Si1t2       1       2.1    28.086
   21305      Si       1     SIL   Si1t3       1       2.1    28.086
   21306      Ob       1     SIL   O03m1       1     -1.05    15.999
   21307      Ob       1     SIL   O03m2       1     -1.05    15.999
   21308      Ob       1     SIL   O03m3       1     -1.05    15.999
   21309      Ob       1     SIL   O03m4       1     -1.05    15.999
   21310      Ob       1     SIL   O03m5       1     -1.05    15.999
   21311      Ob       1     SIL   O03m6       1     -1.05    15.999
   21312      Si       1     SIL   Si1t4       1       2.1    28.086
   21313      Si       1     SIL   Si1t5       1       2.1    28.086
   21314      Si       1     SIL   Si1t6       1       2.1    28.086
   21315      Ob       1     SIL   O03m7       1     -1.05    15.999
   21316      Ob       1     SIL   O03m8       1     -1.05    15.999
   21317      Ob       1     SIL   O03m9       1     -1.05    15.999
   21318      Ob       1     SIL   O03mA       1     -1.05    15.999
   21319      Ob       1     SIL   O03mB       1     -1.05    15.999
   21320      Ob       1     SIL   O03mC       1     -1.05    15.999
   21321      Si       1     SIL   Si1t7       1       2.1    28.086
   21322      Si       1     SIL   Si1t8       1       2.1    28.086
   21323      Si       1     SIL   Si1t9       1       2.1    28.086
   21324      Ob       1     SIL   O03mD       1     -1.05    15.999
   21325      Ob       1     SIL   O03mE       1     -1.05    15.999
   21326      Ob       1     SIL   O03mF       1     -1.05    15.999
   21327      Ob       1     SIL   O03mG       1     -1.05    15.999
   21328      Ob       1     SIL   O03mH       1     -1.05    15.999
   21329      Ob       1     SIL   O03mI       1     -1.05    15.999
   21330      Si       1     SIL   Si1tA       1       2.1    28.086
   21331      Si       1     SIL   Si1tB       1       2.1    28.086
   21332      Si       1     SIL   Si1tC       1       2.1    28.086
   21333      Ob       1     SIL   O03mJ       1     -1.05    15.999
   21334      Ob       1     SIL   O03mK       1     -1.05    15.999
   21335      Ob       1     SIL   O03mL       1     -1.05    15.999
   21336      Ob       1     SIL   O03mM       1     -1.05    15.999
   21337      Ob       1     SIL   O03mN       1     -1.05    15.999
   21338      Ob       1     SIL   O03mO       1     -1.05    15.999
   21339      Si       1     SIL   Si1tD       1       2.1    28.086
   21340      Si       1     SIL   Si1tE       1       2.1    28.086
   21341      Si       1     SIL   Si1tF       1       2.1    28.086
   21342      Ob       1     SIL   O03mP       1     -1.05    15.999
   21343      Ob       1     SIL   O03mQ       1     -1.05    15.999
   21344      Ob       1     SIL   O03mR       1     -1.05    15.999
   21345      Ob       1     SIL   O03mS       1     -1.05    15.999
   21346      Ob       1     SIL   O03mT       1     -1.05    15.999
   21347      Ob       1     SIL   O03mU       1     -1.05    15.999
   21348      Si       1     SIL   Si1tG       1       2.1    28.086
   21349      Si       1     SIL   Si1tH       1       2.1    28.086
   21350      Si       1     SIL   Si1tI       1       2.1    28.086
   21351      Ob       1     SIL   O03mV       1     -1.05    15.999
   21352      Ob       1     SIL   O03mW       1     -1.05    15.999
   21353      Ob       1     SIL   O03mX       1     -1.05    15.999
   21354      Ob       1     SIL   O03mY       1     -1.05    15.999
   21355      Ob       1     SIL   O03mZ       1     -1.05    15.999
   21356      Ob       1     SIL   O03ma       1     -1.05    15.999
   21357      Si       1     SIL   Si1tJ       1       2.1    28.086
   21358      Si       1     SIL   Si1tK       1       2.1    28.086
   21359      Si       1     SIL   Si1tL       1       2.1    28.086
   21360      Ob       1     SIL   O03mb       1     -1.05    15.999
   21361      Ob       1     SIL   O03mc       1     -1.05    15.999
   21362      Ob       1     SIL   O03md       1     -1.05    15.999
   21363      Ob       1     SIL   O03me       1     -1.05    15.999
   21364      Ob       1     SIL   O03mf       1     -1.05    15.999
   21365      Ob       1     SIL   O03mg       1     -1.05    15.999
   21366      Si       1     SIL   Si1tM       1       2.1    28.086
   21367      Si       1     SIL   Si1tN       1       2.1    28.086
   21368      Si       1     SIL   Si1tO       1       2.1    28.086
   21369      Ob       1     SIL   O03mh       1     -1.05    15.999
   21370      Ob       1     SIL   O03mi       1     -1.05    15.999
   21371      Ob       1     SIL   O03mj       1     -1.05    15.999
   21372      Ob       1     SIL   O03mk       1     -1.05    15.999
   21373      Ob       1     SIL   O03ml       1     -1.05    15.999
   21374      Ob       1     SIL   O03mm       1     -1.05    15.999
   21375      Si       1     SIL   Si1tP       1       2.1    28.086
   21376      Si       1     SIL   Si1tQ       1       2.1    28.086
   21377      Si       1     SIL   Si1tR       1       2.1    28.086
   21378      Ob       1     SIL   O03mn       1     -1.05    15.999
   21379      Ob       1     SIL   O03mo       1     -1.05    15.999
   21380      Ob       1     SIL   O03mp       1     -1.05    15.999
   21381      Ob       1     SIL   O03mq       1     -1.05    15.999
   21382      Ob       1     SIL   O03mr       1     -1.05    15.999
   21383      Ob       1     SIL   O03ms       1     -1.05    15.999
   21384      Si       1     SIL   Si1tS       1       2.1    28.086
   21385      Si       1     SIL   Si1tT       1       2.1    28.086
   21386      Si       1     SIL   Si1tU       1       2.1    28.086
   21387      Ob       1     SIL   O03mt       1     -1.05    15.999
   21388      Ob       1     SIL   O03mu       1     -1.05    15.999
   21389      Ob       1     SIL   O03mv       1     -1.05    15.999
   21390      Ob       1     SIL   O03mw       1     -1.05    15.999
   21391      Ob       1     SIL   O03mx       1     -1.05    15.999
   21392      Ob       1     SIL   O03my       1     -1.05    15.999
   21393      Si       1     SIL   Si1tV       1       2.1    28.086
   21394      Si       1     SIL   Si1tW       1       2.1    28.086
   21395      Si       1     SIL   Si1tX       1       2.1    28.086
   21396      Ob       1     SIL   O03mz       1     -1.05    15.999
   21397      Ob       1     SIL   O03n0       1     -1.05    15.999
   21398      Ob       1     SIL   O03n1       1     -1.05    15.999
   21399      Ob       1     SIL   O03n2       1     -1.05    15.999
   21400      Ob       1     SIL   O03n3       1     -1.05    15.999
   21401      Ob       1     SIL   O03n4       1     -1.05    15.999
   21402      Si       1     SIL   Si1tY       1       2.1    28.086
   21403      Si       1     SIL   Si1tZ       1       2.1    28.086
   21404      Si       1     SIL   Si1ta       1       2.1    28.086
   21405      Ob       1     SIL   O03n5       1     -1.05    15.999
   21406      Ob       1     SIL   O03n6       1     -1.05    15.999
   21407      Ob       1     SIL   O03n7       1     -1.05    15.999
   21408      Ob       1     SIL   O03n8       1     -1.05    15.999
   21409      Ob       1     SIL   O03n9       1     -1.05    15.999
   21410      Ob       1     SIL   O03nA       1     -1.05    15.999
   21411      Si       1     SIL   Si1tb       1       2.1    28.086
   21412      Si       1     SIL   Si1tc       1       2.1    28.086
   21413      Si       1     SIL   Si1td       1       2.1    28.086
   21414      Ob       1     SIL   O03nB       1     -1.05    15.999
   21415      Ob       1     SIL   O03nC       1     -1.05    15.999
   21416      Ob       1     SIL   O03nD       1     -1.05    15.999
   21417      Ob       1     SIL   O03nE       1     -1.05    15.999
   21418      Ob       1     SIL   O03nF       1     -1.05    15.999
   21419      Ob       1     SIL   O03nG       1     -1.05    15.999
   21420      Si       1     SIL   Si1te       1       2.1    28.086
   21421      Si       1     SIL   Si1tf       1       2.1    28.086
   21422      Si       1     SIL   Si1tg       1       2.1    28.086
   21423      Ob       1     SIL   O03nH       1     -1.05    15.999
   21424      Ob       1     SIL   O03nI       1     -1.05    15.999
   21425      Ob       1     SIL   O03nJ       1     -1.05    15.999
   21426      Ob       1     SIL   O03nK       1     -1.05    15.999
   21427      Ob       1     SIL   O03nL       1     -1.05    15.999
   21428      Ob       1     SIL   O03nM       1     -1.05    15.999
   21429      Si       1     SIL   Si1th       1       2.1    28.086
   21430      Si       1     SIL   Si1ti       1       2.1    28.086
   21431      Si       1     SIL   Si1tj       1       2.1    28.086
   21432      Ob       1     SIL   O03nN       1     -1.05    15.999
   21433      Ob       1     SIL   O03nO       1     -1.05    15.999
   21434      Ob       1     SIL   O03nP       1     -1.05    15.999
   21435      Ob       1     SIL   O03nQ       1     -1.05    15.999
   21436      Ob       1     SIL   O03nR       1     -1.05    15.999
   21437      Ob       1     SIL   O03nS       1     -1.05    15.999
   21438      Si       1     SIL   Si1tk       1       2.1    28.086
   21439      Si       1     SIL   Si1tl       1       2.1    28.086
   21440      Si       1     SIL   Si1tm       1       2.1    28.086
   21441      Ob       1     SIL   O03nT       1     -1.05    15.999
   21442      Ob       1     SIL   O03nU       1     -1.05    15.999
   21443      Ob       1     SIL   O03nV       1     -1.05    15.999
   21444      Ob       1     SIL   O03nW       1     -1.05    15.999
   21445      Ob       1     SIL   O03nX       1     -1.05    15.999
   21446      Ob       1     SIL   O03nY       1     -1.05    15.999
   21447      Si       1     SIL   Si1tn       1       2.1    28.086
   21448      Si       1     SIL   Si1to       1       2.1    28.086
   21449      Si       1     SIL   Si1tp       1       2.1    28.086
   21450      Ob       1     SIL   O03nZ       1     -1.05    15.999
   21451      Ob       1     SIL   O03na       1     -1.05    15.999
   21452      Ob       1     SIL   O03nb       1     -1.05    15.999
   21453      Ob       1     SIL   O03nc       1     -1.05    15.999
   21454      Ob       1     SIL   O03nd       1     -1.05    15.999
   21455      Ob       1     SIL   O03ne       1     -1.05    15.999
   21456      Si       1     SIL   Si1tq       1       2.1    28.086
   21457      Si       1     SIL   Si1tr       1       2.1    28.086
   21458      Si       1     SIL   Si1ts       1       2.1    28.086
   21459      Ob       1     SIL   O03nf       1     -1.05    15.999
   21460      Ob       1     SIL   O03ng       1     -1.05    15.999
   21461      Ob       1     SIL   O03nh       1     -1.05    15.999
   21462      Ob       1     SIL   O03ni       1     -1.05    15.999
   21463      Ob       1     SIL   O03nj       1     -1.05    15.999
   21464      Ob       1     SIL   O03nk       1     -1.05    15.999
   21465      Si       1     SIL   Si1tt       1       2.1    28.086
   21466      Si       1     SIL   Si1tu       1       2.1    28.086
   21467      Si       1     SIL   Si1tv       1       2.1    28.086
   21468      Ob       1     SIL   O03nl       1     -1.05    15.999
   21469      Ob       1     SIL   O03nm       1     -1.05    15.999
   21470      Ob       1     SIL   O03nn       1     -1.05    15.999
   21471      Ob       1     SIL   O03no       1     -1.05    15.999
   21472      Ob       1     SIL   O03np       1     -1.05    15.999
   21473      Ob       1     SIL   O03nq       1     -1.05    15.999
   21474      Si       1     SIL   Si1tw       1       2.1    28.086
   21475      Si       1     SIL   Si1tx       1       2.1    28.086
   21476      Si       1     SIL   Si1ty       1       2.1    28.086
   21477      Ob       1     SIL   O03nr       1     -1.05    15.999
   21478       O       1     SIL   O03ns       1    -0.525    15.999
   21479       O       1     SIL   O03nt       1    -0.525    15.999
   21480      Ob       1     SIL   O03nu       1     -1.05    15.999
   21481      Ob       1     SIL   O03nv       1     -1.05    15.999
   21482      Ob       1     SIL   O03nw       1     -1.05    15.999
   21483      Si       1     SIL   Si1tz       1       2.1    28.086
   21484      Si       1     SIL   Si1u0       1       2.1    28.086
   21485      Si       1     SIL   Si1u1       1       2.1    28.086
   21486      Ob       1     SIL   O03nx       1     -1.05    15.999
   21487      Ob       1     SIL   O03ny       1     -1.05    15.999
   21488      Ob       1     SIL   O03nz       1     -1.05    15.999
   21489      Ob       1     SIL   O03o0       1     -1.05    15.999
   21490      Ob       1     SIL   O03o1       1     -1.05    15.999
   21491      Ob       1     SIL   O03o2       1     -1.05    15.999
   21492      Si       1     SIL   Si1u2       1       2.1    28.086
   21493      Si       1     SIL   Si1u3       1       2.1    28.086
   21494      Si       1     SIL   Si1u4       1       2.1    28.086
   21495      Ob       1     SIL   O03o3       1     -1.05    15.999
   21496      Ob       1     SIL   O03o4       1     -1.05    15.999
   21497      Ob       1     SIL   O03o5       1     -1.05    15.999
   21498      Ob       1     SIL   O03o6       1     -1.05    15.999
   21499      Ob       1     SIL   O03o7       1     -1.05    15.999
   21500      Ob       1     SIL   O03o8       1     -1.05    15.999
   21501      Si       1     SIL   Si1u5       1       2.1    28.086
   21502      Si       1     SIL   Si1u6       1       2.1    28.086
   21503      Si       1     SIL   Si1u7       1       2.1    28.086
   21504      Ob       1     SIL   O03o9       1     -1.05    15.999
   21505      Ob       1     SIL   O03oA       1     -1.05    15.999
   21506      Ob       1     SIL   O03oB       1     -1.05    15.999
   21507      Ob       1     SIL   O03oC       1     -1.05    15.999
   21508      Ob       1     SIL   O03oD       1     -1.05    15.999
   21509      Ob       1     SIL   O03oE       1     -1.05    15.999
   21510      Si       1     SIL   Si1u8       1       2.1    28.086
   21511      Si       1     SIL   Si1u9       1       2.1    28.086
   21512      Si       1     SIL   Si1uA       1       2.1    28.086
   21513      Ob       1     SIL   O03oF       1     -1.05    15.999
   21514      Ob       1     SIL   O03oG       1     -1.05    15.999
   21515      Ob       1     SIL   O03oH       1     -1.05    15.999
   21516      Ob       1     SIL   O03oI       1     -1.05    15.999
   21517      Ob       1     SIL   O03oJ       1     -1.05    15.999
   21518      Ob       1     SIL   O03oK       1     -1.05    15.999
   21519      Si       1     SIL   Si1uB       1       2.1    28.086
   21520      Si       1     SIL   Si1uC       1       2.1    28.086
   21521      Si       1     SIL   Si1uD       1       2.1    28.086
   21522      Ob       1     SIL   O03oL       1     -1.05    15.999
   21523      Ob       1     SIL   O03oM       1     -1.05    15.999
   21524      Ob       1     SIL   O03oN       1     -1.05    15.999
   21525      Ob       1     SIL   O03oO       1     -1.05    15.999
   21526      Ob       1     SIL   O03oP       1     -1.05    15.999
   21527      Ob       1     SIL   O03oQ       1     -1.05    15.999
   21528      Si       1     SIL   Si1uE       1       2.1    28.086
   21529      Si       1     SIL   Si1uF       1       2.1    28.086
   21530      Si       1     SIL   Si1uG       1       2.1    28.086
   21531      Ob       1     SIL   O03oR       1     -1.05    15.999
   21532      Ob       1     SIL   O03oS       1     -1.05    15.999
   21533      Ob       1     SIL   O03oT       1     -1.05    15.999
   21534      Ob       1     SIL   O03oU       1     -1.05    15.999
   21535      Ob       1     SIL   O03oV       1     -1.05    15.999
   21536      Ob       1     SIL   O03oW       1     -1.05    15.999
   21537      Si       1     SIL   Si1uH       1       2.1    28.086
   21538      Si       1     SIL   Si1uI       1       2.1    28.086
   21539      Si       1     SIL   Si1uJ       1       2.1    28.086
   21540      Ob       1     SIL   O03oX       1     -1.05    15.999
   21541      Ob       1     SIL   O03oY       1     -1.05    15.999
   21542      Ob       1     SIL   O03oZ       1     -1.05    15.999
   21543      Ob       1     SIL   O03oa       1     -1.05    15.999
   21544      Ob       1     SIL   O03ob       1     -1.05    15.999
   21545      Ob       1     SIL   O03oc       1     -1.05    15.999
   21546      Si       1     SIL   Si1uK       1       2.1    28.086
   21547      Si       1     SIL   Si1uL       1       2.1    28.086
   21548      Si       1     SIL   Si1uM       1       2.1    28.086
   21549      Ob       1     SIL   O03od       1     -1.05    15.999
   21550      Ob       1     SIL   O03oe       1     -1.05    15.999
   21551      Ob       1     SIL   O03of       1     -1.05    15.999
   21552      Ob       1     SIL   O03og       1     -1.05    15.999
   21553      Ob       1     SIL   O03oh       1     -1.05    15.999
   21554      Ob       1     SIL   O03oi       1     -1.05    15.999
   21555      Si       1     SIL   Si1uN       1       2.1    28.086
   21556      Si       1     SIL   Si1uO       1       2.1    28.086
   21557      Si       1     SIL   Si1uP       1       2.1    28.086
   21558      Ob       1     SIL   O03oj       1     -1.05    15.999
   21559      Ob       1     SIL   O03ok       1     -1.05    15.999
   21560      Ob       1     SIL   O03ol       1     -1.05    15.999
   21561      Ob       1     SIL   O03om       1     -1.05    15.999
   21562      Ob       1     SIL   O03on       1     -1.05    15.999
   21563      Ob       1     SIL   O03oo       1     -1.05    15.999
   21564      Si       1     SIL   Si1uQ       1       2.1    28.086
   21565      Si       1     SIL   Si1uR       1       2.1    28.086
   21566      Si       1     SIL   Si1uS       1       2.1    28.086
   21567      Ob       1     SIL   O03op       1     -1.05    15.999
   21568      Ob       1     SIL   O03oq       1     -1.05    15.999
   21569      Ob       1     SIL   O03or       1     -1.05    15.999
   21570      Ob       1     SIL   O03os       1     -1.05    15.999
   21571      Ob       1     SIL   O03ot       1     -1.05    15.999
   21572      Ob       1     SIL   O03ou       1     -1.05    15.999
   21573      Si       1     SIL   Si1uT       1       2.1    28.086
   21574      Si       1     SIL   Si1uU       1       2.1    28.086
   21575      Si       1     SIL   Si1uV       1       2.1    28.086
   21576      Ob       1     SIL   O03ov       1     -1.05    15.999
   21577      Ob       1     SIL   O03ow       1     -1.05    15.999
   21578      Ob       1     SIL   O03ox       1     -1.05    15.999
   21579      Ob       1     SIL   O03oy       1     -1.05    15.999
   21580      Ob       1     SIL   O03oz       1     -1.05    15.999
   21581      Ob       1     SIL   O03p0       1     -1.05    15.999
   21582      Si       1     SIL   Si1uW       1       2.1    28.086
   21583      Si       1     SIL   Si1uX       1       2.1    28.086
   21584      Si       1     SIL   Si1uY       1       2.1    28.086
   21585      Ob       1     SIL   O03p1       1     -1.05    15.999
   21586      Ob       1     SIL   O03p2       1     -1.05    15.999
   21587      Ob       1     SIL   O03p3       1     -1.05    15.999
   21588      Ob       1     SIL   O03p4       1     -1.05    15.999
   21589      Ob       1     SIL   O03p5       1     -1.05    15.999
   21590      Ob       1     SIL   O03p6       1     -1.05    15.999
   21591      Si       1     SIL   Si1uZ       1       2.1    28.086
   21592      Si       1     SIL   Si1ua       1       2.1    28.086
   21593      Si       1     SIL   Si1ub       1       2.1    28.086
   21594      Ob       1     SIL   O03p7       1     -1.05    15.999
   21595      Ob       1     SIL   O03p8       1     -1.05    15.999
   21596      Ob       1     SIL   O03p9       1     -1.05    15.999
   21597      Ob       1     SIL   O03pA       1     -1.05    15.999
   21598      Ob       1     SIL   O03pB       1     -1.05    15.999
   21599      Ob       1     SIL   O03pC       1     -1.05    15.999
   21600      Si       1     SIL   Si1uc       1       2.1    28.086
   21601      Si       1     SIL   Si1ud       1       2.1    28.086
   21602      Si       1     SIL   Si1ue       1       2.1    28.086
   21603      Ob       1     SIL   O03pD       1     -1.05    15.999
   21604      Ob       1     SIL   O03pE       1     -1.05    15.999
   21605      Ob       1     SIL   O03pF       1     -1.05    15.999
   21606      Ob       1     SIL   O03pG       1     -1.05    15.999
   21607      Ob       1     SIL   O03pH       1     -1.05    15.999
   21608      Ob       1     SIL   O03pI       1     -1.05    15.999
   21609      Si       1     SIL   Si1uf       1       2.1    28.086
   21610      Si       1     SIL   Si1ug       1       2.1    28.086
   21611      Si       1     SIL   Si1uh       1       2.1    28.086
   21612      Ob       1     SIL   O03pJ       1     -1.05    15.999
   21613      Ob       1     SIL   O03pK       1     -1.05    15.999
   21614      Ob       1     SIL   O03pL       1     -1.05    15.999
   21615      Ob       1     SIL   O03pM       1     -1.05    15.999
   21616      Ob       1     SIL   O03pN       1     -1.05    15.999
   21617      Ob       1     SIL   O03pO       1     -1.05    15.999
   21618      Si       1     SIL   Si1ui       1       2.1    28.086
   21619      Si       1     SIL   Si1uj       1       2.1    28.086
   21620      Si       1     SIL   Si1uk       1       2.1    28.086
   21621      Ob       1     SIL   O03pP       1     -1.05    15.999
   21622      Ob       1     SIL   O03pQ       1     -1.05    15.999
   21623      Ob       1     SIL   O03pR       1     -1.05    15.999
   21624      Ob       1     SIL   O03pS       1     -1.05    15.999
   21625      Ob       1     SIL   O03pT       1     -1.05    15.999
   21626      Ob       1     SIL   O03pU       1     -1.05    15.999
   21627      Si       1     SIL   Si1ul       1       2.1    28.086
   21628      Si       1     SIL   Si1um       1       2.1    28.086
   21629      Si       1     SIL   Si1un       1       2.1    28.086
   21630      Ob       1     SIL   O03pV       1     -1.05    15.999
   21631      Ob       1     SIL   O03pW       1     -1.05    15.999
   21632      Ob       1     SIL   O03pX       1     -1.05    15.999
   21633      Ob       1     SIL   O03pY       1     -1.05    15.999
   21634      Ob       1     SIL   O03pZ       1     -1.05    15.999
   21635      Ob       1     SIL   O03pa       1     -1.05    15.999
   21636      Si       1     SIL   Si1uo       1       2.1    28.086
   21637      Si       1     SIL   Si1up       1       2.1    28.086
   21638      Si       1     SIL   Si1uq       1       2.1    28.086
   21639      Ob       1     SIL   O03pb       1     -1.05    15.999
   21640      Ob       1     SIL   O03pc       1     -1.05    15.999
   21641      Ob       1     SIL   O03pd       1     -1.05    15.999
   21642      Ob       1     SIL   O03pe       1     -1.05    15.999
   21643      Ob       1     SIL   O03pf       1     -1.05    15.999
   21644      Ob       1     SIL   O03pg       1     -1.05    15.999
   21645      Si       1     SIL   Si1ur       1       2.1    28.086
   21646      Si       1     SIL   Si1us       1       2.1    28.086
   21647      Si       1     SIL   Si1ut       1       2.1    28.086
   21648      Ob       1     SIL   O03ph       1     -1.05    15.999
   21649      Ob       1     SIL   O03pi       1     -1.05    15.999
   21650      Ob       1     SIL   O03pj       1     -1.05    15.999
   21651      Ob       1     SIL   O03pk       1     -1.05    15.999
   21652      Ob       1     SIL   O03pl       1     -1.05    15.999
   21653      Ob       1     SIL   O03pm       1     -1.05    15.999
   21654      Si       1     SIL   Si1uu       1       2.1    28.086
   21655      Si       1     SIL   Si1uv       1       2.1    28.086
   21656      Si       1     SIL   Si1uw       1       2.1    28.086
   21657      Ob       1     SIL   O03pn       1     -1.05    15.999
   21658      Ob       1     SIL   O03po       1     -1.05    15.999
   21659      Ob       1     SIL   O03pp       1     -1.05    15.999
   21660      Ob       1     SIL   O03pq       1     -1.05    15.999
   21661      Ob       1     SIL   O03pr       1     -1.05    15.999
   21662      Ob       1     SIL   O03ps       1     -1.05    15.999
   21663      Si       1     SIL   Si1ux       1       2.1    28.086
   21664      Si       1     SIL   Si1uy       1       2.1    28.086
   21665      Si       1     SIL   Si1uz       1       2.1    28.086
   21666      Ob       1     SIL   O03pt       1     -1.05    15.999
   21667      Ob       1     SIL   O03pu       1     -1.05    15.999
   21668      Ob       1     SIL   O03pv       1     -1.05    15.999
   21669      Ob       1     SIL   O03pw       1     -1.05    15.999
   21670      Ob       1     SIL   O03px       1     -1.05    15.999
   21671      Ob       1     SIL   O03py       1     -1.05    15.999
   21672      Si       1     SIL   Si1v0       1       2.1    28.086
   21673      Si       1     SIL   Si1v1       1       2.1    28.086
   21674      Si       1     SIL   Si1v2       1       2.1    28.086
   21675      Ob       1     SIL   O03pz       1     -1.05    15.999
   21676      Ob       1     SIL   O03q0       1     -1.05    15.999
   21677      Ob       1     SIL   O03q1       1     -1.05    15.999
   21678      Ob       1     SIL   O03q2       1     -1.05    15.999
   21679      Ob       1     SIL   O03q3       1     -1.05    15.999
   21680      Ob       1     SIL   O03q4       1     -1.05    15.999
   21681      Si       1     SIL   Si1v3       1       2.1    28.086
   21682      Si       1     SIL   Si1v4       1       2.1    28.086
   21683      Si       1     SIL   Si1v5       1       2.1    28.086
   21684      Ob       1     SIL   O03q5       1     -1.05    15.999
   21685       O       1     SIL   O03q6       1    -0.525    15.999
   21686       O       1     SIL   O03q7       1    -0.525    15.999
   21687      Ob       1     SIL   O03q8       1     -1.05    15.999
   21688      Ob       1     SIL   O03q9       1     -1.05    15.999
   21689      Ob       1     SIL   O03qA       1     -1.05    15.999
   21690      Si       1     SIL   Si1v6       1       2.1    28.086
   21691      Si       1     SIL   Si1v7       1       2.1    28.086
   21692      Si       1     SIL   Si1v8       1       2.1    28.086
   21693      Ob       1     SIL   O03qB       1     -1.05    15.999
   21694      Ob       1     SIL   O03qC       1     -1.05    15.999
   21695      Ob       1     SIL   O03qD       1     -1.05    15.999
   21696      Ob       1     SIL   O03qE       1     -1.05    15.999
   21697      Ob       1     SIL   O03qF       1     -1.05    15.999
   21698      Ob       1     SIL   O03qG       1     -1.05    15.999
   21699      Si       1     SIL   Si1v9       1       2.1    28.086
   21700      Si       1     SIL   Si1vA       1       2.1    28.086
   21701      Si       1     SIL   Si1vB       1       2.1    28.086
   21702      Ob       1     SIL   O03qH       1     -1.05    15.999
   21703      Ob       1     SIL   O03qI       1     -1.05    15.999
   21704      Ob       1     SIL   O03qJ       1     -1.05    15.999
   21705      Ob       1     SIL   O03qK       1     -1.05    15.999
   21706      Ob       1     SIL   O03qL       1     -1.05    15.999
   21707      Ob       1     SIL   O03qM       1     -1.05    15.999
   21708      Si       1     SIL   Si1vC       1       2.1    28.086
   21709      Si       1     SIL   Si1vD       1       2.1    28.086
   21710      Si       1     SIL   Si1vE       1       2.1    28.086
   21711      Ob       1     SIL   O03qN       1     -1.05    15.999
   21712      Ob       1     SIL   O03qO       1     -1.05    15.999
   21713      Ob       1     SIL   O03qP       1     -1.05    15.999
   21714      Ob       1     SIL   O03qQ       1     -1.05    15.999
   21715      Ob       1     SIL   O03qR       1     -1.05    15.999
   21716      Ob       1     SIL   O03qS       1     -1.05    15.999
   21717      Si       1     SIL   Si1vF       1       2.1    28.086
   21718      Si       1     SIL   Si1vG       1       2.1    28.086
   21719      Si       1     SIL   Si1vH       1       2.1    28.086
   21720      Ob       1     SIL   O03qT       1     -1.05    15.999
   21721      Ob       1     SIL   O03qU       1     -1.05    15.999
   21722      Ob       1     SIL   O03qV       1     -1.05    15.999
   21723      Ob       1     SIL   O03qW       1     -1.05    15.999
   21724      Ob       1     SIL   O03qX       1     -1.05    15.999
   21725      Ob       1     SIL   O03qY       1     -1.05    15.999
   21726      Si       1     SIL   Si1vI       1       2.1    28.086
   21727      Si       1     SIL   Si1vJ       1       2.1    28.086
   21728      Si       1     SIL   Si1vK       1       2.1    28.086
   21729      Ob       1     SIL   O03qZ       1     -1.05    15.999
   21730      Ob       1     SIL   O03qa       1     -1.05    15.999
   21731      Ob       1     SIL   O03qb       1     -1.05    15.999
   21732      Ob       1     SIL   O03qc       1     -1.05    15.999
   21733      Ob       1     SIL   O03qd       1     -1.05    15.999
   21734      Ob       1     SIL   O03qe       1     -1.05    15.999
   21735      Si       1     SIL   Si1vL       1       2.1    28.086
   21736      Si       1     SIL   Si1vM       1       2.1    28.086
   21737      Si       1     SIL   Si1vN       1       2.1    28.086
   21738      Ob       1     SIL   O03qf       1     -1.05    15.999
   21739      Ob       1     SIL   O03qg       1     -1.05    15.999
   21740      Ob       1     SIL   O03qh       1     -1.05    15.999
   21741      Ob       1     SIL   O03qi       1     -1.05    15.999
   21742      Ob       1     SIL   O03qj       1     -1.05    15.999
   21743      Ob       1     SIL   O03qk       1     -1.05    15.999
   21744      Si       1     SIL   Si1vO       1       2.1    28.086
   21745      Si       1     SIL   Si1vP       1       2.1    28.086
   21746      Si       1     SIL   Si1vQ       1       2.1    28.086
   21747      Ob       1     SIL   O03ql       1     -1.05    15.999
   21748      Ob       1     SIL   O03qm       1     -1.05    15.999
   21749      Ob       1     SIL   O03qn       1     -1.05    15.999
   21750      Ob       1     SIL   O03qo       1     -1.05    15.999
   21751      Ob       1     SIL   O03qp       1     -1.05    15.999
   21752      Ob       1     SIL   O03qq       1     -1.05    15.999
   21753      Si       1     SIL   Si1vR       1       2.1    28.086
   21754      Si       1     SIL   Si1vS       1       2.1    28.086
   21755      Si       1     SIL   Si1vT       1       2.1    28.086
   21756      Ob       1     SIL   O03qr       1     -1.05    15.999
   21757      Ob       1     SIL   O03qs       1     -1.05    15.999
   21758      Ob       1     SIL   O03qt       1     -1.05    15.999
   21759      Ob       1     SIL   O03qu       1     -1.05    15.999
   21760      Ob       1     SIL   O03qv       1     -1.05    15.999
   21761      Ob       1     SIL   O03qw       1     -1.05    15.999
   21762      Si       1     SIL   Si1vU       1       2.1    28.086
   21763      Si       1     SIL   Si1vV       1       2.1    28.086
   21764      Si       1     SIL   Si1vW       1       2.1    28.086
   21765      Ob       1     SIL   O03qx       1     -1.05    15.999
   21766      Ob       1     SIL   O03qy       1     -1.05    15.999
   21767      Ob       1     SIL   O03qz       1     -1.05    15.999
   21768      Ob       1     SIL   O03r0       1     -1.05    15.999
   21769      Ob       1     SIL   O03r1       1     -1.05    15.999
   21770      Ob       1     SIL   O03r2       1     -1.05    15.999
   21771      Si       1     SIL   Si1vX       1       2.1    28.086
   21772      Si       1     SIL   Si1vY       1       2.1    28.086
   21773      Si       1     SIL   Si1vZ       1       2.1    28.086
   21774      Ob       1     SIL   O03r3       1     -1.05    15.999
   21775      Ob       1     SIL   O03r4       1     -1.05    15.999
   21776      Ob       1     SIL   O03r5       1     -1.05    15.999
   21777      Ob       1     SIL   O03r6       1     -1.05    15.999
   21778      Ob       1     SIL   O03r7       1     -1.05    15.999
   21779      Ob       1     SIL   O03r8       1     -1.05    15.999
   21780      Si       1     SIL   Si1va       1       2.1    28.086
   21781      Si       1     SIL   Si1vb       1       2.1    28.086
   21782      Si       1     SIL   Si1vc       1       2.1    28.086
   21783      Ob       1     SIL   O03r9       1     -1.05    15.999
   21784      Ob       1     SIL   O03rA       1     -1.05    15.999
   21785      Ob       1     SIL   O03rB       1     -1.05    15.999
   21786      Ob       1     SIL   O03rC       1     -1.05    15.999
   21787      Ob       1     SIL   O03rD       1     -1.05    15.999
   21788      Ob       1     SIL   O03rE       1     -1.05    15.999
   21789      Si       1     SIL   Si1vd       1       2.1    28.086
   21790      Si       1     SIL   Si1ve       1       2.1    28.086
   21791      Si       1     SIL   Si1vf       1       2.1    28.086
   21792      Ob       1     SIL   O03rF       1     -1.05    15.999
   21793      Ob       1     SIL   O03rG       1     -1.05    15.999
   21794      Ob       1     SIL   O03rH       1     -1.05    15.999
   21795      Ob       1     SIL   O03rI       1     -1.05    15.999
   21796      Ob       1     SIL   O03rJ       1     -1.05    15.999
   21797      Ob       1     SIL   O03rK       1     -1.05    15.999
   21798      Si       1     SIL   Si1vg       1       2.1    28.086
   21799      Si       1     SIL   Si1vh       1       2.1    28.086
   21800      Si       1     SIL   Si1vi       1       2.1    28.086
   21801      Ob       1     SIL   O03rL       1     -1.05    15.999
   21802      Ob       1     SIL   O03rM       1     -1.05    15.999
   21803      Ob       1     SIL   O03rN       1     -1.05    15.999
   21804      Ob       1     SIL   O03rO       1     -1.05    15.999
   21805      Ob       1     SIL   O03rP       1     -1.05    15.999
   21806      Ob       1     SIL   O03rQ       1     -1.05    15.999
   21807      Si       1     SIL   Si1vj       1       2.1    28.086
   21808      Si       1     SIL   Si1vk       1       2.1    28.086
   21809      Si       1     SIL   Si1vl       1       2.1    28.086
   21810      Ob       1     SIL   O03rR       1     -1.05    15.999
   21811      Ob       1     SIL   O03rS       1     -1.05    15.999
   21812      Ob       1     SIL   O03rT       1     -1.05    15.999
   21813      Ob       1     SIL   O03rU       1     -1.05    15.999
   21814      Ob       1     SIL   O03rV       1     -1.05    15.999
   21815      Ob       1     SIL   O03rW       1     -1.05    15.999
   21816      Si       1     SIL   Si1vm       1       2.1    28.086
   21817      Si       1     SIL   Si1vn       1       2.1    28.086
   21818      Si       1     SIL   Si1vo       1       2.1    28.086
   21819      Ob       1     SIL   O03rX       1     -1.05    15.999
   21820      Ob       1     SIL   O03rY       1     -1.05    15.999
   21821      Ob       1     SIL   O03rZ       1     -1.05    15.999
   21822      Ob       1     SIL   O03ra       1     -1.05    15.999
   21823      Ob       1     SIL   O03rb       1     -1.05    15.999
   21824      Ob       1     SIL   O03rc       1     -1.05    15.999
   21825      Si       1     SIL   Si1vp       1       2.1    28.086
   21826      Si       1     SIL   Si1vq       1       2.1    28.086
   21827      Si       1     SIL   Si1vr       1       2.1    28.086
   21828      Ob       1     SIL   O03rd       1     -1.05    15.999
   21829      Ob       1     SIL   O03re       1     -1.05    15.999
   21830      Ob       1     SIL   O03rf       1     -1.05    15.999
   21831      Ob       1     SIL   O03rg       1     -1.05    15.999
   21832      Ob       1     SIL   O03rh       1     -1.05    15.999
   21833      Ob       1     SIL   O03ri       1     -1.05    15.999
   21834      Si       1     SIL   Si1vs       1       2.1    28.086
   21835      Si       1     SIL   Si1vt       1       2.1    28.086
   21836      Si       1     SIL   Si1vu       1       2.1    28.086
   21837      Ob       1     SIL   O03rj       1     -1.05    15.999
   21838      Ob       1     SIL   O03rk       1     -1.05    15.999
   21839      Ob       1     SIL   O03rl       1     -1.05    15.999
   21840      Ob       1     SIL   O03rm       1     -1.05    15.999
   21841      Ob       1     SIL   O03rn       1     -1.05    15.999
   21842      Ob       1     SIL   O03ro       1     -1.05    15.999
   21843      Si       1     SIL   Si1vv       1       2.1    28.086
   21844      Si       1     SIL   Si1vw       1       2.1    28.086
   21845      Si       1     SIL   Si1vx       1       2.1    28.086
   21846      Ob       1     SIL   O03rp       1     -1.05    15.999
   21847      Ob       1     SIL   O03rq       1     -1.05    15.999
   21848      Ob       1     SIL   O03rr       1     -1.05    15.999
   21849      Ob       1     SIL   O03rs       1     -1.05    15.999
   21850      Ob       1     SIL   O03rt       1     -1.05    15.999
   21851      Ob       1     SIL   O03ru       1     -1.05    15.999
   21852      Si       1     SIL   Si1vy       1       2.1    28.086
   21853      Si       1     SIL   Si1vz       1       2.1    28.086
   21854      Si       1     SIL   Si1w0       1       2.1    28.086
   21855      Ob       1     SIL   O03rv       1     -1.05    15.999
   21856      Ob       1     SIL   O03rw       1     -1.05    15.999
   21857      Ob       1     SIL   O03rx       1     -1.05    15.999
   21858      Ob       1     SIL   O03ry       1     -1.05    15.999
   21859      Ob       1     SIL   O03rz       1     -1.05    15.999
   21860      Ob       1     SIL   O03s0       1     -1.05    15.999
   21861      Si       1     SIL   Si1w1       1       2.1    28.086
   21862      Si       1     SIL   Si1w2       1       2.1    28.086
   21863      Si       1     SIL   Si1w3       1       2.1    28.086
   21864      Ob       1     SIL   O03s1       1     -1.05    15.999
   21865      Ob       1     SIL   O03s2       1     -1.05    15.999
   21866      Ob       1     SIL   O03s3       1     -1.05    15.999
   21867      Ob       1     SIL   O03s4       1     -1.05    15.999
   21868      Ob       1     SIL   O03s5       1     -1.05    15.999
   21869      Ob       1     SIL   O03s6       1     -1.05    15.999
   21870      Si       1     SIL   Si1w4       1       2.1    28.086
   21871      Si       1     SIL   Si1w5       1       2.1    28.086
   21872      Si       1     SIL   Si1w6       1       2.1    28.086
   21873      Ob       1     SIL   O03s7       1     -1.05    15.999
   21874      Ob       1     SIL   O03s8       1     -1.05    15.999
   21875      Ob       1     SIL   O03s9       1     -1.05    15.999
   21876      Ob       1     SIL   O03sA       1     -1.05    15.999
   21877      Ob       1     SIL   O03sB       1     -1.05    15.999
   21878      Ob       1     SIL   O03sC       1     -1.05    15.999
   21879      Si       1     SIL   Si1w7       1       2.1    28.086
   21880      Si       1     SIL   Si1w8       1       2.1    28.086
   21881      Si       1     SIL   Si1w9       1       2.1    28.086
   21882      Ob       1     SIL   O03sD       1     -1.05    15.999
   21883      Ob       1     SIL   O03sE       1     -1.05    15.999
   21884      Ob       1     SIL   O03sF       1     -1.05    15.999
   21885      Ob       1     SIL   O03sG       1     -1.05    15.999
   21886      Ob       1     SIL   O03sH       1     -1.05    15.999
   21887      Ob       1     SIL   O03sI       1     -1.05    15.999
   21888      Si       1     SIL   Si1wA       1       2.1    28.086
   21889      Si       1     SIL   Si1wB       1       2.1    28.086
   21890      Si       1     SIL   Si1wC       1       2.1    28.086
   21891      Ob       1     SIL   O03sJ       1     -1.05    15.999
   21892       O       1     SIL   O03sK       1    -0.525    15.999
   21893       O       1     SIL   O03sL       1    -0.525    15.999
   21894      Ob       1     SIL   O03sM       1     -1.05    15.999
   21895      Ob       1     SIL   O03sN       1     -1.05    15.999
   21896      Ob       1     SIL   O03sO       1     -1.05    15.999
   21897      Si       1     SIL   Si1wD       1       2.1    28.086
   21898      Si       1     SIL   Si1wE       1       2.1    28.086
   21899      Si       1     SIL   Si1wF       1       2.1    28.086
   21900      Ob       1     SIL   O03sP       1     -1.05    15.999
   21901      Ob       1     SIL   O03sQ       1     -1.05    15.999
   21902      Ob       1     SIL   O03sR       1     -1.05    15.999
   21903      Ob       1     SIL   O03sS       1     -1.05    15.999
   21904      Ob       1     SIL   O03sT       1     -1.05    15.999
   21905      Ob       1     SIL   O03sU       1     -1.05    15.999
   21906      Si       1     SIL   Si1wG       1       2.1    28.086
   21907      Si       1     SIL   Si1wH       1       2.1    28.086
   21908      Si       1     SIL   Si1wI       1       2.1    28.086
   21909      Ob       1     SIL   O03sV       1     -1.05    15.999
   21910      Ob       1     SIL   O03sW       1     -1.05    15.999
   21911      Ob       1     SIL   O03sX       1     -1.05    15.999
   21912      Ob       1     SIL   O03sY       1     -1.05    15.999
   21913      Ob       1     SIL   O03sZ       1     -1.05    15.999
   21914      Ob       1     SIL   O03sa       1     -1.05    15.999
   21915      Si       1     SIL   Si1wJ       1       2.1    28.086
   21916      Si       1     SIL   Si1wK       1       2.1    28.086
   21917      Si       1     SIL   Si1wL       1       2.1    28.086
   21918      Ob       1     SIL   O03sb       1     -1.05    15.999
   21919      Ob       1     SIL   O03sc       1     -1.05    15.999
   21920      Ob       1     SIL   O03sd       1     -1.05    15.999
   21921      Ob       1     SIL   O03se       1     -1.05    15.999
   21922      Ob       1     SIL   O03sf       1     -1.05    15.999
   21923      Ob       1     SIL   O03sg       1     -1.05    15.999
   21924      Si       1     SIL   Si1wM       1       2.1    28.086
   21925      Si       1     SIL   Si1wN       1       2.1    28.086
   21926      Si       1     SIL   Si1wO       1       2.1    28.086
   21927      Ob       1     SIL   O03sh       1     -1.05    15.999
   21928      Ob       1     SIL   O03si       1     -1.05    15.999
   21929      Ob       1     SIL   O03sj       1     -1.05    15.999
   21930      Ob       1     SIL   O03sk       1     -1.05    15.999
   21931      Ob       1     SIL   O03sl       1     -1.05    15.999
   21932      Ob       1     SIL   O03sm       1     -1.05    15.999
   21933      Si       1     SIL   Si1wP       1       2.1    28.086
   21934      Si       1     SIL   Si1wQ       1       2.1    28.086
   21935      Si       1     SIL   Si1wR       1       2.1    28.086
   21936      Ob       1     SIL   O03sn       1     -1.05    15.999
   21937      Ob       1     SIL   O03so       1     -1.05    15.999
   21938      Ob       1     SIL   O03sp       1     -1.05    15.999
   21939      Ob       1     SIL   O03sq       1     -1.05    15.999
   21940      Ob       1     SIL   O03sr       1     -1.05    15.999
   21941      Ob       1     SIL   O03ss       1     -1.05    15.999
   21942      Si       1     SIL   Si1wS       1       2.1    28.086
   21943      Si       1     SIL   Si1wT       1       2.1    28.086
   21944      Si       1     SIL   Si1wU       1       2.1    28.086
   21945      Ob       1     SIL   O03st       1     -1.05    15.999
   21946      Ob       1     SIL   O03su       1     -1.05    15.999
   21947      Ob       1     SIL   O03sv       1     -1.05    15.999
   21948      Ob       1     SIL   O03sw       1     -1.05    15.999
   21949      Ob       1     SIL   O03sx       1     -1.05    15.999
   21950      Ob       1     SIL   O03sy       1     -1.05    15.999
   21951      Si       1     SIL   Si1wV       1       2.1    28.086
   21952      Si       1     SIL   Si1wW       1       2.1    28.086
   21953      Si       1     SIL   Si1wX       1       2.1    28.086
   21954      Ob       1     SIL   O03sz       1     -1.05    15.999
   21955      Ob       1     SIL   O03t0       1     -1.05    15.999
   21956      Ob       1     SIL   O03t1       1     -1.05    15.999
   21957      Ob       1     SIL   O03t2       1     -1.05    15.999
   21958      Ob       1     SIL   O03t3       1     -1.05    15.999
   21959      Ob       1     SIL   O03t4       1     -1.05    15.999
   21960      Si       1     SIL   Si1wY       1       2.1    28.086
   21961      Si       1     SIL   Si1wZ       1       2.1    28.086
   21962      Si       1     SIL   Si1wa       1       2.1    28.086
   21963      Ob       1     SIL   O03t5       1     -1.05    15.999
   21964      Ob       1     SIL   O03t6       1     -1.05    15.999
   21965      Ob       1     SIL   O03t7       1     -1.05    15.999
   21966      Ob       1     SIL   O03t8       1     -1.05    15.999
   21967      Ob       1     SIL   O03t9       1     -1.05    15.999
   21968      Ob       1     SIL   O03tA       1     -1.05    15.999
   21969      Si       1     SIL   Si1wb       1       2.1    28.086
   21970      Si       1     SIL   Si1wc       1       2.1    28.086
   21971      Si       1     SIL   Si1wd       1       2.1    28.086
   21972      Ob       1     SIL   O03tB       1     -1.05    15.999
   21973      Ob       1     SIL   O03tC       1     -1.05    15.999
   21974      Ob       1     SIL   O03tD       1     -1.05    15.999
   21975      Ob       1     SIL   O03tE       1     -1.05    15.999
   21976      Ob       1     SIL   O03tF       1     -1.05    15.999
   21977      Ob       1     SIL   O03tG       1     -1.05    15.999
   21978      Si       1     SIL   Si1we       1       2.1    28.086
   21979      Si       1     SIL   Si1wf       1       2.1    28.086
   21980      Si       1     SIL   Si1wg       1       2.1    28.086
   21981      Ob       1     SIL   O03tH       1     -1.05    15.999
   21982      Ob       1     SIL   O03tI       1     -1.05    15.999
   21983      Ob       1     SIL   O03tJ       1     -1.05    15.999
   21984      Ob       1     SIL   O03tK       1     -1.05    15.999
   21985      Ob       1     SIL   O03tL       1     -1.05    15.999
   21986      Ob       1     SIL   O03tM       1     -1.05    15.999
   21987      Si       1     SIL   Si1wh       1       2.1    28.086
   21988      Si       1     SIL   Si1wi       1       2.1    28.086
   21989      Si       1     SIL   Si1wj       1       2.1    28.086
   21990      Ob       1     SIL   O03tN       1     -1.05    15.999
   21991      Ob       1     SIL   O03tO       1     -1.05    15.999
   21992      Ob       1     SIL   O03tP       1     -1.05    15.999
   21993      Ob       1     SIL   O03tQ       1     -1.05    15.999
   21994      Ob       1     SIL   O03tR       1     -1.05    15.999
   21995      Ob       1     SIL   O03tS       1     -1.05    15.999
   21996      Si       1     SIL   Si1wk       1       2.1    28.086
   21997      Si       1     SIL   Si1wl       1       2.1    28.086
   21998      Si       1     SIL   Si1wm       1       2.1    28.086
   21999      Ob       1     SIL   O03tT       1     -1.05    15.999
   22000      Ob       1     SIL   O03tU       1     -1.05    15.999
   22001      Ob       1     SIL   O03tV       1     -1.05    15.999
   22002      Ob       1     SIL   O03tW       1     -1.05    15.999
   22003      Ob       1     SIL   O03tX       1     -1.05    15.999
   22004      Ob       1     SIL   O03tY       1     -1.05    15.999
   22005      Si       1     SIL   Si1wn       1       2.1    28.086
   22006      Si       1     SIL   Si1wo       1       2.1    28.086
   22007      Si       1     SIL   Si1wp       1       2.1    28.086
   22008      Ob       1     SIL   O03tZ       1     -1.05    15.999
   22009      Ob       1     SIL   O03ta       1     -1.05    15.999
   22010      Ob       1     SIL   O03tb       1     -1.05    15.999
   22011      Ob       1     SIL   O03tc       1     -1.05    15.999
   22012      Ob       1     SIL   O03td       1     -1.05    15.999
   22013      Ob       1     SIL   O03te       1     -1.05    15.999
   22014      Si       1     SIL   Si1wq       1       2.1    28.086
   22015      Si       1     SIL   Si1wr       1       2.1    28.086
   22016      Si       1     SIL   Si1ws       1       2.1    28.086
   22017      Ob       1     SIL   O03tf       1     -1.05    15.999
   22018      Ob       1     SIL   O03tg       1     -1.05    15.999
   22019      Ob       1     SIL   O03th       1     -1.05    15.999
   22020      Ob       1     SIL   O03ti       1     -1.05    15.999
   22021      Ob       1     SIL   O03tj       1     -1.05    15.999
   22022      Ob       1     SIL   O03tk       1     -1.05    15.999
   22023      Si       1     SIL   Si1wt       1       2.1    28.086
   22024      Si       1     SIL   Si1wu       1       2.1    28.086
   22025      Si       1     SIL   Si1wv       1       2.1    28.086
   22026      Ob       1     SIL   O03tl       1     -1.05    15.999
   22027      Ob       1     SIL   O03tm       1     -1.05    15.999
   22028      Ob       1     SIL   O03tn       1     -1.05    15.999
   22029      Ob       1     SIL   O03to       1     -1.05    15.999
   22030      Ob       1     SIL   O03tp       1     -1.05    15.999
   22031      Ob       1     SIL   O03tq       1     -1.05    15.999
   22032      Si       1     SIL   Si1ww       1       2.1    28.086
   22033      Si       1     SIL   Si1wx       1       2.1    28.086
   22034      Si       1     SIL   Si1wy       1       2.1    28.086
   22035      Ob       1     SIL   O03tr       1     -1.05    15.999
   22036      Ob       1     SIL   O03ts       1     -1.05    15.999
   22037      Ob       1     SIL   O03tt       1     -1.05    15.999
   22038      Ob       1     SIL   O03tu       1     -1.05    15.999
   22039      Ob       1     SIL   O03tv       1     -1.05    15.999
   22040      Ob       1     SIL   O03tw       1     -1.05    15.999
   22041      Si       1     SIL   Si1wz       1       2.1    28.086
   22042      Si       1     SIL   Si1x0       1       2.1    28.086
   22043      Si       1     SIL   Si1x1       1       2.1    28.086
   22044      Ob       1     SIL   O03tx       1     -1.05    15.999
   22045      Ob       1     SIL   O03ty       1     -1.05    15.999
   22046      Ob       1     SIL   O03tz       1     -1.05    15.999
   22047      Ob       1     SIL   O03u0       1     -1.05    15.999
   22048      Ob       1     SIL   O03u1       1     -1.05    15.999
   22049      Ob       1     SIL   O03u2       1     -1.05    15.999
   22050      Si       1     SIL   Si1x2       1       2.1    28.086
   22051      Si       1     SIL   Si1x3       1       2.1    28.086
   22052      Si       1     SIL   Si1x4       1       2.1    28.086
   22053      Ob       1     SIL   O03u3       1     -1.05    15.999
   22054      Ob       1     SIL   O03u4       1     -1.05    15.999
   22055      Ob       1     SIL   O03u5       1     -1.05    15.999
   22056      Ob       1     SIL   O03u6       1     -1.05    15.999
   22057      Ob       1     SIL   O03u7       1     -1.05    15.999
   22058      Ob       1     SIL   O03u8       1     -1.05    15.999
   22059      Si       1     SIL   Si1x5       1       2.1    28.086
   22060      Si       1     SIL   Si1x6       1       2.1    28.086
   22061      Si       1     SIL   Si1x7       1       2.1    28.086
   22062      Ob       1     SIL   O03u9       1     -1.05    15.999
   22063      Ob       1     SIL   O03uA       1     -1.05    15.999
   22064      Ob       1     SIL   O03uB       1     -1.05    15.999
   22065      Ob       1     SIL   O03uC       1     -1.05    15.999
   22066      Ob       1     SIL   O03uD       1     -1.05    15.999
   22067      Ob       1     SIL   O03uE       1     -1.05    15.999
   22068      Si       1     SIL   Si1x8       1       2.1    28.086
   22069      Si       1     SIL   Si1x9       1       2.1    28.086
   22070      Si       1     SIL   Si1xA       1       2.1    28.086
   22071      Ob       1     SIL   O03uF       1     -1.05    15.999
   22072      Ob       1     SIL   O03uG       1     -1.05    15.999
   22073      Ob       1     SIL   O03uH       1     -1.05    15.999
   22074      Ob       1     SIL   O03uI       1     -1.05    15.999
   22075      Ob       1     SIL   O03uJ       1     -1.05    15.999
   22076      Ob       1     SIL   O03uK       1     -1.05    15.999
   22077      Si       1     SIL   Si1xB       1       2.1    28.086
   22078      Si       1     SIL   Si1xC       1       2.1    28.086
   22079      Si       1     SIL   Si1xD       1       2.1    28.086
   22080      Ob       1     SIL   O03uL       1     -1.05    15.999
   22081      Ob       1     SIL   O03uM       1     -1.05    15.999
   22082      Ob       1     SIL   O03uN       1     -1.05    15.999
   22083      Ob       1     SIL   O03uO       1     -1.05    15.999
   22084      Ob       1     SIL   O03uP       1     -1.05    15.999
   22085      Ob       1     SIL   O03uQ       1     -1.05    15.999
   22086      Si       1     SIL   Si1xE       1       2.1    28.086
   22087      Si       1     SIL   Si1xF       1       2.1    28.086
   22088      Si       1     SIL   Si1xG       1       2.1    28.086
   22089      Ob       1     SIL   O03uR       1     -1.05    15.999
   22090      Ob       1     SIL   O03uS       1     -1.05    15.999
   22091      Ob       1     SIL   O03uT       1     -1.05    15.999
   22092      Ob       1     SIL   O03uU       1     -1.05    15.999
   22093      Ob       1     SIL   O03uV       1     -1.05    15.999
   22094      Ob       1     SIL   O03uW       1     -1.05    15.999
   22095      Si       1     SIL   Si1xH       1       2.1    28.086
   22096      Si       1     SIL   Si1xI       1       2.1    28.086
   22097      Si       1     SIL   Si1xJ       1       2.1    28.086
   22098      Ob       1     SIL   O03uX       1     -1.05    15.999
   22099       O       1     SIL   O03uY       1    -0.525    15.999
   22100       O       1     SIL   O03uZ       1    -0.525    15.999
   22101      Ob       1     SIL   O03ua       1     -1.05    15.999
   22102      Ob       1     SIL   O03ub       1     -1.05    15.999
   22103      Ob       1     SIL   O03uc       1     -1.05    15.999
   22104      Si       1     SIL   Si1xK       1       2.1    28.086
   22105      Si       1     SIL   Si1xL       1       2.1    28.086
   22106      Si       1     SIL   Si1xM       1       2.1    28.086
   22107      Ob       1     SIL   O03ud       1     -1.05    15.999
   22108      Ob       1     SIL   O03ue       1     -1.05    15.999
   22109      Ob       1     SIL   O03uf       1     -1.05    15.999
   22110      Ob       1     SIL   O03ug       1     -1.05    15.999
   22111      Ob       1     SIL   O03uh       1     -1.05    15.999
   22112      Ob       1     SIL   O03ui       1     -1.05    15.999
   22113      Si       1     SIL   Si1xN       1       2.1    28.086
   22114      Si       1     SIL   Si1xO       1       2.1    28.086
   22115      Si       1     SIL   Si1xP       1       2.1    28.086
   22116      Ob       1     SIL   O03uj       1     -1.05    15.999
   22117      Ob       1     SIL   O03uk       1     -1.05    15.999
   22118      Ob       1     SIL   O03ul       1     -1.05    15.999
   22119      Ob       1     SIL   O03um       1     -1.05    15.999
   22120      Ob       1     SIL   O03un       1     -1.05    15.999
   22121      Ob       1     SIL   O03uo       1     -1.05    15.999
   22122      Si       1     SIL   Si1xQ       1       2.1    28.086
   22123      Si       1     SIL   Si1xR       1       2.1    28.086
   22124      Si       1     SIL   Si1xS       1       2.1    28.086
   22125      Ob       1     SIL   O03up       1     -1.05    15.999
   22126      Ob       1     SIL   O03uq       1     -1.05    15.999
   22127      Ob       1     SIL   O03ur       1     -1.05    15.999
   22128      Ob       1     SIL   O03us       1     -1.05    15.999
   22129      Ob       1     SIL   O03ut       1     -1.05    15.999
   22130      Ob       1     SIL   O03uu       1     -1.05    15.999
   22131      Si       1     SIL   Si1xT       1       2.1    28.086
   22132      Si       1     SIL   Si1xU       1       2.1    28.086
   22133      Si       1     SIL   Si1xV       1       2.1    28.086
   22134      Ob       1     SIL   O03uv       1     -1.05    15.999
   22135      Ob       1     SIL   O03uw       1     -1.05    15.999
   22136      Ob       1     SIL   O03ux       1     -1.05    15.999
   22137      Ob       1     SIL   O03uy       1     -1.05    15.999
   22138      Ob       1     SIL   O03uz       1     -1.05    15.999
   22139      Ob       1     SIL   O03v0       1     -1.05    15.999
   22140      Si       1     SIL   Si1xW       1       2.1    28.086
   22141      Si       1     SIL   Si1xX       1       2.1    28.086
   22142      Si       1     SIL   Si1xY       1       2.1    28.086
   22143      Ob       1     SIL   O03v1       1     -1.05    15.999
   22144      Ob       1     SIL   O03v2       1     -1.05    15.999
   22145      Ob       1     SIL   O03v3       1     -1.05    15.999
   22146      Ob       1     SIL   O03v4       1     -1.05    15.999
   22147      Ob       1     SIL   O03v5       1     -1.05    15.999
   22148      Ob       1     SIL   O03v6       1     -1.05    15.999
   22149      Si       1     SIL   Si1xZ       1       2.1    28.086
   22150      Si       1     SIL   Si1xa       1       2.1    28.086
   22151      Si       1     SIL   Si1xb       1       2.1    28.086
   22152      Ob       1     SIL   O03v7       1     -1.05    15.999
   22153      Ob       1     SIL   O03v8       1     -1.05    15.999
   22154      Ob       1     SIL   O03v9       1     -1.05    15.999
   22155      Ob       1     SIL   O03vA       1     -1.05    15.999
   22156      Ob       1     SIL   O03vB       1     -1.05    15.999
   22157      Ob       1     SIL   O03vC       1     -1.05    15.999
   22158      Si       1     SIL   Si1xc       1       2.1    28.086
   22159      Si       1     SIL   Si1xd       1       2.1    28.086
   22160      Si       1     SIL   Si1xe       1       2.1    28.086
   22161      Ob       1     SIL   O03vD       1     -1.05    15.999
   22162      Ob       1     SIL   O03vE       1     -1.05    15.999
   22163      Ob       1     SIL   O03vF       1     -1.05    15.999
   22164      Ob       1     SIL   O03vG       1     -1.05    15.999
   22165      Ob       1     SIL   O03vH       1     -1.05    15.999
   22166      Ob       1     SIL   O03vI       1     -1.05    15.999
   22167      Si       1     SIL   Si1xf       1       2.1    28.086
   22168      Si       1     SIL   Si1xg       1       2.1    28.086
   22169      Si       1     SIL   Si1xh       1       2.1    28.086
   22170      Ob       1     SIL   O03vJ       1     -1.05    15.999
   22171      Ob       1     SIL   O03vK       1     -1.05    15.999
   22172      Ob       1     SIL   O03vL       1     -1.05    15.999
   22173      Ob       1     SIL   O03vM       1     -1.05    15.999
   22174      Ob       1     SIL   O03vN       1     -1.05    15.999
   22175      Ob       1     SIL   O03vO       1     -1.05    15.999
   22176      Si       1     SIL   Si1xi       1       2.1    28.086
   22177      Si       1     SIL   Si1xj       1       2.1    28.086
   22178      Si       1     SIL   Si1xk       1       2.1    28.086
   22179      Ob       1     SIL   O03vP       1     -1.05    15.999
   22180      Ob       1     SIL   O03vQ       1     -1.05    15.999
   22181      Ob       1     SIL   O03vR       1     -1.05    15.999
   22182      Ob       1     SIL   O03vS       1     -1.05    15.999
   22183      Ob       1     SIL   O03vT       1     -1.05    15.999
   22184      Ob       1     SIL   O03vU       1     -1.05    15.999
   22185      Si       1     SIL   Si1xl       1       2.1    28.086
   22186      Si       1     SIL   Si1xm       1       2.1    28.086
   22187      Si       1     SIL   Si1xn       1       2.1    28.086
   22188      Ob       1     SIL   O03vV       1     -1.05    15.999
   22189      Ob       1     SIL   O03vW       1     -1.05    15.999
   22190      Ob       1     SIL   O03vX       1     -1.05    15.999
   22191      Ob       1     SIL   O03vY       1     -1.05    15.999
   22192      Ob       1     SIL   O03vZ       1     -1.05    15.999
   22193      Ob       1     SIL   O03va       1     -1.05    15.999
   22194      Si       1     SIL   Si1xo       1       2.1    28.086
   22195      Si       1     SIL   Si1xp       1       2.1    28.086
   22196      Si       1     SIL   Si1xq       1       2.1    28.086
   22197      Ob       1     SIL   O03vb       1     -1.05    15.999
   22198      Ob       1     SIL   O03vc       1     -1.05    15.999
   22199      Ob       1     SIL   O03vd       1     -1.05    15.999
   22200      Ob       1     SIL   O03ve       1     -1.05    15.999
   22201      Ob       1     SIL   O03vf       1     -1.05    15.999
   22202      Ob       1     SIL   O03vg       1     -1.05    15.999
   22203      Si       1     SIL   Si1xr       1       2.1    28.086
   22204      Si       1     SIL   Si1xs       1       2.1    28.086
   22205      Si       1     SIL   Si1xt       1       2.1    28.086
   22206      Ob       1     SIL   O03vh       1     -1.05    15.999
   22207      Ob       1     SIL   O03vi       1     -1.05    15.999
   22208      Ob       1     SIL   O03vj       1     -1.05    15.999
   22209      Ob       1     SIL   O03vk       1     -1.05    15.999
   22210      Ob       1     SIL   O03vl       1     -1.05    15.999
   22211      Ob       1     SIL   O03vm       1     -1.05    15.999
   22212      Si       1     SIL   Si1xu       1       2.1    28.086
   22213      Si       1     SIL   Si1xv       1       2.1    28.086
   22214      Si       1     SIL   Si1xw       1       2.1    28.086
   22215      Ob       1     SIL   O03vn       1     -1.05    15.999
   22216      Ob       1     SIL   O03vo       1     -1.05    15.999
   22217      Ob       1     SIL   O03vp       1     -1.05    15.999
   22218      Ob       1     SIL   O03vq       1     -1.05    15.999
   22219      Ob       1     SIL   O03vr       1     -1.05    15.999
   22220      Ob       1     SIL   O03vs       1     -1.05    15.999
   22221      Si       1     SIL   Si1xx       1       2.1    28.086
   22222      Si       1     SIL   Si1xy       1       2.1    28.086
   22223      Si       1     SIL   Si1xz       1       2.1    28.086
   22224      Ob       1     SIL   O03vt       1     -1.05    15.999
   22225      Ob       1     SIL   O03vu       1     -1.05    15.999
   22226      Ob       1     SIL   O03vv       1     -1.05    15.999
   22227      Ob       1     SIL   O03vw       1     -1.05    15.999
   22228      Ob       1     SIL   O03vx       1     -1.05    15.999
   22229      Ob       1     SIL   O03vy       1     -1.05    15.999
   22230      Si       1     SIL   Si1y0       1       2.1    28.086
   22231      Si       1     SIL   Si1y1       1       2.1    28.086
   22232      Si       1     SIL   Si1y2       1       2.1    28.086
   22233      Ob       1     SIL   O03vz       1     -1.05    15.999
   22234      Ob       1     SIL   O03w0       1     -1.05    15.999
   22235      Ob       1     SIL   O03w1       1     -1.05    15.999
   22236      Ob       1     SIL   O03w2       1     -1.05    15.999
   22237      Ob       1     SIL   O03w3       1     -1.05    15.999
   22238      Ob       1     SIL   O03w4       1     -1.05    15.999
   22239      Si       1     SIL   Si1y3       1       2.1    28.086
   22240      Si       1     SIL   Si1y4       1       2.1    28.086
   22241      Si       1     SIL   Si1y5       1       2.1    28.086
   22242      Ob       1     SIL   O03w5       1     -1.05    15.999
   22243      Ob       1     SIL   O03w6       1     -1.05    15.999
   22244      Ob       1     SIL   O03w7       1     -1.05    15.999
   22245      Ob       1     SIL   O03w8       1     -1.05    15.999
   22246      Ob       1     SIL   O03w9       1     -1.05    15.999
   22247      Ob       1     SIL   O03wA       1     -1.05    15.999
   22248      Si       1     SIL   Si1y6       1       2.1    28.086
   22249      Si       1     SIL   Si1y7       1       2.1    28.086
   22250      Si       1     SIL   Si1y8       1       2.1    28.086
   22251      Ob       1     SIL   O03wB       1     -1.05    15.999
   22252      Ob       1     SIL   O03wC       1     -1.05    15.999
   22253      Ob       1     SIL   O03wD       1     -1.05    15.999
   22254      Ob       1     SIL   O03wE       1     -1.05    15.999
   22255      Ob       1     SIL   O03wF       1     -1.05    15.999
   22256      Ob       1     SIL   O03wG       1     -1.05    15.999
   22257      Si       1     SIL   Si1y9       1       2.1    28.086
   22258      Si       1     SIL   Si1yA       1       2.1    28.086
   22259      Si       1     SIL   Si1yB       1       2.1    28.086
   22260      Ob       1     SIL   O03wH       1     -1.05    15.999
   22261      Ob       1     SIL   O03wI       1     -1.05    15.999
   22262      Ob       1     SIL   O03wJ       1     -1.05    15.999
   22263      Ob       1     SIL   O03wK       1     -1.05    15.999
   22264      Ob       1     SIL   O03wL       1     -1.05    15.999
   22265      Ob       1     SIL   O03wM       1     -1.05    15.999
   22266      Si       1     SIL   Si1yC       1       2.1    28.086
   22267      Si       1     SIL   Si1yD       1       2.1    28.086
   22268      Si       1     SIL   Si1yE       1       2.1    28.086
   22269      Ob       1     SIL   O03wN       1     -1.05    15.999
   22270      Ob       1     SIL   O03wO       1     -1.05    15.999
   22271      Ob       1     SIL   O03wP       1     -1.05    15.999
   22272      Ob       1     SIL   O03wQ       1     -1.05    15.999
   22273      Ob       1     SIL   O03wR       1     -1.05    15.999
   22274      Ob       1     SIL   O03wS       1     -1.05    15.999
   22275      Si       1     SIL   Si1yF       1       2.1    28.086
   22276      Si       1     SIL   Si1yG       1       2.1    28.086
   22277      Si       1     SIL   Si1yH       1       2.1    28.086
   22278      Ob       1     SIL   O03wT       1     -1.05    15.999
   22279      Ob       1     SIL   O03wU       1     -1.05    15.999
   22280      Ob       1     SIL   O03wV       1     -1.05    15.999
   22281      Ob       1     SIL   O03wW       1     -1.05    15.999
   22282      Ob       1     SIL   O03wX       1     -1.05    15.999
   22283      Ob       1     SIL   O03wY       1     -1.05    15.999
   22284      Si       1     SIL   Si1yI       1       2.1    28.086
   22285      Si       1     SIL   Si1yJ       1       2.1    28.086
   22286      Si       1     SIL   Si1yK       1       2.1    28.086
   22287      Ob       1     SIL   O03wZ       1     -1.05    15.999
   22288      Ob       1     SIL   O03wa       1     -1.05    15.999
   22289      Ob       1     SIL   O03wb       1     -1.05    15.999
   22290      Ob       1     SIL   O03wc       1     -1.05    15.999
   22291      Ob       1     SIL   O03wd       1     -1.05    15.999
   22292      Ob       1     SIL   O03we       1     -1.05    15.999
   22293      Si       1     SIL   Si1yL       1       2.1    28.086
   22294      Si       1     SIL   Si1yM       1       2.1    28.086
   22295      Si       1     SIL   Si1yN       1       2.1    28.086
   22296      Ob       1     SIL   O03wf       1     -1.05    15.999
   22297      Ob       1     SIL   O03wg       1     -1.05    15.999
   22298      Ob       1     SIL   O03wh       1     -1.05    15.999
   22299      Ob       1     SIL   O03wi       1     -1.05    15.999
   22300      Ob       1     SIL   O03wj       1     -1.05    15.999
   22301      Ob       1     SIL   O03wk       1     -1.05    15.999
   22302      Si       1     SIL   Si1yO       1       2.1    28.086
   22303      Si       1     SIL   Si1yP       1       2.1    28.086
   22304      Si       1     SIL   Si1yQ       1       2.1    28.086
   22305      Ob       1     SIL   O03wl       1     -1.05    15.999
   22306       O       1     SIL   O03wm       1    -0.525    15.999
   22307       O       1     SIL   O03wn       1    -0.525    15.999
   22308      Ob       1     SIL   O03wo       1     -1.05    15.999
   22309      Ob       1     SIL   O03wp       1     -1.05    15.999
   22310      Ob       1     SIL   O03wq       1     -1.05    15.999
   22311      Si       1     SIL   Si1yR       1       2.1    28.086
   22312      Si       1     SIL   Si1yS       1       2.1    28.086
   22313      Si       1     SIL   Si1yT       1       2.1    28.086
   22314      Ob       1     SIL   O03wr       1     -1.05    15.999
   22315      Ob       1     SIL   O03ws       1     -1.05    15.999
   22316      Ob       1     SIL   O03wt       1     -1.05    15.999
   22317      Ob       1     SIL   O03wu       1     -1.05    15.999
   22318      Ob       1     SIL   O03wv       1     -1.05    15.999
   22319      Ob       1     SIL   O03ww       1     -1.05    15.999
   22320      Si       1     SIL   Si1yU       1       2.1    28.086
   22321      Si       1     SIL   Si1yV       1       2.1    28.086
   22322      Si       1     SIL   Si1yW       1       2.1    28.086
   22323      Ob       1     SIL   O03wx       1     -1.05    15.999
   22324      Ob       1     SIL   O03wy       1     -1.05    15.999
   22325      Ob       1     SIL   O03wz       1     -1.05    15.999
   22326      Ob       1     SIL   O03x0       1     -1.05    15.999
   22327      Ob       1     SIL   O03x1       1     -1.05    15.999
   22328      Ob       1     SIL   O03x2       1     -1.05    15.999
   22329      Si       1     SIL   Si1yX       1       2.1    28.086
   22330      Si       1     SIL   Si1yY       1       2.1    28.086
   22331      Si       1     SIL   Si1yZ       1       2.1    28.086
   22332      Ob       1     SIL   O03x3       1     -1.05    15.999
   22333      Ob       1     SIL   O03x4       1     -1.05    15.999
   22334      Ob       1     SIL   O03x5       1     -1.05    15.999
   22335      Ob       1     SIL   O03x6       1     -1.05    15.999
   22336      Ob       1     SIL   O03x7       1     -1.05    15.999
   22337      Ob       1     SIL   O03x8       1     -1.05    15.999
   22338      Si       1     SIL   Si1ya       1       2.1    28.086
   22339      Si       1     SIL   Si1yb       1       2.1    28.086
   22340      Si       1     SIL   Si1yc       1       2.1    28.086
   22341      Ob       1     SIL   O03x9       1     -1.05    15.999
   22342      Ob       1     SIL   O03xA       1     -1.05    15.999
   22343      Ob       1     SIL   O03xB       1     -1.05    15.999
   22344      Ob       1     SIL   O03xC       1     -1.05    15.999
   22345      Ob       1     SIL   O03xD       1     -1.05    15.999
   22346      Ob       1     SIL   O03xE       1     -1.05    15.999
   22347      Si       1     SIL   Si1yd       1       2.1    28.086
   22348      Si       1     SIL   Si1ye       1       2.1    28.086
   22349      Si       1     SIL   Si1yf       1       2.1    28.086
   22350      Ob       1     SIL   O03xF       1     -1.05    15.999
   22351      Ob       1     SIL   O03xG       1     -1.05    15.999
   22352      Ob       1     SIL   O03xH       1     -1.05    15.999
   22353      Ob       1     SIL   O03xI       1     -1.05    15.999
   22354      Ob       1     SIL   O03xJ       1     -1.05    15.999
   22355      Ob       1     SIL   O03xK       1     -1.05    15.999
   22356      Si       1     SIL   Si1yg       1       2.1    28.086
   22357      Si       1     SIL   Si1yh       1       2.1    28.086
   22358      Si       1     SIL   Si1yi       1       2.1    28.086
   22359      Ob       1     SIL   O03xL       1     -1.05    15.999
   22360      Ob       1     SIL   O03xM       1     -1.05    15.999
   22361      Ob       1     SIL   O03xN       1     -1.05    15.999
   22362      Ob       1     SIL   O03xO       1     -1.05    15.999
   22363      Ob       1     SIL   O03xP       1     -1.05    15.999
   22364      Ob       1     SIL   O03xQ       1     -1.05    15.999
   22365      Si       1     SIL   Si1yj       1       2.1    28.086
   22366      Si       1     SIL   Si1yk       1       2.1    28.086
   22367      Si       1     SIL   Si1yl       1       2.1    28.086
   22368      Ob       1     SIL   O03xR       1     -1.05    15.999
   22369      Ob       1     SIL   O03xS       1     -1.05    15.999
   22370      Ob       1     SIL   O03xT       1     -1.05    15.999
   22371      Ob       1     SIL   O03xU       1     -1.05    15.999
   22372      Ob       1     SIL   O03xV       1     -1.05    15.999
   22373      Ob       1     SIL   O03xW       1     -1.05    15.999
   22374      Si       1     SIL   Si1ym       1       2.1    28.086
   22375      Si       1     SIL   Si1yn       1       2.1    28.086
   22376      Si       1     SIL   Si1yo       1       2.1    28.086
   22377      Ob       1     SIL   O03xX       1     -1.05    15.999
   22378      Ob       1     SIL   O03xY       1     -1.05    15.999
   22379      Ob       1     SIL   O03xZ       1     -1.05    15.999
   22380      Ob       1     SIL   O03xa       1     -1.05    15.999
   22381      Ob       1     SIL   O03xb       1     -1.05    15.999
   22382      Ob       1     SIL   O03xc       1     -1.05    15.999
   22383      Si       1     SIL   Si1yp       1       2.1    28.086
   22384      Si       1     SIL   Si1yq       1       2.1    28.086
   22385      Si       1     SIL   Si1yr       1       2.1    28.086
   22386      Ob       1     SIL   O03xd       1     -1.05    15.999
   22387      Ob       1     SIL   O03xe       1     -1.05    15.999
   22388      Ob       1     SIL   O03xf       1     -1.05    15.999
   22389      Ob       1     SIL   O03xg       1     -1.05    15.999
   22390      Ob       1     SIL   O03xh       1     -1.05    15.999
   22391      Ob       1     SIL   O03xi       1     -1.05    15.999
   22392      Si       1     SIL   Si1ys       1       2.1    28.086
   22393      Si       1     SIL   Si1yt       1       2.1    28.086
   22394      Si       1     SIL   Si1yu       1       2.1    28.086
   22395      Ob       1     SIL   O03xj       1     -1.05    15.999
   22396      Ob       1     SIL   O03xk       1     -1.05    15.999
   22397      Ob       1     SIL   O03xl       1     -1.05    15.999
   22398      Ob       1     SIL   O03xm       1     -1.05    15.999
   22399      Ob       1     SIL   O03xn       1     -1.05    15.999
   22400      Ob       1     SIL   O03xo       1     -1.05    15.999
   22401      Si       1     SIL   Si1yv       1       2.1    28.086
   22402      Si       1     SIL   Si1yw       1       2.1    28.086
   22403      Si       1     SIL   Si1yx       1       2.1    28.086
   22404      Ob       1     SIL   O03xp       1     -1.05    15.999
   22405      Ob       1     SIL   O03xq       1     -1.05    15.999
   22406      Ob       1     SIL   O03xr       1     -1.05    15.999
   22407      Ob       1     SIL   O03xs       1     -1.05    15.999
   22408      Ob       1     SIL   O03xt       1     -1.05    15.999
   22409      Ob       1     SIL   O03xu       1     -1.05    15.999
   22410      Si       1     SIL   Si1yy       1       2.1    28.086
   22411      Si       1     SIL   Si1yz       1       2.1    28.086
   22412      Si       1     SIL   Si1z0       1       2.1    28.086
   22413      Ob       1     SIL   O03xv       1     -1.05    15.999
   22414      Ob       1     SIL   O03xw       1     -1.05    15.999
   22415      Ob       1     SIL   O03xx       1     -1.05    15.999
   22416      Ob       1     SIL   O03xy       1     -1.05    15.999
   22417      Ob       1     SIL   O03xz       1     -1.05    15.999
   22418      Ob       1     SIL   O03y0       1     -1.05    15.999
   22419      Si       1     SIL   Si1z1       1       2.1    28.086
   22420      Si       1     SIL   Si1z2       1       2.1    28.086
   22421      Si       1     SIL   Si1z3       1       2.1    28.086
   22422      Ob       1     SIL   O03y1       1     -1.05    15.999
   22423      Ob       1     SIL   O03y2       1     -1.05    15.999
   22424      Ob       1     SIL   O03y3       1     -1.05    15.999
   22425      Ob       1     SIL   O03y4       1     -1.05    15.999
   22426      Ob       1     SIL   O03y5       1     -1.05    15.999
   22427      Ob       1     SIL   O03y6       1     -1.05    15.999
   22428      Si       1     SIL   Si1z4       1       2.1    28.086
   22429      Si       1     SIL   Si1z5       1       2.1    28.086
   22430      Si       1     SIL   Si1z6       1       2.1    28.086
   22431      Ob       1     SIL   O03y7       1     -1.05    15.999
   22432      Ob       1     SIL   O03y8       1     -1.05    15.999
   22433      Ob       1     SIL   O03y9       1     -1.05    15.999
   22434      Ob       1     SIL   O03yA       1     -1.05    15.999
   22435      Ob       1     SIL   O03yB       1     -1.05    15.999
   22436      Ob       1     SIL   O03yC       1     -1.05    15.999
   22437      Si       1     SIL   Si1z7       1       2.1    28.086
   22438      Si       1     SIL   Si1z8       1       2.1    28.086
   22439      Si       1     SIL   Si1z9       1       2.1    28.086
   22440      Ob       1     SIL   O03yD       1     -1.05    15.999
   22441      Ob       1     SIL   O03yE       1     -1.05    15.999
   22442      Ob       1     SIL   O03yF       1     -1.05    15.999
   22443      Ob       1     SIL   O03yG       1     -1.05    15.999
   22444      Ob       1     SIL   O03yH       1     -1.05    15.999
   22445      Ob       1     SIL   O03yI       1     -1.05    15.999
   22446      Si       1     SIL   Si1zA       1       2.1    28.086
   22447      Si       1     SIL   Si1zB       1       2.1    28.086
   22448      Si       1     SIL   Si1zC       1       2.1    28.086
   22449      Ob       1     SIL   O03yJ       1     -1.05    15.999
   22450      Ob       1     SIL   O03yK       1     -1.05    15.999
   22451      Ob       1     SIL   O03yL       1     -1.05    15.999
   22452      Ob       1     SIL   O03yM       1     -1.05    15.999
   22453      Ob       1     SIL   O03yN       1     -1.05    15.999
   22454      Ob       1     SIL   O03yO       1     -1.05    15.999
   22455      Si       1     SIL   Si1zD       1       2.1    28.086
   22456      Si       1     SIL   Si1zE       1       2.1    28.086
   22457      Si       1     SIL   Si1zF       1       2.1    28.086
   22458      Ob       1     SIL   O03yP       1     -1.05    15.999
   22459      Ob       1     SIL   O03yQ       1     -1.05    15.999
   22460      Ob       1     SIL   O03yR       1     -1.05    15.999
   22461      Ob       1     SIL   O03yS       1     -1.05    15.999
   22462      Ob       1     SIL   O03yT       1     -1.05    15.999
   22463      Ob       1     SIL   O03yU       1     -1.05    15.999
   22464      Si       1     SIL   Si1zG       1       2.1    28.086
   22465      Si       1     SIL   Si1zH       1       2.1    28.086
   22466      Si       1     SIL   Si1zI       1       2.1    28.086
   22467      Ob       1     SIL   O03yV       1     -1.05    15.999
   22468      Ob       1     SIL   O03yW       1     -1.05    15.999
   22469      Ob       1     SIL   O03yX       1     -1.05    15.999
   22470      Ob       1     SIL   O03yY       1     -1.05    15.999
   22471      Ob       1     SIL   O03yZ       1     -1.05    15.999
   22472      Ob       1     SIL   O03ya       1     -1.05    15.999
   22473      Si       1     SIL   Si1zJ       1       2.1    28.086
   22474      Si       1     SIL   Si1zK       1       2.1    28.086
   22475      Si       1     SIL   Si1zL       1       2.1    28.086
   22476      Ob       1     SIL   O03yb       1     -1.05    15.999
   22477      Ob       1     SIL   O03yc       1     -1.05    15.999
   22478      Ob       1     SIL   O03yd       1     -1.05    15.999
   22479      Ob       1     SIL   O03ye       1     -1.05    15.999
   22480      Ob       1     SIL   O03yf       1     -1.05    15.999
   22481      Ob       1     SIL   O03yg       1     -1.05    15.999
   22482      Si       1     SIL   Si1zM       1       2.1    28.086
   22483      Si       1     SIL   Si1zN       1       2.1    28.086
   22484      Si       1     SIL   Si1zO       1       2.1    28.086
   22485      Ob       1     SIL   O03yh       1     -1.05    15.999
   22486      Ob       1     SIL   O03yi       1     -1.05    15.999
   22487      Ob       1     SIL   O03yj       1     -1.05    15.999
   22488      Ob       1     SIL   O03yk       1     -1.05    15.999
   22489      Ob       1     SIL   O03yl       1     -1.05    15.999
   22490      Ob       1     SIL   O03ym       1     -1.05    15.999
   22491      Si       1     SIL   Si1zP       1       2.1    28.086
   22492      Si       1     SIL   Si1zQ       1       2.1    28.086
   22493      Si       1     SIL   Si1zR       1       2.1    28.086
   22494      Ob       1     SIL   O03yn       1     -1.05    15.999
   22495      Ob       1     SIL   O03yo       1     -1.05    15.999
   22496      Ob       1     SIL   O03yp       1     -1.05    15.999
   22497      Ob       1     SIL   O03yq       1     -1.05    15.999
   22498      Ob       1     SIL   O03yr       1     -1.05    15.999
   22499      Ob       1     SIL   O03ys       1     -1.05    15.999
   22500      Si       1     SIL   Si1zS       1       2.1    28.086
   22501      Si       1     SIL   Si1zT       1       2.1    28.086
   22502      Si       1     SIL   Si1zU       1       2.1    28.086
   22503      Ob       1     SIL   O03yt       1     -1.05    15.999
   22504      Ob       1     SIL   O03yu       1     -1.05    15.999
   22505      Ob       1     SIL   O03yv       1     -1.05    15.999
   22506      Ob       1     SIL   O03yw       1     -1.05    15.999
   22507      Ob       1     SIL   O03yx       1     -1.05    15.999
   22508      Ob       1     SIL   O03yy       1     -1.05    15.999
   22509      Si       1     SIL   Si1zV       1       2.1    28.086
   22510      Si       1     SIL   Si1zW       1       2.1    28.086
   22511      Si       1     SIL   Si1zX       1       2.1    28.086
   22512      Ob       1     SIL   O03yz       1     -1.05    15.999
   22513       O       1     SIL   O03z0       1    -0.525    15.999
   22514       O       1     SIL   O03z1       1    -0.525    15.999
   22515      Ob       1     SIL   O03z2       1     -1.05    15.999
   22516      Ob       1     SIL   O03z3       1     -1.05    15.999
   22517      Ob       1     SIL   O03z4       1     -1.05    15.999
   22518      Si       1     SIL   Si1zY       1       2.1    28.086
   22519      Si       1     SIL   Si1zZ       1       2.1    28.086
   22520      Si       1     SIL   Si1za       1       2.1    28.086
   22521      Ob       1     SIL   O03z5       1     -1.05    15.999
   22522      Ob       1     SIL   O03z6       1     -1.05    15.999
   22523      Ob       1     SIL   O03z7       1     -1.05    15.999
   22524      Ob       1     SIL   O03z8       1     -1.05    15.999
   22525      Ob       1     SIL   O03z9       1     -1.05    15.999
   22526      Ob       1     SIL   O03zA       1     -1.05    15.999
   22527      Si       1     SIL   Si1zb       1       2.1    28.086
   22528      Si       1     SIL   Si1zc       1       2.1    28.086
   22529      Si       1     SIL   Si1zd       1       2.1    28.086
   22530      Ob       1     SIL   O03zB       1     -1.05    15.999
   22531      Ob       1     SIL   O03zC       1     -1.05    15.999
   22532      Ob       1     SIL   O03zD       1     -1.05    15.999
   22533      Ob       1     SIL   O03zE       1     -1.05    15.999
   22534      Ob       1     SIL   O03zF       1     -1.05    15.999
   22535      Ob       1     SIL   O03zG       1     -1.05    15.999
   22536      Si       1     SIL   Si1ze       1       2.1    28.086
   22537      Si       1     SIL   Si1zf       1       2.1    28.086
   22538      Si       1     SIL   Si1zg       1       2.1    28.086
   22539      Ob       1     SIL   O03zH       1     -1.05    15.999
   22540      Ob       1     SIL   O03zI       1     -1.05    15.999
   22541      Ob       1     SIL   O03zJ       1     -1.05    15.999
   22542      Ob       1     SIL   O03zK       1     -1.05    15.999
   22543      Ob       1     SIL   O03zL       1     -1.05    15.999
   22544      Ob       1     SIL   O03zM       1     -1.05    15.999
   22545      Si       1     SIL   Si1zh       1       2.1    28.086
   22546      Si       1     SIL   Si1zi       1       2.1    28.086
   22547      Si       1     SIL   Si1zj       1       2.1    28.086
   22548      Ob       1     SIL   O03zN       1     -1.05    15.999
   22549      Ob       1     SIL   O03zO       1     -1.05    15.999
   22550      Ob       1     SIL   O03zP       1     -1.05    15.999
   22551      Ob       1     SIL   O03zQ       1     -1.05    15.999
   22552      Ob       1     SIL   O03zR       1     -1.05    15.999
   22553      Ob       1     SIL   O03zS       1     -1.05    15.999
   22554      Si       1     SIL   Si1zk       1       2.1    28.086
   22555      Si       1     SIL   Si1zl       1       2.1    28.086
   22556      Si       1     SIL   Si1zm       1       2.1    28.086
   22557      Ob       1     SIL   O03zT       1     -1.05    15.999
   22558      Ob       1     SIL   O03zU       1     -1.05    15.999
   22559      Ob       1     SIL   O03zV       1     -1.05    15.999
   22560      Ob       1     SIL   O03zW       1     -1.05    15.999
   22561      Ob       1     SIL   O03zX       1     -1.05    15.999
   22562      Ob       1     SIL   O03zY       1     -1.05    15.999
   22563      Si       1     SIL   Si1zn       1       2.1    28.086
   22564      Si       1     SIL   Si1zo       1       2.1    28.086
   22565      Si       1     SIL   Si1zp       1       2.1    28.086
   22566      Ob       1     SIL   O03zZ       1     -1.05    15.999
   22567      Ob       1     SIL   O03za       1     -1.05    15.999
   22568      Ob       1     SIL   O03zb       1     -1.05    15.999
   22569      Ob       1     SIL   O03zc       1     -1.05    15.999
   22570      Ob       1     SIL   O03zd       1     -1.05    15.999
   22571      Ob       1     SIL   O03ze       1     -1.05    15.999
   22572      Si       1     SIL   Si1zq       1       2.1    28.086
   22573      Si       1     SIL   Si1zr       1       2.1    28.086
   22574      Si       1     SIL   Si1zs       1       2.1    28.086
   22575      Ob       1     SIL   O03zf       1     -1.05    15.999
   22576      Ob       1     SIL   O03zg       1     -1.05    15.999
   22577      Ob       1     SIL   O03zh       1     -1.05    15.999
   22578      Ob       1     SIL   O03zi       1     -1.05    15.999
   22579      Ob       1     SIL   O03zj       1     -1.05    15.999
   22580      Ob       1     SIL   O03zk       1     -1.05    15.999
   22581      Si       1     SIL   Si1zt       1       2.1    28.086
   22582      Si       1     SIL   Si1zu       1       2.1    28.086
   22583      Si       1     SIL   Si1zv       1       2.1    28.086
   22584      Ob       1     SIL   O03zl       1     -1.05    15.999
   22585      Ob       1     SIL   O03zm       1     -1.05    15.999
   22586      Ob       1     SIL   O03zn       1     -1.05    15.999
   22587      Ob       1     SIL   O03zo       1     -1.05    15.999
   22588      Ob       1     SIL   O03zp       1     -1.05    15.999
   22589      Ob       1     SIL   O03zq       1     -1.05    15.999
   22590      Si       1     SIL   Si1zw       1       2.1    28.086
   22591      Si       1     SIL   Si1zx       1       2.1    28.086
   22592      Si       1     SIL   Si1zy       1       2.1    28.086
   22593      Ob       1     SIL   O03zr       1     -1.05    15.999
   22594      Ob       1     SIL   O03zs       1     -1.05    15.999
   22595      Ob       1     SIL   O03zt       1     -1.05    15.999
   22596      Ob       1     SIL   O03zu       1     -1.05    15.999
   22597      Ob       1     SIL   O03zv       1     -1.05    15.999
   22598      Ob       1     SIL   O03zw       1     -1.05    15.999
   22599      Si       1     SIL   Si1zz       1       2.1    28.086
   22600      Si       1     SIL   Si200       1       2.1    28.086
   22601      Si       1     SIL   Si201       1       2.1    28.086
   22602      Ob       1     SIL   O03zx       1     -1.05    15.999
   22603      Ob       1     SIL   O03zy       1     -1.05    15.999
   22604      Ob       1     SIL   O03zz       1     -1.05    15.999
   22605      Ob       1     SIL   O0400       1     -1.05    15.999
   22606      Ob       1     SIL   O0401       1     -1.05    15.999
   22607      Ob       1     SIL   O0402       1     -1.05    15.999
   22608      Si       1     SIL   Si202       1       2.1    28.086
   22609      Si       1     SIL   Si203       1       2.1    28.086
   22610      Si       1     SIL   Si204       1       2.1    28.086
   22611      Ob       1     SIL   O0403       1     -1.05    15.999
   22612      Ob       1     SIL   O0404       1     -1.05    15.999
   22613      Ob       1     SIL   O0405       1     -1.05    15.999
   22614      Ob       1     SIL   O0406       1     -1.05    15.999
   22615      Ob       1     SIL   O0407       1     -1.05    15.999
   22616      Ob       1     SIL   O0408       1     -1.05    15.999
   22617      Si       1     SIL   Si205       1       2.1    28.086
   22618      Si       1     SIL   Si206       1       2.1    28.086
   22619      Si       1     SIL   Si207       1       2.1    28.086
   22620      Ob       1     SIL   O0409       1     -1.05    15.999
   22621      Ob       1     SIL   O040A       1     -1.05    15.999
   22622      Ob       1     SIL   O040B       1     -1.05    15.999
   22623      Ob       1     SIL   O040C       1     -1.05    15.999
   22624      Ob       1     SIL   O040D       1     -1.05    15.999
   22625      Ob       1     SIL   O040E       1     -1.05    15.999
   22626      Si       1     SIL   Si208       1       2.1    28.086
   22627      Si       1     SIL   Si209       1       2.1    28.086
   22628      Si       1     SIL   Si20A       1       2.1    28.086
   22629      Ob       1     SIL   O040F       1     -1.05    15.999
   22630      Ob       1     SIL   O040G       1     -1.05    15.999
   22631      Ob       1     SIL   O040H       1     -1.05    15.999
   22632      Ob       1     SIL   O040I       1     -1.05    15.999
   22633      Ob       1     SIL   O040J       1     -1.05    15.999
   22634      Ob       1     SIL   O040K       1     -1.05    15.999
   22635      Si       1     SIL   Si20B       1       2.1    28.086
   22636      Si       1     SIL   Si20C       1       2.1    28.086
   22637      Si       1     SIL   Si20D       1       2.1    28.086
   22638      Ob       1     SIL   O040L       1     -1.05    15.999
   22639      Ob       1     SIL   O040M       1     -1.05    15.999
   22640      Ob       1     SIL   O040N       1     -1.05    15.999
   22641      Ob       1     SIL   O040O       1     -1.05    15.999
   22642      Ob       1     SIL   O040P       1     -1.05    15.999
   22643      Ob       1     SIL   O040Q       1     -1.05    15.999
   22644      Si       1     SIL   Si20E       1       2.1    28.086
   22645      Si       1     SIL   Si20F       1       2.1    28.086
   22646      Si       1     SIL   Si20G       1       2.1    28.086
   22647      Ob       1     SIL   O040R       1     -1.05    15.999
   22648      Ob       1     SIL   O040S       1     -1.05    15.999
   22649      Ob       1     SIL   O040T       1     -1.05    15.999
   22650      Ob       1     SIL   O040U       1     -1.05    15.999
   22651      Ob       1     SIL   O040V       1     -1.05    15.999
   22652      Ob       1     SIL   O040W       1     -1.05    15.999
   22653      Si       1     SIL   Si20H       1       2.1    28.086
   22654      Si       1     SIL   Si20I       1       2.1    28.086
   22655      Si       1     SIL   Si20J       1       2.1    28.086
   22656      Ob       1     SIL   O040X       1     -1.05    15.999
   22657      Ob       1     SIL   O040Y       1     -1.05    15.999
   22658      Ob       1     SIL   O040Z       1     -1.05    15.999
   22659      Ob       1     SIL   O040a       1     -1.05    15.999
   22660      Ob       1     SIL   O040b       1     -1.05    15.999
   22661      Ob       1     SIL   O040c       1     -1.05    15.999
   22662      Si       1     SIL   Si20K       1       2.1    28.086
   22663      Si       1     SIL   Si20L       1       2.1    28.086
   22664      Si       1     SIL   Si20M       1       2.1    28.086
   22665      Ob       1     SIL   O040d       1     -1.05    15.999
   22666      Ob       1     SIL   O040e       1     -1.05    15.999
   22667      Ob       1     SIL   O040f       1     -1.05    15.999
   22668      Ob       1     SIL   O040g       1     -1.05    15.999
   22669      Ob       1     SIL   O040h       1     -1.05    15.999
   22670      Ob       1     SIL   O040i       1     -1.05    15.999
   22671      Si       1     SIL   Si20N       1       2.1    28.086
   22672      Si       1     SIL   Si20O       1       2.1    28.086
   22673      Si       1     SIL   Si20P       1       2.1    28.086
   22674      Ob       1     SIL   O040j       1     -1.05    15.999
   22675      Ob       1     SIL   O040k       1     -1.05    15.999
   22676      Ob       1     SIL   O040l       1     -1.05    15.999
   22677      Ob       1     SIL   O040m       1     -1.05    15.999
   22678      Ob       1     SIL   O040n       1     -1.05    15.999
   22679      Ob       1     SIL   O040o       1     -1.05    15.999
   22680      Si       1     SIL   Si20Q       1       2.1    28.086
   22681      Si       1     SIL   Si20R       1       2.1    28.086
   22682      Si       1     SIL   Si20S       1       2.1    28.086
   22683      Ob       1     SIL   O040p       1     -1.05    15.999
   22684      Ob       1     SIL   O040q       1     -1.05    15.999
   22685      Ob       1     SIL   O040r       1     -1.05    15.999
   22686      Ob       1     SIL   O040s       1     -1.05    15.999
   22687      Ob       1     SIL   O040t       1     -1.05    15.999
   22688      Ob       1     SIL   O040u       1     -1.05    15.999
   22689      Si       1     SIL   Si20T       1       2.1    28.086
   22690      Si       1     SIL   Si20U       1       2.1    28.086
   22691      Si       1     SIL   Si20V       1       2.1    28.086
   22692      Ob       1     SIL   O040v       1     -1.05    15.999
   22693      Ob       1     SIL   O040w       1     -1.05    15.999
   22694      Ob       1     SIL   O040x       1     -1.05    15.999
   22695      Ob       1     SIL   O040y       1     -1.05    15.999
   22696      Ob       1     SIL   O040z       1     -1.05    15.999
   22697      Ob       1     SIL   O0410       1     -1.05    15.999
   22698      Si       1     SIL   Si20W       1       2.1    28.086
   22699      Si       1     SIL   Si20X       1       2.1    28.086
   22700      Si       1     SIL   Si20Y       1       2.1    28.086
   22701      Ob       1     SIL   O0411       1     -1.05    15.999
   22702      Ob       1     SIL   O0412       1     -1.05    15.999
   22703      Ob       1     SIL   O0413       1     -1.05    15.999
   22704      Ob       1     SIL   O0414       1     -1.05    15.999
   22705      Ob       1     SIL   O0415       1     -1.05    15.999
   22706      Ob       1     SIL   O0416       1     -1.05    15.999
   22707      Si       1     SIL   Si20Z       1       2.1    28.086
   22708      Si       1     SIL   Si20a       1       2.1    28.086
   22709      Si       1     SIL   Si20b       1       2.1    28.086
   22710      Ob       1     SIL   O0417       1     -1.05    15.999
   22711      Ob       1     SIL   O0418       1     -1.05    15.999
   22712      Ob       1     SIL   O0419       1     -1.05    15.999
   22713      Ob       1     SIL   O041A       1     -1.05    15.999
   22714      Ob       1     SIL   O041B       1     -1.05    15.999
   22715      Ob       1     SIL   O041C       1     -1.05    15.999
   22716      Si       1     SIL   Si20c       1       2.1    28.086
   22717      Si       1     SIL   Si20d       1       2.1    28.086
   22718      Si       1     SIL   Si20e       1       2.1    28.086
   22719      Ob       1     SIL   O041D       1     -1.05    15.999
   22720       O       1     SIL   O041E       1    -0.525    15.999
   22721       O       1     SIL   O041F       1    -0.525    15.999
   22722      Ob       1     SIL   O041G       1     -1.05    15.999
   22723      Ob       1     SIL   O041H       1     -1.05    15.999
   22724      Ob       1     SIL   O041I       1     -1.05    15.999
   22725      Si       1     SIL   Si20f       1       2.1    28.086
   22726      Si       1     SIL   Si20g       1       2.1    28.086
   22727      Si       1     SIL   Si20h       1       2.1    28.086
   22728      Ob       1     SIL   O041J       1     -1.05    15.999
   22729      Ob       1     SIL   O041K       1     -1.05    15.999
   22730      Ob       1     SIL   O041L       1     -1.05    15.999
   22731      Ob       1     SIL   O041M       1     -1.05    15.999
   22732      Ob       1     SIL   O041N       1     -1.05    15.999
   22733      Ob       1     SIL   O041O       1     -1.05    15.999
   22734      Si       1     SIL   Si20i       1       2.1    28.086
   22735      Si       1     SIL   Si20j       1       2.1    28.086
   22736      Si       1     SIL   Si20k       1       2.1    28.086
   22737      Ob       1     SIL   O041P       1     -1.05    15.999
   22738      Ob       1     SIL   O041Q       1     -1.05    15.999
   22739      Ob       1     SIL   O041R       1     -1.05    15.999
   22740      Ob       1     SIL   O041S       1     -1.05    15.999
   22741      Ob       1     SIL   O041T       1     -1.05    15.999
   22742      Ob       1     SIL   O041U       1     -1.05    15.999
   22743      Si       1     SIL   Si20l       1       2.1    28.086
   22744      Si       1     SIL   Si20m       1       2.1    28.086
   22745      Si       1     SIL   Si20n       1       2.1    28.086
   22746      Ob       1     SIL   O041V       1     -1.05    15.999
   22747      Ob       1     SIL   O041W       1     -1.05    15.999
   22748      Ob       1     SIL   O041X       1     -1.05    15.999
   22749      Ob       1     SIL   O041Y       1     -1.05    15.999
   22750      Ob       1     SIL   O041Z       1     -1.05    15.999
   22751      Ob       1     SIL   O041a       1     -1.05    15.999
   22752      Si       1     SIL   Si20o       1       2.1    28.086
   22753      Si       1     SIL   Si20p       1       2.1    28.086
   22754      Si       1     SIL   Si20q       1       2.1    28.086
   22755      Ob       1     SIL   O041b       1     -1.05    15.999
   22756      Ob       1     SIL   O041c       1     -1.05    15.999
   22757      Ob       1     SIL   O041d       1     -1.05    15.999
   22758      Ob       1     SIL   O041e       1     -1.05    15.999
   22759      Ob       1     SIL   O041f       1     -1.05    15.999
   22760      Ob       1     SIL   O041g       1     -1.05    15.999
   22761      Si       1     SIL   Si20r       1       2.1    28.086
   22762      Si       1     SIL   Si20s       1       2.1    28.086
   22763      Si       1     SIL   Si20t       1       2.1    28.086
   22764      Ob       1     SIL   O041h       1     -1.05    15.999
   22765      Ob       1     SIL   O041i       1     -1.05    15.999
   22766      Ob       1     SIL   O041j       1     -1.05    15.999
   22767      Ob       1     SIL   O041k       1     -1.05    15.999
   22768      Ob       1     SIL   O041l       1     -1.05    15.999
   22769      Ob       1     SIL   O041m       1     -1.05    15.999
   22770      Si       1     SIL   Si20u       1       2.1    28.086
   22771      Si       1     SIL   Si20v       1       2.1    28.086
   22772      Si       1     SIL   Si20w       1       2.1    28.086
   22773      Ob       1     SIL   O041n       1     -1.05    15.999
   22774      Ob       1     SIL   O041o       1     -1.05    15.999
   22775      Ob       1     SIL   O041p       1     -1.05    15.999
   22776      Ob       1     SIL   O041q       1     -1.05    15.999
   22777      Ob       1     SIL   O041r       1     -1.05    15.999
   22778      Ob       1     SIL   O041s       1     -1.05    15.999
   22779      Si       1     SIL   Si20x       1       2.1    28.086
   22780      Si       1     SIL   Si20y       1       2.1    28.086
   22781      Si       1     SIL   Si20z       1       2.1    28.086
   22782      Ob       1     SIL   O041t       1     -1.05    15.999
   22783      Ob       1     SIL   O041u       1     -1.05    15.999
   22784      Ob       1     SIL   O041v       1     -1.05    15.999
   22785      Ob       1     SIL   O041w       1     -1.05    15.999
   22786      Ob       1     SIL   O041x       1     -1.05    15.999
   22787      Ob       1     SIL   O041y       1     -1.05    15.999
   22788      Si       1     SIL   Si210       1       2.1    28.086
   22789      Si       1     SIL   Si211       1       2.1    28.086
   22790      Si       1     SIL   Si212       1       2.1    28.086
   22791      Ob       1     SIL   O041z       1     -1.05    15.999
   22792      Ob       1     SIL   O0420       1     -1.05    15.999
   22793      Ob       1     SIL   O0421       1     -1.05    15.999
   22794      Ob       1     SIL   O0422       1     -1.05    15.999
   22795      Ob       1     SIL   O0423       1     -1.05    15.999
   22796      Ob       1     SIL   O0424       1     -1.05    15.999
   22797      Si       1     SIL   Si213       1       2.1    28.086
   22798      Si       1     SIL   Si214       1       2.1    28.086
   22799      Si       1     SIL   Si215       1       2.1    28.086
   22800      Ob       1     SIL   O0425       1     -1.05    15.999
   22801      Ob       1     SIL   O0426       1     -1.05    15.999
   22802      Ob       1     SIL   O0427       1     -1.05    15.999
   22803      Ob       1     SIL   O0428       1     -1.05    15.999
   22804      Ob       1     SIL   O0429       1     -1.05    15.999
   22805      Ob       1     SIL   O042A       1     -1.05    15.999
   22806      Si       1     SIL   Si216       1       2.1    28.086
   22807      Si       1     SIL   Si217       1       2.1    28.086
   22808      Si       1     SIL   Si218       1       2.1    28.086
   22809      Ob       1     SIL   O042B       1     -1.05    15.999
   22810      Ob       1     SIL   O042C       1     -1.05    15.999
   22811      Ob       1     SIL   O042D       1     -1.05    15.999
   22812      Ob       1     SIL   O042E       1     -1.05    15.999
   22813      Ob       1     SIL   O042F       1     -1.05    15.999
   22814      Ob       1     SIL   O042G       1     -1.05    15.999
   22815      Si       1     SIL   Si219       1       2.1    28.086
   22816      Si       1     SIL   Si21A       1       2.1    28.086
   22817      Si       1     SIL   Si21B       1       2.1    28.086
   22818      Ob       1     SIL   O042H       1     -1.05    15.999
   22819      Ob       1     SIL   O042I       1     -1.05    15.999
   22820      Ob       1     SIL   O042J       1     -1.05    15.999
   22821      Ob       1     SIL   O042K       1     -1.05    15.999
   22822      Ob       1     SIL   O042L       1     -1.05    15.999
   22823      Ob       1     SIL   O042M       1     -1.05    15.999
   22824      Si       1     SIL   Si21C       1       2.1    28.086
   22825      Si       1     SIL   Si21D       1       2.1    28.086
   22826      Si       1     SIL   Si21E       1       2.1    28.086
   22827      Ob       1     SIL   O042N       1     -1.05    15.999
   22828      Ob       1     SIL   O042O       1     -1.05    15.999
   22829      Ob       1     SIL   O042P       1     -1.05    15.999
   22830      Ob       1     SIL   O042Q       1     -1.05    15.999
   22831      Ob       1     SIL   O042R       1     -1.05    15.999
   22832      Ob       1     SIL   O042S       1     -1.05    15.999
   22833      Si       1     SIL   Si21F       1       2.1    28.086
   22834      Si       1     SIL   Si21G       1       2.1    28.086
   22835      Si       1     SIL   Si21H       1       2.1    28.086
   22836      Ob       1     SIL   O042T       1     -1.05    15.999
   22837      Ob       1     SIL   O042U       1     -1.05    15.999
   22838      Ob       1     SIL   O042V       1     -1.05    15.999
   22839      Ob       1     SIL   O042W       1     -1.05    15.999
   22840      Ob       1     SIL   O042X       1     -1.05    15.999
   22841      Ob       1     SIL   O042Y       1     -1.05    15.999
   22842      Si       1     SIL   Si21I       1       2.1    28.086
   22843      Si       1     SIL   Si21J       1       2.1    28.086
   22844      Si       1     SIL   Si21K       1       2.1    28.086
   22845      Ob       1     SIL   O042Z       1     -1.05    15.999
   22846      Ob       1     SIL   O042a       1     -1.05    15.999
   22847      Ob       1     SIL   O042b       1     -1.05    15.999
   22848      Ob       1     SIL   O042c       1     -1.05    15.999
   22849      Ob       1     SIL   O042d       1     -1.05    15.999
   22850      Ob       1     SIL   O042e       1     -1.05    15.999
   22851      Si       1     SIL   Si21L       1       2.1    28.086
   22852      Si       1     SIL   Si21M       1       2.1    28.086
   22853      Si       1     SIL   Si21N       1       2.1    28.086
   22854      Ob       1     SIL   O042f       1     -1.05    15.999
   22855      Ob       1     SIL   O042g       1     -1.05    15.999
   22856      Ob       1     SIL   O042h       1     -1.05    15.999
   22857      Ob       1     SIL   O042i       1     -1.05    15.999
   22858      Ob       1     SIL   O042j       1     -1.05    15.999
   22859      Ob       1     SIL   O042k       1     -1.05    15.999
   22860      Si       1     SIL   Si21O       1       2.1    28.086
   22861      Si       1     SIL   Si21P       1       2.1    28.086
   22862      Si       1     SIL   Si21Q       1       2.1    28.086
   22863      Ob       1     SIL   O042l       1     -1.05    15.999
   22864      Ob       1     SIL   O042m       1     -1.05    15.999
   22865      Ob       1     SIL   O042n       1     -1.05    15.999
   22866      Ob       1     SIL   O042o       1     -1.05    15.999
   22867      Ob       1     SIL   O042p       1     -1.05    15.999
   22868      Ob       1     SIL   O042q       1     -1.05    15.999
   22869      Si       1     SIL   Si21R       1       2.1    28.086
   22870      Si       1     SIL   Si21S       1       2.1    28.086
   22871      Si       1     SIL   Si21T       1       2.1    28.086
   22872      Ob       1     SIL   O042r       1     -1.05    15.999
   22873      Ob       1     SIL   O042s       1     -1.05    15.999
   22874      Ob       1     SIL   O042t       1     -1.05    15.999
   22875      Ob       1     SIL   O042u       1     -1.05    15.999
   22876      Ob       1     SIL   O042v       1     -1.05    15.999
   22877      Ob       1     SIL   O042w       1     -1.05    15.999
   22878      Si       1     SIL   Si21U       1       2.1    28.086
   22879      Si       1     SIL   Si21V       1       2.1    28.086
   22880      Si       1     SIL   Si21W       1       2.1    28.086
   22881      Ob       1     SIL   O042x       1     -1.05    15.999
   22882      Ob       1     SIL   O042y       1     -1.05    15.999
   22883      Ob       1     SIL   O042z       1     -1.05    15.999
   22884      Ob       1     SIL   O0430       1     -1.05    15.999
   22885      Ob       1     SIL   O0431       1     -1.05    15.999
   22886      Ob       1     SIL   O0432       1     -1.05    15.999
   22887      Si       1     SIL   Si21X       1       2.1    28.086
   22888      Si       1     SIL   Si21Y       1       2.1    28.086
   22889      Si       1     SIL   Si21Z       1       2.1    28.086
   22890      Ob       1     SIL   O0433       1     -1.05    15.999
   22891      Ob       1     SIL   O0434       1     -1.05    15.999
   22892      Ob       1     SIL   O0435       1     -1.05    15.999
   22893      Ob       1     SIL   O0436       1     -1.05    15.999
   22894      Ob       1     SIL   O0437       1     -1.05    15.999
   22895      Ob       1     SIL   O0438       1     -1.05    15.999
   22896      Si       1     SIL   Si21a       1       2.1    28.086
   22897      Si       1     SIL   Si21b       1       2.1    28.086
   22898      Si       1     SIL   Si21c       1       2.1    28.086
   22899      Ob       1     SIL   O0439       1     -1.05    15.999
   22900      Ob       1     SIL   O043A       1     -1.05    15.999
   22901      Ob       1     SIL   O043B       1     -1.05    15.999
   22902      Ob       1     SIL   O043C       1     -1.05    15.999
   22903      Ob       1     SIL   O043D       1     -1.05    15.999
   22904      Ob       1     SIL   O043E       1     -1.05    15.999
   22905      Si       1     SIL   Si21d       1       2.1    28.086
   22906      Si       1     SIL   Si21e       1       2.1    28.086
   22907      Si       1     SIL   Si21f       1       2.1    28.086
   22908      Ob       1     SIL   O043F       1     -1.05    15.999
   22909      Ob       1     SIL   O043G       1     -1.05    15.999
   22910      Ob       1     SIL   O043H       1     -1.05    15.999
   22911      Ob       1     SIL   O043I       1     -1.05    15.999
   22912      Ob       1     SIL   O043J       1     -1.05    15.999
   22913      Ob       1     SIL   O043K       1     -1.05    15.999
   22914      Si       1     SIL   Si21g       1       2.1    28.086
   22915      Si       1     SIL   Si21h       1       2.1    28.086
   22916      Si       1     SIL   Si21i       1       2.1    28.086
   22917      Ob       1     SIL   O043L       1     -1.05    15.999
   22918      Ob       1     SIL   O043M       1     -1.05    15.999
   22919      Ob       1     SIL   O043N       1     -1.05    15.999
   22920      Ob       1     SIL   O043O       1     -1.05    15.999
   22921      Ob       1     SIL   O043P       1     -1.05    15.999
   22922      Ob       1     SIL   O043Q       1     -1.05    15.999
   22923      Si       1     SIL   Si21j       1       2.1    28.086
   22924      Si       1     SIL   Si21k       1       2.1    28.086
   22925      Si       1     SIL   Si21l       1       2.1    28.086
   22926      Ob       1     SIL   O043R       1     -1.05    15.999
   22927       O       1     SIL   O043S       1    -0.525    15.999
   22928       O       1     SIL   O043T       1    -0.525    15.999
   22929      Ob       1     SIL   O043U       1     -1.05    15.999
   22930      Ob       1     SIL   O043V       1     -1.05    15.999
   22931      Ob       1     SIL   O043W       1     -1.05    15.999
   22932      Si       1     SIL   Si21m       1       2.1    28.086
   22933      Si       1     SIL   Si21n       1       2.1    28.086
   22934      Si       1     SIL   Si21o       1       2.1    28.086
   22935      Ob       1     SIL   O043X       1     -1.05    15.999
   22936      Ob       1     SIL   O043Y       1     -1.05    15.999
   22937      Ob       1     SIL   O043Z       1     -1.05    15.999
   22938      Ob       1     SIL   O043a       1     -1.05    15.999
   22939      Ob       1     SIL   O043b       1     -1.05    15.999
   22940      Ob       1     SIL   O043c       1     -1.05    15.999
   22941      Si       1     SIL   Si21p       1       2.1    28.086
   22942      Si       1     SIL   Si21q       1       2.1    28.086
   22943      Si       1     SIL   Si21r       1       2.1    28.086
   22944      Ob       1     SIL   O043d       1     -1.05    15.999
   22945      Ob       1     SIL   O043e       1     -1.05    15.999
   22946      Ob       1     SIL   O043f       1     -1.05    15.999
   22947      Ob       1     SIL   O043g       1     -1.05    15.999
   22948      Ob       1     SIL   O043h       1     -1.05    15.999
   22949      Ob       1     SIL   O043i       1     -1.05    15.999
   22950      Si       1     SIL   Si21s       1       2.1    28.086
   22951      Si       1     SIL   Si21t       1       2.1    28.086
   22952      Si       1     SIL   Si21u       1       2.1    28.086
   22953      Ob       1     SIL   O043j       1     -1.05    15.999
   22954      Ob       1     SIL   O043k       1     -1.05    15.999
   22955      Ob       1     SIL   O043l       1     -1.05    15.999
   22956      Ob       1     SIL   O043m       1     -1.05    15.999
   22957      Ob       1     SIL   O043n       1     -1.05    15.999
   22958      Ob       1     SIL   O043o       1     -1.05    15.999
   22959      Si       1     SIL   Si21v       1       2.1    28.086
   22960      Si       1     SIL   Si21w       1       2.1    28.086
   22961      Si       1     SIL   Si21x       1       2.1    28.086
   22962      Ob       1     SIL   O043p       1     -1.05    15.999
   22963      Ob       1     SIL   O043q       1     -1.05    15.999
   22964      Ob       1     SIL   O043r       1     -1.05    15.999
   22965      Ob       1     SIL   O043s       1     -1.05    15.999
   22966      Ob       1     SIL   O043t       1     -1.05    15.999
   22967      Ob       1     SIL   O043u       1     -1.05    15.999
   22968      Si       1     SIL   Si21y       1       2.1    28.086
   22969      Si       1     SIL   Si21z       1       2.1    28.086
   22970      Si       1     SIL   Si220       1       2.1    28.086
   22971      Ob       1     SIL   O043v       1     -1.05    15.999
   22972      Ob       1     SIL   O043w       1     -1.05    15.999
   22973      Ob       1     SIL   O043x       1     -1.05    15.999
   22974      Ob       1     SIL   O043y       1     -1.05    15.999
   22975      Ob       1     SIL   O043z       1     -1.05    15.999
   22976      Ob       1     SIL   O0440       1     -1.05    15.999
   22977      Si       1     SIL   Si221       1       2.1    28.086
   22978      Si       1     SIL   Si222       1       2.1    28.086
   22979      Si       1     SIL   Si223       1       2.1    28.086
   22980      Ob       1     SIL   O0441       1     -1.05    15.999
   22981      Ob       1     SIL   O0442       1     -1.05    15.999
   22982      Ob       1     SIL   O0443       1     -1.05    15.999
   22983      Ob       1     SIL   O0444       1     -1.05    15.999
   22984      Ob       1     SIL   O0445       1     -1.05    15.999
   22985      Ob       1     SIL   O0446       1     -1.05    15.999
   22986      Si       1     SIL   Si224       1       2.1    28.086
   22987      Si       1     SIL   Si225       1       2.1    28.086
   22988      Si       1     SIL   Si226       1       2.1    28.086
   22989      Ob       1     SIL   O0447       1     -1.05    15.999
   22990      Ob       1     SIL   O0448       1     -1.05    15.999
   22991      Ob       1     SIL   O0449       1     -1.05    15.999
   22992      Ob       1     SIL   O044A       1     -1.05    15.999
   22993      Ob       1     SIL   O044B       1     -1.05    15.999
   22994      Ob       1     SIL   O044C       1     -1.05    15.999
   22995      Si       1     SIL   Si227       1       2.1    28.086
   22996      Si       1     SIL   Si228       1       2.1    28.086
   22997      Si       1     SIL   Si229       1       2.1    28.086
   22998      Ob       1     SIL   O044D       1     -1.05    15.999
   22999      Ob       1     SIL   O044E       1     -1.05    15.999
   23000      Ob       1     SIL   O044F       1     -1.05    15.999
   23001      Ob       1     SIL   O044G       1     -1.05    15.999
   23002      Ob       1     SIL   O044H       1     -1.05    15.999
   23003      Ob       1     SIL   O044I       1     -1.05    15.999
   23004      Si       1     SIL   Si22A       1       2.1    28.086
   23005      Si       1     SIL   Si22B       1       2.1    28.086
   23006      Si       1     SIL   Si22C       1       2.1    28.086
   23007      Ob       1     SIL   O044J       1     -1.05    15.999
   23008      Ob       1     SIL   O044K       1     -1.05    15.999
   23009      Ob       1     SIL   O044L       1     -1.05    15.999
   23010      Ob       1     SIL   O044M       1     -1.05    15.999
   23011      Ob       1     SIL   O044N       1     -1.05    15.999
   23012      Ob       1     SIL   O044O       1     -1.05    15.999
   23013      Si       1     SIL   Si22D       1       2.1    28.086
   23014      Si       1     SIL   Si22E       1       2.1    28.086
   23015      Si       1     SIL   Si22F       1       2.1    28.086
   23016      Ob       1     SIL   O044P       1     -1.05    15.999
   23017      Ob       1     SIL   O044Q       1     -1.05    15.999
   23018      Ob       1     SIL   O044R       1     -1.05    15.999
   23019      Ob       1     SIL   O044S       1     -1.05    15.999
   23020      Ob       1     SIL   O044T       1     -1.05    15.999
   23021      Ob       1     SIL   O044U       1     -1.05    15.999
   23022      Si       1     SIL   Si22G       1       2.1    28.086
   23023      Si       1     SIL   Si22H       1       2.1    28.086
   23024      Si       1     SIL   Si22I       1       2.1    28.086
   23025      Ob       1     SIL   O044V       1     -1.05    15.999
   23026      Ob       1     SIL   O044W       1     -1.05    15.999
   23027      Ob       1     SIL   O044X       1     -1.05    15.999
   23028      Ob       1     SIL   O044Y       1     -1.05    15.999
   23029      Ob       1     SIL   O044Z       1     -1.05    15.999
   23030      Ob       1     SIL   O044a       1     -1.05    15.999
   23031      Si       1     SIL   Si22J       1       2.1    28.086
   23032      Si       1     SIL   Si22K       1       2.1    28.086
   23033      Si       1     SIL   Si22L       1       2.1    28.086
   23034      Ob       1     SIL   O044b       1     -1.05    15.999
   23035      Ob       1     SIL   O044c       1     -1.05    15.999
   23036      Ob       1     SIL   O044d       1     -1.05    15.999
   23037      Ob       1     SIL   O044e       1     -1.05    15.999
   23038      Ob       1     SIL   O044f       1     -1.05    15.999
   23039      Ob       1     SIL   O044g       1     -1.05    15.999
   23040      Si       1     SIL   Si22M       1       2.1    28.086
   23041      Si       1     SIL   Si22N       1       2.1    28.086
   23042      Si       1     SIL   Si22O       1       2.1    28.086
   23043      Ob       1     SIL   O044h       1     -1.05    15.999
   23044      Ob       1     SIL   O044i       1     -1.05    15.999
   23045      Ob       1     SIL   O044j       1     -1.05    15.999
   23046      Ob       1     SIL   O044k       1     -1.05    15.999
   23047      Ob       1     SIL   O044l       1     -1.05    15.999
   23048      Ob       1     SIL   O044m       1     -1.05    15.999
   23049      Si       1     SIL   Si22P       1       2.1    28.086
   23050      Si       1     SIL   Si22Q       1       2.1    28.086
   23051      Si       1     SIL   Si22R       1       2.1    28.086
   23052      Ob       1     SIL   O044n       1     -1.05    15.999
   23053      Ob       1     SIL   O044o       1     -1.05    15.999
   23054      Ob       1     SIL   O044p       1     -1.05    15.999
   23055      Ob       1     SIL   O044q       1     -1.05    15.999
   23056      Ob       1     SIL   O044r       1     -1.05    15.999
   23057      Ob       1     SIL   O044s       1     -1.05    15.999
   23058      Si       1     SIL   Si22S       1       2.1    28.086
   23059      Si       1     SIL   Si22T       1       2.1    28.086
   23060      Si       1     SIL   Si22U       1       2.1    28.086
   23061      Ob       1     SIL   O044t       1     -1.05    15.999
   23062      Ob       1     SIL   O044u       1     -1.05    15.999
   23063      Ob       1     SIL   O044v       1     -1.05    15.999
   23064      Ob       1     SIL   O044w       1     -1.05    15.999
   23065      Ob       1     SIL   O044x       1     -1.05    15.999
   23066      Ob       1     SIL   O044y       1     -1.05    15.999
   23067      Si       1     SIL   Si22V       1       2.1    28.086
   23068      Si       1     SIL   Si22W       1       2.1    28.086
   23069      Si       1     SIL   Si22X       1       2.1    28.086
   23070      Ob       1     SIL   O044z       1     -1.05    15.999
   23071      Ob       1     SIL   O0450       1     -1.05    15.999
   23072      Ob       1     SIL   O0451       1     -1.05    15.999
   23073      Ob       1     SIL   O0452       1     -1.05    15.999
   23074      Ob       1     SIL   O0453       1     -1.05    15.999
   23075      Ob       1     SIL   O0454       1     -1.05    15.999
   23076      Si       1     SIL   Si22Y       1       2.1    28.086
   23077      Si       1     SIL   Si22Z       1       2.1    28.086
   23078      Si       1     SIL   Si22a       1       2.1    28.086
   23079      Ob       1     SIL   O0455       1     -1.05    15.999
   23080      Ob       1     SIL   O0456       1     -1.05    15.999
   23081      Ob       1     SIL   O0457       1     -1.05    15.999
   23082      Ob       1     SIL   O0458       1     -1.05    15.999
   23083      Ob       1     SIL   O0459       1     -1.05    15.999
   23084      Ob       1     SIL   O045A       1     -1.05    15.999
   23085      Si       1     SIL   Si22b       1       2.1    28.086
   23086      Si       1     SIL   Si22c       1       2.1    28.086
   23087      Si       1     SIL   Si22d       1       2.1    28.086
   23088      Ob       1     SIL   O045B       1     -1.05    15.999
   23089      Ob       1     SIL   O045C       1     -1.05    15.999
   23090      Ob       1     SIL   O045D       1     -1.05    15.999
   23091      Ob       1     SIL   O045E       1     -1.05    15.999
   23092      Ob       1     SIL   O045F       1     -1.05    15.999
   23093      Ob       1     SIL   O045G       1     -1.05    15.999
   23094      Si       1     SIL   Si22e       1       2.1    28.086
   23095      Si       1     SIL   Si22f       1       2.1    28.086
   23096      Si       1     SIL   Si22g       1       2.1    28.086
   23097      Ob       1     SIL   O045H       1     -1.05    15.999
   23098      Ob       1     SIL   O045I       1     -1.05    15.999
   23099      Ob       1     SIL   O045J       1     -1.05    15.999
   23100      Ob       1     SIL   O045K       1     -1.05    15.999
   23101      Ob       1     SIL   O045L       1     -1.05    15.999
   23102      Ob       1     SIL   O045M       1     -1.05    15.999
   23103      Si       1     SIL   Si22h       1       2.1    28.086
   23104      Si       1     SIL   Si22i       1       2.1    28.086
   23105      Si       1     SIL   Si22j       1       2.1    28.086
   23106      Ob       1     SIL   O045N       1     -1.05    15.999
   23107      Ob       1     SIL   O045O       1     -1.05    15.999
   23108      Ob       1     SIL   O045P       1     -1.05    15.999
   23109      Ob       1     SIL   O045Q       1     -1.05    15.999
   23110      Ob       1     SIL   O045R       1     -1.05    15.999
   23111      Ob       1     SIL   O045S       1     -1.05    15.999
   23112      Si       1     SIL   Si22k       1       2.1    28.086
   23113      Si       1     SIL   Si22l       1       2.1    28.086
   23114      Si       1     SIL   Si22m       1       2.1    28.086
   23115      Ob       1     SIL   O045T       1     -1.05    15.999
   23116      Ob       1     SIL   O045U       1     -1.05    15.999
   23117      Ob       1     SIL   O045V       1     -1.05    15.999
   23118      Ob       1     SIL   O045W       1     -1.05    15.999
   23119      Ob       1     SIL   O045X       1     -1.05    15.999
   23120      Ob       1     SIL   O045Y       1     -1.05    15.999
   23121      Si       1     SIL   Si22n       1       2.1    28.086
   23122      Si       1     SIL   Si22o       1       2.1    28.086
   23123      Si       1     SIL   Si22p       1       2.1    28.086
   23124      Ob       1     SIL   O045Z       1     -1.05    15.999
   23125      Ob       1     SIL   O045a       1     -1.05    15.999
   23126      Ob       1     SIL   O045b       1     -1.05    15.999
   23127      Ob       1     SIL   O045c       1     -1.05    15.999
   23128      Ob       1     SIL   O045d       1     -1.05    15.999
   23129      Ob       1     SIL   O045e       1     -1.05    15.999
   23130      Si       1     SIL   Si22q       1       2.1    28.086
   23131      Si       1     SIL   Si22r       1       2.1    28.086
   23132      Si       1     SIL   Si22s       1       2.1    28.086
   23133      Ob       1     SIL   O045f       1     -1.05    15.999
   23134       O       1     SIL   O045g       1    -0.525    15.999
   23135       O       1     SIL   O045h       1    -0.525    15.999
   23136      Ob       1     SIL   O045i       1     -1.05    15.999
   23137      Ob       1     SIL   O045j       1     -1.05    15.999
   23138      Ob       1     SIL   O045k       1     -1.05    15.999
   23139      Si       1     SIL   Si22t       1       2.1    28.086
   23140      Si       1     SIL   Si22u       1       2.1    28.086
   23141      Si       1     SIL   Si22v       1       2.1    28.086
   23142      Ob       1     SIL   O045l       1     -1.05    15.999
   23143      Ob       1     SIL   O045m       1     -1.05    15.999
   23144      Ob       1     SIL   O045n       1     -1.05    15.999
   23145      Ob       1     SIL   O045o       1     -1.05    15.999
   23146      Ob       1     SIL   O045p       1     -1.05    15.999
   23147      Ob       1     SIL   O045q       1     -1.05    15.999
   23148      Si       1     SIL   Si22w       1       2.1    28.086
   23149      Si       1     SIL   Si22x       1       2.1    28.086
   23150      Si       1     SIL   Si22y       1       2.1    28.086
   23151      Ob       1     SIL   O045r       1     -1.05    15.999
   23152      Ob       1     SIL   O045s       1     -1.05    15.999
   23153      Ob       1     SIL   O045t       1     -1.05    15.999
   23154      Ob       1     SIL   O045u       1     -1.05    15.999
   23155      Ob       1     SIL   O045v       1     -1.05    15.999
   23156      Ob       1     SIL   O045w       1     -1.05    15.999
   23157      Si       1     SIL   Si22z       1       2.1    28.086
   23158      Si       1     SIL   Si230       1       2.1    28.086
   23159      Si       1     SIL   Si231       1       2.1    28.086
   23160      Ob       1     SIL   O045x       1     -1.05    15.999
   23161      Ob       1     SIL   O045y       1     -1.05    15.999
   23162      Ob       1     SIL   O045z       1     -1.05    15.999
   23163      Ob       1     SIL   O0460       1     -1.05    15.999
   23164      Ob       1     SIL   O0461       1     -1.05    15.999
   23165      Ob       1     SIL   O0462       1     -1.05    15.999
   23166      Si       1     SIL   Si232       1       2.1    28.086
   23167      Si       1     SIL   Si233       1       2.1    28.086
   23168      Si       1     SIL   Si234       1       2.1    28.086
   23169      Ob       1     SIL   O0463       1     -1.05    15.999
   23170      Ob       1     SIL   O0464       1     -1.05    15.999
   23171      Ob       1     SIL   O0465       1     -1.05    15.999
   23172      Ob       1     SIL   O0466       1     -1.05    15.999
   23173      Ob       1     SIL   O0467       1     -1.05    15.999
   23174      Ob       1     SIL   O0468       1     -1.05    15.999
   23175      Si       1     SIL   Si235       1       2.1    28.086
   23176      Si       1     SIL   Si236       1       2.1    28.086
   23177      Si       1     SIL   Si237       1       2.1    28.086
   23178      Ob       1     SIL   O0469       1     -1.05    15.999
   23179      Ob       1     SIL   O046A       1     -1.05    15.999
   23180      Ob       1     SIL   O046B       1     -1.05    15.999
   23181      Ob       1     SIL   O046C       1     -1.05    15.999
   23182      Ob       1     SIL   O046D       1     -1.05    15.999
   23183      Ob       1     SIL   O046E       1     -1.05    15.999
   23184      Si       1     SIL   Si238       1       2.1    28.086
   23185      Si       1     SIL   Si239       1       2.1    28.086
   23186      Si       1     SIL   Si23A       1       2.1    28.086
   23187      Ob       1     SIL   O046F       1     -1.05    15.999
   23188      Ob       1     SIL   O046G       1     -1.05    15.999
   23189      Ob       1     SIL   O046H       1     -1.05    15.999
   23190      Ob       1     SIL   O046I       1     -1.05    15.999
   23191      Ob       1     SIL   O046J       1     -1.05    15.999
   23192      Ob       1     SIL   O046K       1     -1.05    15.999
   23193      Si       1     SIL   Si23B       1       2.1    28.086
   23194      Si       1     SIL   Si23C       1       2.1    28.086
   23195      Si       1     SIL   Si23D       1       2.1    28.086
   23196      Ob       1     SIL   O046L       1     -1.05    15.999
   23197      Ob       1     SIL   O046M       1     -1.05    15.999
   23198      Ob       1     SIL   O046N       1     -1.05    15.999
   23199      Ob       1     SIL   O046O       1     -1.05    15.999
   23200      Ob       1     SIL   O046P       1     -1.05    15.999
   23201      Ob       1     SIL   O046Q       1     -1.05    15.999
   23202      Si       1     SIL   Si23E       1       2.1    28.086
   23203      Si       1     SIL   Si23F       1       2.1    28.086
   23204      Si       1     SIL   Si23G       1       2.1    28.086
   23205      Ob       1     SIL   O046R       1     -1.05    15.999
   23206      Ob       1     SIL   O046S       1     -1.05    15.999
   23207      Ob       1     SIL   O046T       1     -1.05    15.999
   23208      Ob       1     SIL   O046U       1     -1.05    15.999
   23209      Ob       1     SIL   O046V       1     -1.05    15.999
   23210      Ob       1     SIL   O046W       1     -1.05    15.999
   23211      Si       1     SIL   Si23H       1       2.1    28.086
   23212      Si       1     SIL   Si23I       1       2.1    28.086
   23213      Si       1     SIL   Si23J       1       2.1    28.086
   23214      Ob       1     SIL   O046X       1     -1.05    15.999
   23215      Ob       1     SIL   O046Y       1     -1.05    15.999
   23216      Ob       1     SIL   O046Z       1     -1.05    15.999
   23217      Ob       1     SIL   O046a       1     -1.05    15.999
   23218      Ob       1     SIL   O046b       1     -1.05    15.999
   23219      Ob       1     SIL   O046c       1     -1.05    15.999
   23220      Si       1     SIL   Si23K       1       2.1    28.086
   23221      Si       1     SIL   Si23L       1       2.1    28.086
   23222      Si       1     SIL   Si23M       1       2.1    28.086
   23223      Ob       1     SIL   O046d       1     -1.05    15.999
   23224      Ob       1     SIL   O046e       1     -1.05    15.999
   23225      Ob       1     SIL   O046f       1     -1.05    15.999
   23226      Ob       1     SIL   O046g       1     -1.05    15.999
   23227      Ob       1     SIL   O046h       1     -1.05    15.999
   23228      Ob       1     SIL   O046i       1     -1.05    15.999
   23229      Si       1     SIL   Si23N       1       2.1    28.086
   23230      Si       1     SIL   Si23O       1       2.1    28.086
   23231      Si       1     SIL   Si23P       1       2.1    28.086
   23232      Ob       1     SIL   O046j       1     -1.05    15.999
   23233      Ob       1     SIL   O046k       1     -1.05    15.999
   23234      Ob       1     SIL   O046l       1     -1.05    15.999
   23235      Ob       1     SIL   O046m       1     -1.05    15.999
   23236      Ob       1     SIL   O046n       1     -1.05    15.999
   23237      Ob       1     SIL   O046o       1     -1.05    15.999
   23238      Si       1     SIL   Si23Q       1       2.1    28.086
   23239      Si       1     SIL   Si23R       1       2.1    28.086
   23240      Si       1     SIL   Si23S       1       2.1    28.086
   23241      Ob       1     SIL   O046p       1     -1.05    15.999
   23242      Ob       1     SIL   O046q       1     -1.05    15.999
   23243      Ob       1     SIL   O046r       1     -1.05    15.999
   23244      Ob       1     SIL   O046s       1     -1.05    15.999
   23245      Ob       1     SIL   O046t       1     -1.05    15.999
   23246      Ob       1     SIL   O046u       1     -1.05    15.999
   23247      Si       1     SIL   Si23T       1       2.1    28.086
   23248      Si       1     SIL   Si23U       1       2.1    28.086
   23249      Si       1     SIL   Si23V       1       2.1    28.086
   23250      Ob       1     SIL   O046v       1     -1.05    15.999
   23251      Ob       1     SIL   O046w       1     -1.05    15.999
   23252      Ob       1     SIL   O046x       1     -1.05    15.999
   23253      Ob       1     SIL   O046y       1     -1.05    15.999
   23254      Ob       1     SIL   O046z       1     -1.05    15.999
   23255      Ob       1     SIL   O0470       1     -1.05    15.999
   23256      Si       1     SIL   Si23W       1       2.1    28.086
   23257      Si       1     SIL   Si23X       1       2.1    28.086
   23258      Si       1     SIL   Si23Y       1       2.1    28.086
   23259      Ob       1     SIL   O0471       1     -1.05    15.999
   23260      Ob       1     SIL   O0472       1     -1.05    15.999
   23261      Ob       1     SIL   O0473       1     -1.05    15.999
   23262      Ob       1     SIL   O0474       1     -1.05    15.999
   23263      Ob       1     SIL   O0475       1     -1.05    15.999
   23264      Ob       1     SIL   O0476       1     -1.05    15.999
   23265      Si       1     SIL   Si23Z       1       2.1    28.086
   23266      Si       1     SIL   Si23a       1       2.1    28.086
   23267      Si       1     SIL   Si23b       1       2.1    28.086
   23268      Ob       1     SIL   O0477       1     -1.05    15.999
   23269      Ob       1     SIL   O0478       1     -1.05    15.999
   23270      Ob       1     SIL   O0479       1     -1.05    15.999
   23271      Ob       1     SIL   O047A       1     -1.05    15.999
   23272      Ob       1     SIL   O047B       1     -1.05    15.999
   23273      Ob       1     SIL   O047C       1     -1.05    15.999
   23274      Si       1     SIL   Si23c       1       2.1    28.086
   23275      Si       1     SIL   Si23d       1       2.1    28.086
   23276      Si       1     SIL   Si23e       1       2.1    28.086
   23277      Ob       1     SIL   O047D       1     -1.05    15.999
   23278      Ob       1     SIL   O047E       1     -1.05    15.999
   23279      Ob       1     SIL   O047F       1     -1.05    15.999
   23280      Ob       1     SIL   O047G       1     -1.05    15.999
   23281      Ob       1     SIL   O047H       1     -1.05    15.999
   23282      Ob       1     SIL   O047I       1     -1.05    15.999
   23283      Si       1     SIL   Si23f       1       2.1    28.086
   23284      Si       1     SIL   Si23g       1       2.1    28.086
   23285      Si       1     SIL   Si23h       1       2.1    28.086
   23286      Ob       1     SIL   O047J       1     -1.05    15.999
   23287      Ob       1     SIL   O047K       1     -1.05    15.999
   23288      Ob       1     SIL   O047L       1     -1.05    15.999
   23289      Ob       1     SIL   O047M       1     -1.05    15.999
   23290      Ob       1     SIL   O047N       1     -1.05    15.999
   23291      Ob       1     SIL   O047O       1     -1.05    15.999
   23292      Si       1     SIL   Si23i       1       2.1    28.086
   23293      Si       1     SIL   Si23j       1       2.1    28.086
   23294      Si       1     SIL   Si23k       1       2.1    28.086
   23295      Ob       1     SIL   O047P       1     -1.05    15.999
   23296      Ob       1     SIL   O047Q       1     -1.05    15.999
   23297      Ob       1     SIL   O047R       1     -1.05    15.999
   23298      Ob       1     SIL   O047S       1     -1.05    15.999
   23299      Ob       1     SIL   O047T       1     -1.05    15.999
   23300      Ob       1     SIL   O047U       1     -1.05    15.999
   23301      Si       1     SIL   Si23l       1       2.1    28.086
   23302      Si       1     SIL   Si23m       1       2.1    28.086
   23303      Si       1     SIL   Si23n       1       2.1    28.086
   23304      Ob       1     SIL   O047V       1     -1.05    15.999
   23305      Ob       1     SIL   O047W       1     -1.05    15.999
   23306      Ob       1     SIL   O047X       1     -1.05    15.999
   23307      Ob       1     SIL   O047Y       1     -1.05    15.999
   23308      Ob       1     SIL   O047Z       1     -1.05    15.999
   23309      Ob       1     SIL   O047a       1     -1.05    15.999
   23310      Si       1     SIL   Si23o       1       2.1    28.086
   23311      Si       1     SIL   Si23p       1       2.1    28.086
   23312      Si       1     SIL   Si23q       1       2.1    28.086
   23313      Ob       1     SIL   O047b       1     -1.05    15.999
   23314      Ob       1     SIL   O047c       1     -1.05    15.999
   23315      Ob       1     SIL   O047d       1     -1.05    15.999
   23316      Ob       1     SIL   O047e       1     -1.05    15.999
   23317      Ob       1     SIL   O047f       1     -1.05    15.999
   23318      Ob       1     SIL   O047g       1     -1.05    15.999
   23319      Si       1     SIL   Si23r       1       2.1    28.086
   23320      Si       1     SIL   Si23s       1       2.1    28.086
   23321      Si       1     SIL   Si23t       1       2.1    28.086
   23322      Ob       1     SIL   O047h       1     -1.05    15.999
   23323      Ob       1     SIL   O047i       1     -1.05    15.999
   23324      Ob       1     SIL   O047j       1     -1.05    15.999
   23325      Ob       1     SIL   O047k       1     -1.05    15.999
   23326      Ob       1     SIL   O047l       1     -1.05    15.999
   23327      Ob       1     SIL   O047m       1     -1.05    15.999
   23328      Si       1     SIL   Si23u       1       2.1    28.086
   23329      Si       1     SIL   Si23v       1       2.1    28.086
   23330      Si       1     SIL   Si23w       1       2.1    28.086
   23331      Ob       1     SIL   O047n       1     -1.05    15.999
   23332      Ob       1     SIL   O047o       1     -1.05    15.999
   23333      Ob       1     SIL   O047p       1     -1.05    15.999
   23334      Ob       1     SIL   O047q       1     -1.05    15.999
   23335      Ob       1     SIL   O047r       1     -1.05    15.999
   23336      Ob       1     SIL   O047s       1     -1.05    15.999
   23337      Si       1     SIL   Si23x       1       2.1    28.086
   23338      Si       1     SIL   Si23y       1       2.1    28.086
   23339      Si       1     SIL   Si23z       1       2.1    28.086
   23340      Ob       1     SIL   O047t       1     -1.05    15.999
   23341       O       1     SIL   O047u       1    -0.525    15.999
   23342       O       1     SIL   O047v       1    -0.525    15.999
   23343      Ob       1     SIL   O047w       1     -1.05    15.999
   23344      Ob       1     SIL   O047x       1     -1.05    15.999
   23345      Ob       1     SIL   O047y       1     -1.05    15.999
   23346      Si       1     SIL   Si240       1       2.1    28.086
   23347      Si       1     SIL   Si241       1       2.1    28.086
   23348      Si       1     SIL   Si242       1       2.1    28.086
   23349      Ob       1     SIL   O047z       1     -1.05    15.999
   23350      Ob       1     SIL   O0480       1     -1.05    15.999
   23351      Ob       1     SIL   O0481       1     -1.05    15.999
   23352      Ob       1     SIL   O0482       1     -1.05    15.999
   23353      Ob       1     SIL   O0483       1     -1.05    15.999
   23354      Ob       1     SIL   O0484       1     -1.05    15.999
   23355      Si       1     SIL   Si243       1       2.1    28.086
   23356      Si       1     SIL   Si244       1       2.1    28.086
   23357      Si       1     SIL   Si245       1       2.1    28.086
   23358      Ob       1     SIL   O0485       1     -1.05    15.999
   23359      Ob       1     SIL   O0486       1     -1.05    15.999
   23360      Ob       1     SIL   O0487       1     -1.05    15.999
   23361      Ob       1     SIL   O0488       1     -1.05    15.999
   23362      Ob       1     SIL   O0489       1     -1.05    15.999
   23363      Ob       1     SIL   O048A       1     -1.05    15.999
   23364      Si       1     SIL   Si246       1       2.1    28.086
   23365      Si       1     SIL   Si247       1       2.1    28.086
   23366      Si       1     SIL   Si248       1       2.1    28.086
   23367      Ob       1     SIL   O048B       1     -1.05    15.999
   23368      Ob       1     SIL   O048C       1     -1.05    15.999
   23369      Ob       1     SIL   O048D       1     -1.05    15.999
   23370      Ob       1     SIL   O048E       1     -1.05    15.999
   23371      Ob       1     SIL   O048F       1     -1.05    15.999
   23372      Ob       1     SIL   O048G       1     -1.05    15.999
   23373      Si       1     SIL   Si249       1       2.1    28.086
   23374      Si       1     SIL   Si24A       1       2.1    28.086
   23375      Si       1     SIL   Si24B       1       2.1    28.086
   23376      Ob       1     SIL   O048H       1     -1.05    15.999
   23377      Ob       1     SIL   O048I       1     -1.05    15.999
   23378      Ob       1     SIL   O048J       1     -1.05    15.999
   23379      Ob       1     SIL   O048K       1     -1.05    15.999
   23380      Ob       1     SIL   O048L       1     -1.05    15.999
   23381      Ob       1     SIL   O048M       1     -1.05    15.999
   23382      Si       1     SIL   Si24C       1       2.1    28.086
   23383      Si       1     SIL   Si24D       1       2.1    28.086
   23384      Si       1     SIL   Si24E       1       2.1    28.086
   23385      Ob       1     SIL   O048N       1     -1.05    15.999
   23386      Ob       1     SIL   O048O       1     -1.05    15.999
   23387      Ob       1     SIL   O048P       1     -1.05    15.999
   23388      Ob       1     SIL   O048Q       1     -1.05    15.999
   23389      Ob       1     SIL   O048R       1     -1.05    15.999
   23390      Ob       1     SIL   O048S       1     -1.05    15.999
   23391      Si       1     SIL   Si24F       1       2.1    28.086
   23392      Si       1     SIL   Si24G       1       2.1    28.086
   23393      Si       1     SIL   Si24H       1       2.1    28.086
   23394      Ob       1     SIL   O048T       1     -1.05    15.999
   23395      Ob       1     SIL   O048U       1     -1.05    15.999
   23396      Ob       1     SIL   O048V       1     -1.05    15.999
   23397      Ob       1     SIL   O048W       1     -1.05    15.999
   23398      Ob       1     SIL   O048X       1     -1.05    15.999
   23399      Ob       1     SIL   O048Y       1     -1.05    15.999
   23400      Si       1     SIL   Si24I       1       2.1    28.086
   23401      Si       1     SIL   Si24J       1       2.1    28.086
   23402      Si       1     SIL   Si24K       1       2.1    28.086
   23403      Ob       1     SIL   O048Z       1     -1.05    15.999
   23404      Ob       1     SIL   O048a       1     -1.05    15.999
   23405      Ob       1     SIL   O048b       1     -1.05    15.999
   23406      Ob       1     SIL   O048c       1     -1.05    15.999
   23407      Ob       1     SIL   O048d       1     -1.05    15.999
   23408      Ob       1     SIL   O048e       1     -1.05    15.999
   23409      Si       1     SIL   Si24L       1       2.1    28.086
   23410      Si       1     SIL   Si24M       1       2.1    28.086
   23411      Si       1     SIL   Si24N       1       2.1    28.086
   23412      Ob       1     SIL   O048f       1     -1.05    15.999
   23413      Ob       1     SIL   O048g       1     -1.05    15.999
   23414      Ob       1     SIL   O048h       1     -1.05    15.999
   23415      Ob       1     SIL   O048i       1     -1.05    15.999
   23416      Ob       1     SIL   O048j       1     -1.05    15.999
   23417      Ob       1     SIL   O048k       1     -1.05    15.999
   23418      Si       1     SIL   Si24O       1       2.1    28.086
   23419      Si       1     SIL   Si24P       1       2.1    28.086
   23420      Si       1     SIL   Si24Q       1       2.1    28.086
   23421      Ob       1     SIL   O048l       1     -1.05    15.999
   23422      Ob       1     SIL   O048m       1     -1.05    15.999
   23423      Ob       1     SIL   O048n       1     -1.05    15.999
   23424      Ob       1     SIL   O048o       1     -1.05    15.999
   23425      Ob       1     SIL   O048p       1     -1.05    15.999
   23426      Ob       1     SIL   O048q       1     -1.05    15.999
   23427      Si       1     SIL   Si24R       1       2.1    28.086
   23428      Si       1     SIL   Si24S       1       2.1    28.086
   23429      Si       1     SIL   Si24T       1       2.1    28.086
   23430      Ob       1     SIL   O048r       1     -1.05    15.999
   23431      Ob       1     SIL   O048s       1     -1.05    15.999
   23432      Ob       1     SIL   O048t       1     -1.05    15.999
   23433      Ob       1     SIL   O048u       1     -1.05    15.999
   23434      Ob       1     SIL   O048v       1     -1.05    15.999
   23435      Ob       1     SIL   O048w       1     -1.05    15.999
   23436      Si       1     SIL   Si24U       1       2.1    28.086
   23437      Si       1     SIL   Si24V       1       2.1    28.086
   23438      Si       1     SIL   Si24W       1       2.1    28.086
   23439      Ob       1     SIL   O048x       1     -1.05    15.999
   23440      Ob       1     SIL   O048y       1     -1.05    15.999
   23441      Ob       1     SIL   O048z       1     -1.05    15.999
   23442      Ob       1     SIL   O0490       1     -1.05    15.999
   23443      Ob       1     SIL   O0491       1     -1.05    15.999
   23444      Ob       1     SIL   O0492       1     -1.05    15.999
   23445      Si       1     SIL   Si24X       1       2.1    28.086
   23446      Si       1     SIL   Si24Y       1       2.1    28.086
   23447      Si       1     SIL   Si24Z       1       2.1    28.086
   23448      Ob       1     SIL   O0493       1     -1.05    15.999
   23449      Ob       1     SIL   O0494       1     -1.05    15.999
   23450      Ob       1     SIL   O0495       1     -1.05    15.999
   23451      Ob       1     SIL   O0496       1     -1.05    15.999
   23452      Ob       1     SIL   O0497       1     -1.05    15.999
   23453      Ob       1     SIL   O0498       1     -1.05    15.999
   23454      Si       1     SIL   Si24a       1       2.1    28.086
   23455      Si       1     SIL   Si24b       1       2.1    28.086
   23456      Si       1     SIL   Si24c       1       2.1    28.086
   23457      Ob       1     SIL   O0499       1     -1.05    15.999
   23458      Ob       1     SIL   O049A       1     -1.05    15.999
   23459      Ob       1     SIL   O049B       1     -1.05    15.999
   23460      Ob       1     SIL   O049C       1     -1.05    15.999
   23461      Ob       1     SIL   O049D       1     -1.05    15.999
   23462      Ob       1     SIL   O049E       1     -1.05    15.999
   23463      Si       1     SIL   Si24d       1       2.1    28.086
   23464      Si       1     SIL   Si24e       1       2.1    28.086
   23465      Si       1     SIL   Si24f       1       2.1    28.086
   23466      Ob       1     SIL   O049F       1     -1.05    15.999
   23467      Ob       1     SIL   O049G       1     -1.05    15.999
   23468      Ob       1     SIL   O049H       1     -1.05    15.999
   23469      Ob       1     SIL   O049I       1     -1.05    15.999
   23470      Ob       1     SIL   O049J       1     -1.05    15.999
   23471      Ob       1     SIL   O049K       1     -1.05    15.999
   23472      Si       1     SIL   Si24g       1       2.1    28.086
   23473      Si       1     SIL   Si24h       1       2.1    28.086
   23474      Si       1     SIL   Si24i       1       2.1    28.086
   23475      Ob       1     SIL   O049L       1     -1.05    15.999
   23476      Ob       1     SIL   O049M       1     -1.05    15.999
   23477      Ob       1     SIL   O049N       1     -1.05    15.999
   23478      Ob       1     SIL   O049O       1     -1.05    15.999
   23479      Ob       1     SIL   O049P       1     -1.05    15.999
   23480      Ob       1     SIL   O049Q       1     -1.05    15.999
   23481      Si       1     SIL   Si24j       1       2.1    28.086
   23482      Si       1     SIL   Si24k       1       2.1    28.086
   23483      Si       1     SIL   Si24l       1       2.1    28.086
   23484      Ob       1     SIL   O049R       1     -1.05    15.999
   23485      Ob       1     SIL   O049S       1     -1.05    15.999
   23486      Ob       1     SIL   O049T       1     -1.05    15.999
   23487      Ob       1     SIL   O049U       1     -1.05    15.999
   23488      Ob       1     SIL   O049V       1     -1.05    15.999
   23489      Ob       1     SIL   O049W       1     -1.05    15.999
   23490      Si       1     SIL   Si24m       1       2.1    28.086
   23491      Si       1     SIL   Si24n       1       2.1    28.086
   23492      Si       1     SIL   Si24o       1       2.1    28.086
   23493      Ob       1     SIL   O049X       1     -1.05    15.999
   23494      Ob       1     SIL   O049Y       1     -1.05    15.999
   23495      Ob       1     SIL   O049Z       1     -1.05    15.999
   23496      Ob       1     SIL   O049a       1     -1.05    15.999
   23497      Ob       1     SIL   O049b       1     -1.05    15.999
   23498      Ob       1     SIL   O049c       1     -1.05    15.999
   23499      Si       1     SIL   Si24p       1       2.1    28.086
   23500      Si       1     SIL   Si24q       1       2.1    28.086
   23501      Si       1     SIL   Si24r       1       2.1    28.086
   23502      Ob       1     SIL   O049d       1     -1.05    15.999
   23503      Ob       1     SIL   O049e       1     -1.05    15.999
   23504      Ob       1     SIL   O049f       1     -1.05    15.999
   23505      Ob       1     SIL   O049g       1     -1.05    15.999
   23506      Ob       1     SIL   O049h       1     -1.05    15.999
   23507      Ob       1     SIL   O049i       1     -1.05    15.999
   23508      Si       1     SIL   Si24s       1       2.1    28.086
   23509      Si       1     SIL   Si24t       1       2.1    28.086
   23510      Si       1     SIL   Si24u       1       2.1    28.086
   23511      Ob       1     SIL   O049j       1     -1.05    15.999
   23512      Ob       1     SIL   O049k       1     -1.05    15.999
   23513      Ob       1     SIL   O049l       1     -1.05    15.999
   23514      Ob       1     SIL   O049m       1     -1.05    15.999
   23515      Ob       1     SIL   O049n       1     -1.05    15.999
   23516      Ob       1     SIL   O049o       1     -1.05    15.999
   23517      Si       1     SIL   Si24v       1       2.1    28.086
   23518      Si       1     SIL   Si24w       1       2.1    28.086
   23519      Si       1     SIL   Si24x       1       2.1    28.086
   23520      Ob       1     SIL   O049p       1     -1.05    15.999
   23521      Ob       1     SIL   O049q       1     -1.05    15.999
   23522      Ob       1     SIL   O049r       1     -1.05    15.999
   23523      Ob       1     SIL   O049s       1     -1.05    15.999
   23524      Ob       1     SIL   O049t       1     -1.05    15.999
   23525      Ob       1     SIL   O049u       1     -1.05    15.999
   23526      Si       1     SIL   Si24y       1       2.1    28.086
   23527      Si       1     SIL   Si24z       1       2.1    28.086
   23528      Si       1     SIL   Si250       1       2.1    28.086
   23529      Ob       1     SIL   O049v       1     -1.05    15.999
   23530      Ob       1     SIL   O049w       1     -1.05    15.999
   23531      Ob       1     SIL   O049x       1     -1.05    15.999
   23532      Ob       1     SIL   O049y       1     -1.05    15.999
   23533      Ob       1     SIL   O049z       1     -1.05    15.999
   23534      Ob       1     SIL   O04A0       1     -1.05    15.999
   23535      Si       1     SIL   Si251       1       2.1    28.086
   23536      Si       1     SIL   Si252       1       2.1    28.086
   23537      Si       1     SIL   Si253       1       2.1    28.086
   23538      Ob       1     SIL   O04A1       1     -1.05    15.999
   23539      Ob       1     SIL   O04A2       1     -1.05    15.999
   23540      Ob       1     SIL   O04A3       1     -1.05    15.999
   23541      Ob       1     SIL   O04A4       1     -1.05    15.999
   23542      Ob       1     SIL   O04A5       1     -1.05    15.999
   23543      Ob       1     SIL   O04A6       1     -1.05    15.999
   23544      Si       1     SIL   Si254       1       2.1    28.086
   23545      Si       1     SIL   Si255       1       2.1    28.086
   23546      Si       1     SIL   Si256       1       2.1    28.086
   23547      Ob       1     SIL   O04A7       1     -1.05    15.999
   23548       O       1     SIL   O04A8       1    -0.525    15.999
   23549       O       1     SIL   O04A9       1    -0.525    15.999
   23550      Ob       1     SIL   O04AA       1     -1.05    15.999
   23551      Ob       1     SIL   O04AB       1     -1.05    15.999
   23552      Ob       1     SIL   O04AC       1     -1.05    15.999
   23553      Si       1     SIL   Si257       1       2.1    28.086
   23554      Si       1     SIL   Si258       1       2.1    28.086
   23555      Si       1     SIL   Si259       1       2.1    28.086
   23556      Ob       1     SIL   O04AD       1     -1.05    15.999
   23557      Ob       1     SIL   O04AE       1     -1.05    15.999
   23558      Ob       1     SIL   O04AF       1     -1.05    15.999
   23559      Ob       1     SIL   O04AG       1     -1.05    15.999
   23560      Ob       1     SIL   O04AH       1     -1.05    15.999
   23561      Ob       1     SIL   O04AI       1     -1.05    15.999
   23562      Si       1     SIL   Si25A       1       2.1    28.086
   23563      Si       1     SIL   Si25B       1       2.1    28.086
   23564      Si       1     SIL   Si25C       1       2.1    28.086
   23565      Ob       1     SIL   O04AJ       1     -1.05    15.999
   23566      Ob       1     SIL   O04AK       1     -1.05    15.999
   23567      Ob       1     SIL   O04AL       1     -1.05    15.999
   23568      Ob       1     SIL   O04AM       1     -1.05    15.999
   23569      Ob       1     SIL   O04AN       1     -1.05    15.999
   23570      Ob       1     SIL   O04AO       1     -1.05    15.999
   23571      Si       1     SIL   Si25D       1       2.1    28.086
   23572      Si       1     SIL   Si25E       1       2.1    28.086
   23573      Si       1     SIL   Si25F       1       2.1    28.086
   23574      Ob       1     SIL   O04AP       1     -1.05    15.999
   23575      Ob       1     SIL   O04AQ       1     -1.05    15.999
   23576      Ob       1     SIL   O04AR       1     -1.05    15.999
   23577      Ob       1     SIL   O04AS       1     -1.05    15.999
   23578      Ob       1     SIL   O04AT       1     -1.05    15.999
   23579      Ob       1     SIL   O04AU       1     -1.05    15.999
   23580      Si       1     SIL   Si25G       1       2.1    28.086
   23581      Si       1     SIL   Si25H       1       2.1    28.086
   23582      Si       1     SIL   Si25I       1       2.1    28.086
   23583      Ob       1     SIL   O04AV       1     -1.05    15.999
   23584      Ob       1     SIL   O04AW       1     -1.05    15.999
   23585      Ob       1     SIL   O04AX       1     -1.05    15.999
   23586      Ob       1     SIL   O04AY       1     -1.05    15.999
   23587      Ob       1     SIL   O04AZ       1     -1.05    15.999
   23588      Ob       1     SIL   O04Aa       1     -1.05    15.999
   23589      Si       1     SIL   Si25J       1       2.1    28.086
   23590      Si       1     SIL   Si25K       1       2.1    28.086
   23591      Si       1     SIL   Si25L       1       2.1    28.086
   23592      Ob       1     SIL   O04Ab       1     -1.05    15.999
   23593      Ob       1     SIL   O04Ac       1     -1.05    15.999
   23594      Ob       1     SIL   O04Ad       1     -1.05    15.999
   23595      Ob       1     SIL   O04Ae       1     -1.05    15.999
   23596      Ob       1     SIL   O04Af       1     -1.05    15.999
   23597      Ob       1     SIL   O04Ag       1     -1.05    15.999
   23598      Si       1     SIL   Si25M       1       2.1    28.086
   23599      Si       1     SIL   Si25N       1       2.1    28.086
   23600      Si       1     SIL   Si25O       1       2.1    28.086
   23601      Ob       1     SIL   O04Ah       1     -1.05    15.999
   23602      Ob       1     SIL   O04Ai       1     -1.05    15.999
   23603      Ob       1     SIL   O04Aj       1     -1.05    15.999
   23604      Ob       1     SIL   O04Ak       1     -1.05    15.999
   23605      Ob       1     SIL   O04Al       1     -1.05    15.999
   23606      Ob       1     SIL   O04Am       1     -1.05    15.999
   23607      Si       1     SIL   Si25P       1       2.1    28.086
   23608      Si       1     SIL   Si25Q       1       2.1    28.086
   23609      Si       1     SIL   Si25R       1       2.1    28.086
   23610      Ob       1     SIL   O04An       1     -1.05    15.999
   23611      Ob       1     SIL   O04Ao       1     -1.05    15.999
   23612      Ob       1     SIL   O04Ap       1     -1.05    15.999
   23613      Ob       1     SIL   O04Aq       1     -1.05    15.999
   23614      Ob       1     SIL   O04Ar       1     -1.05    15.999
   23615      Ob       1     SIL   O04As       1     -1.05    15.999
   23616      Si       1     SIL   Si25S       1       2.1    28.086
   23617      Si       1     SIL   Si25T       1       2.1    28.086
   23618      Si       1     SIL   Si25U       1       2.1    28.086
   23619      Ob       1     SIL   O04At       1     -1.05    15.999
   23620      Ob       1     SIL   O04Au       1     -1.05    15.999
   23621      Ob       1     SIL   O04Av       1     -1.05    15.999
   23622      Ob       1     SIL   O04Aw       1     -1.05    15.999
   23623      Ob       1     SIL   O04Ax       1     -1.05    15.999
   23624      Ob       1     SIL   O04Ay       1     -1.05    15.999
   23625      Si       1     SIL   Si25V       1       2.1    28.086
   23626      Si       1     SIL   Si25W       1       2.1    28.086
   23627      Si       1     SIL   Si25X       1       2.1    28.086
   23628      Ob       1     SIL   O04Az       1     -1.05    15.999
   23629      Ob       1     SIL   O04B0       1     -1.05    15.999
   23630      Ob       1     SIL   O04B1       1     -1.05    15.999
   23631      Ob       1     SIL   O04B2       1     -1.05    15.999
   23632      Ob       1     SIL   O04B3       1     -1.05    15.999
   23633      Ob       1     SIL   O04B4       1     -1.05    15.999
   23634      Si       1     SIL   Si25Y       1       2.1    28.086
   23635      Si       1     SIL   Si25Z       1       2.1    28.086
   23636      Si       1     SIL   Si25a       1       2.1    28.086
   23637      Ob       1     SIL   O04B5       1     -1.05    15.999
   23638      Ob       1     SIL   O04B6       1     -1.05    15.999
   23639      Ob       1     SIL   O04B7       1     -1.05    15.999
   23640      Ob       1     SIL   O04B8       1     -1.05    15.999
   23641      Ob       1     SIL   O04B9       1     -1.05    15.999
   23642      Ob       1     SIL   O04BA       1     -1.05    15.999
   23643      Si       1     SIL   Si25b       1       2.1    28.086
   23644      Si       1     SIL   Si25c       1       2.1    28.086
   23645      Si       1     SIL   Si25d       1       2.1    28.086
   23646      Ob       1     SIL   O04BB       1     -1.05    15.999
   23647      Ob       1     SIL   O04BC       1     -1.05    15.999
   23648      Ob       1     SIL   O04BD       1     -1.05    15.999
   23649      Ob       1     SIL   O04BE       1     -1.05    15.999
   23650      Ob       1     SIL   O04BF       1     -1.05    15.999
   23651      Ob       1     SIL   O04BG       1     -1.05    15.999
   23652      Si       1     SIL   Si25e       1       2.1    28.086
   23653      Si       1     SIL   Si25f       1       2.1    28.086
   23654      Si       1     SIL   Si25g       1       2.1    28.086
   23655      Ob       1     SIL   O04BH       1     -1.05    15.999
   23656      Ob       1     SIL   O04BI       1     -1.05    15.999
   23657      Ob       1     SIL   O04BJ       1     -1.05    15.999
   23658      Ob       1     SIL   O04BK       1     -1.05    15.999
   23659      Ob       1     SIL   O04BL       1     -1.05    15.999
   23660      Ob       1     SIL   O04BM       1     -1.05    15.999
   23661      Si       1     SIL   Si25h       1       2.1    28.086
   23662      Si       1     SIL   Si25i       1       2.1    28.086
   23663      Si       1     SIL   Si25j       1       2.1    28.086
   23664      Ob       1     SIL   O04BN       1     -1.05    15.999
   23665      Ob       1     SIL   O04BO       1     -1.05    15.999
   23666      Ob       1     SIL   O04BP       1     -1.05    15.999
   23667      Ob       1     SIL   O04BQ       1     -1.05    15.999
   23668      Ob       1     SIL   O04BR       1     -1.05    15.999
   23669      Ob       1     SIL   O04BS       1     -1.05    15.999
   23670      Si       1     SIL   Si25k       1       2.1    28.086
   23671      Si       1     SIL   Si25l       1       2.1    28.086
   23672      Si       1     SIL   Si25m       1       2.1    28.086
   23673      Ob       1     SIL   O04BT       1     -1.05    15.999
   23674      Ob       1     SIL   O04BU       1     -1.05    15.999
   23675      Ob       1     SIL   O04BV       1     -1.05    15.999
   23676      Ob       1     SIL   O04BW       1     -1.05    15.999
   23677      Ob       1     SIL   O04BX       1     -1.05    15.999
   23678      Ob       1     SIL   O04BY       1     -1.05    15.999
   23679      Si       1     SIL   Si25n       1       2.1    28.086
   23680      Si       1     SIL   Si25o       1       2.1    28.086
   23681      Si       1     SIL   Si25p       1       2.1    28.086
   23682      Ob       1     SIL   O04BZ       1     -1.05    15.999
   23683      Ob       1     SIL   O04Ba       1     -1.05    15.999
   23684      Ob       1     SIL   O04Bb       1     -1.05    15.999
   23685      Ob       1     SIL   O04Bc       1     -1.05    15.999
   23686      Ob       1     SIL   O04Bd       1     -1.05    15.999
   23687      Ob       1     SIL   O04Be       1     -1.05    15.999
   23688      Si       1     SIL   Si25q       1       2.1    28.086
   23689      Si       1     SIL   Si25r       1       2.1    28.086
   23690      Si       1     SIL   Si25s       1       2.1    28.086
   23691      Ob       1     SIL   O04Bf       1     -1.05    15.999
   23692      Ob       1     SIL   O04Bg       1     -1.05    15.999
   23693      Ob       1     SIL   O04Bh       1     -1.05    15.999
   23694      Ob       1     SIL   O04Bi       1     -1.05    15.999
   23695      Ob       1     SIL   O04Bj       1     -1.05    15.999
   23696      Ob       1     SIL   O04Bk       1     -1.05    15.999
   23697      Si       1     SIL   Si25t       1       2.1    28.086
   23698      Si       1     SIL   Si25u       1       2.1    28.086
   23699      Si       1     SIL   Si25v       1       2.1    28.086
   23700      Ob       1     SIL   O04Bl       1     -1.05    15.999
   23701      Ob       1     SIL   O04Bm       1     -1.05    15.999
   23702      Ob       1     SIL   O04Bn       1     -1.05    15.999
   23703      Ob       1     SIL   O04Bo       1     -1.05    15.999
   23704      Ob       1     SIL   O04Bp       1     -1.05    15.999
   23705      Ob       1     SIL   O04Bq       1     -1.05    15.999
   23706      Si       1     SIL   Si25w       1       2.1    28.086
   23707      Si       1     SIL   Si25x       1       2.1    28.086
   23708      Si       1     SIL   Si25y       1       2.1    28.086
   23709      Ob       1     SIL   O04Br       1     -1.05    15.999
   23710      Ob       1     SIL   O04Bs       1     -1.05    15.999
   23711      Ob       1     SIL   O04Bt       1     -1.05    15.999
   23712      Ob       1     SIL   O04Bu       1     -1.05    15.999
   23713      Ob       1     SIL   O04Bv       1     -1.05    15.999
   23714      Ob       1     SIL   O04Bw       1     -1.05    15.999
   23715      Si       1     SIL   Si25z       1       2.1    28.086
   23716      Si       1     SIL   Si260       1       2.1    28.086
   23717      Si       1     SIL   Si261       1       2.1    28.086
   23718      Ob       1     SIL   O04Bx       1     -1.05    15.999
   23719      Ob       1     SIL   O04By       1     -1.05    15.999
   23720      Ob       1     SIL   O04Bz       1     -1.05    15.999
   23721      Ob       1     SIL   O04C0       1     -1.05    15.999
   23722      Ob       1     SIL   O04C1       1     -1.05    15.999
   23723      Ob       1     SIL   O04C2       1     -1.05    15.999
   23724      Si       1     SIL   Si262       1       2.1    28.086
   23725      Si       1     SIL   Si263       1       2.1    28.086
   23726      Si       1     SIL   Si264       1       2.1    28.086
   23727      Ob       1     SIL   O04C3       1     -1.05    15.999
   23728      Ob       1     SIL   O04C4       1     -1.05    15.999
   23729      Ob       1     SIL   O04C5       1     -1.05    15.999
   23730      Ob       1     SIL   O04C6       1     -1.05    15.999
   23731      Ob       1     SIL   O04C7       1     -1.05    15.999
   23732      Ob       1     SIL   O04C8       1     -1.05    15.999
   23733      Si       1     SIL   Si265       1       2.1    28.086
   23734      Si       1     SIL   Si266       1       2.1    28.086
   23735      Si       1     SIL   Si267       1       2.1    28.086
   23736      Ob       1     SIL   O04C9       1     -1.05    15.999
   23737      Ob       1     SIL   O04CA       1     -1.05    15.999
   23738      Ob       1     SIL   O04CB       1     -1.05    15.999
   23739      Ob       1     SIL   O04CC       1     -1.05    15.999
   23740      Ob       1     SIL   O04CD       1     -1.05    15.999
   23741      Ob       1     SIL   O04CE       1     -1.05    15.999
   23742      Si       1     SIL   Si268       1       2.1    28.086
   23743      Si       1     SIL   Si269       1       2.1    28.086
   23744      Si       1     SIL   Si26A       1       2.1    28.086
   23745      Ob       1     SIL   O04CF       1     -1.05    15.999
   23746      Ob       1     SIL   O04CG       1     -1.05    15.999
   23747      Ob       1     SIL   O04CH       1     -1.05    15.999
   23748      Ob       1     SIL   O04CI       1     -1.05    15.999
   23749      Ob       1     SIL   O04CJ       1     -1.05    15.999
   23750      Ob       1     SIL   O04CK       1     -1.05    15.999
   23751      Si       1     SIL   Si26B       1       2.1    28.086
   23752      Si       1     SIL   Si26C       1       2.1    28.086
   23753      Si       1     SIL   Si26D       1       2.1    28.086
   23754      Ob       1     SIL   O04CL       1     -1.05    15.999
   23755       O       1     SIL   O04CM       1    -0.525    15.999
   23756       O       1     SIL   O04CN       1    -0.525    15.999
   23757      Ob       1     SIL   O04CO       1     -1.05    15.999
   23758      Ob       1     SIL   O04CP       1     -1.05    15.999
   23759      Ob       1     SIL   O04CQ       1     -1.05    15.999
   23760      Si       1     SIL   Si26E       1       2.1    28.086
   23761      Si       1     SIL   Si26F       1       2.1    28.086
   23762      Si       1     SIL   Si26G       1       2.1    28.086
   23763      Ob       1     SIL   O04CR       1     -1.05    15.999
   23764      Ob       1     SIL   O04CS       1     -1.05    15.999
   23765      Ob       1     SIL   O04CT       1     -1.05    15.999
   23766      Ob       1     SIL   O04CU       1     -1.05    15.999
   23767      Ob       1     SIL   O04CV       1     -1.05    15.999
   23768      Ob       1     SIL   O04CW       1     -1.05    15.999
   23769      Si       1     SIL   Si26H       1       2.1    28.086
   23770      Si       1     SIL   Si26I       1       2.1    28.086
   23771      Si       1     SIL   Si26J       1       2.1    28.086
   23772      Ob       1     SIL   O04CX       1     -1.05    15.999
   23773      Ob       1     SIL   O04CY       1     -1.05    15.999
   23774      Ob       1     SIL   O04CZ       1     -1.05    15.999
   23775      Ob       1     SIL   O04Ca       1     -1.05    15.999
   23776      Ob       1     SIL   O04Cb       1     -1.05    15.999
   23777      Ob       1     SIL   O04Cc       1     -1.05    15.999
   23778      Si       1     SIL   Si26K       1       2.1    28.086
   23779      Si       1     SIL   Si26L       1       2.1    28.086
   23780      Si       1     SIL   Si26M       1       2.1    28.086
   23781      Ob       1     SIL   O04Cd       1     -1.05    15.999
   23782      Ob       1     SIL   O04Ce       1     -1.05    15.999
   23783      Ob       1     SIL   O04Cf       1     -1.05    15.999
   23784      Ob       1     SIL   O04Cg       1     -1.05    15.999
   23785      Ob       1     SIL   O04Ch       1     -1.05    15.999
   23786      Ob       1     SIL   O04Ci       1     -1.05    15.999
   23787      Si       1     SIL   Si26N       1       2.1    28.086
   23788      Si       1     SIL   Si26O       1       2.1    28.086
   23789      Si       1     SIL   Si26P       1       2.1    28.086
   23790      Ob       1     SIL   O04Cj       1     -1.05    15.999
   23791      Ob       1     SIL   O04Ck       1     -1.05    15.999
   23792      Ob       1     SIL   O04Cl       1     -1.05    15.999
   23793      Ob       1     SIL   O04Cm       1     -1.05    15.999
   23794      Ob       1     SIL   O04Cn       1     -1.05    15.999
   23795      Ob       1     SIL   O04Co       1     -1.05    15.999
   23796      Si       1     SIL   Si26Q       1       2.1    28.086
   23797      Si       1     SIL   Si26R       1       2.1    28.086
   23798      Si       1     SIL   Si26S       1       2.1    28.086
   23799      Ob       1     SIL   O04Cp       1     -1.05    15.999
   23800      Ob       1     SIL   O04Cq       1     -1.05    15.999
   23801      Ob       1     SIL   O04Cr       1     -1.05    15.999
   23802      Ob       1     SIL   O04Cs       1     -1.05    15.999
   23803      Ob       1     SIL   O04Ct       1     -1.05    15.999
   23804      Ob       1     SIL   O04Cu       1     -1.05    15.999
   23805      Si       1     SIL   Si26T       1       2.1    28.086
   23806      Si       1     SIL   Si26U       1       2.1    28.086
   23807      Si       1     SIL   Si26V       1       2.1    28.086
   23808      Ob       1     SIL   O04Cv       1     -1.05    15.999
   23809      Ob       1     SIL   O04Cw       1     -1.05    15.999
   23810      Ob       1     SIL   O04Cx       1     -1.05    15.999
   23811      Ob       1     SIL   O04Cy       1     -1.05    15.999
   23812      Ob       1     SIL   O04Cz       1     -1.05    15.999
   23813      Ob       1     SIL   O04D0       1     -1.05    15.999
   23814      Si       1     SIL   Si26W       1       2.1    28.086
   23815      Si       1     SIL   Si26X       1       2.1    28.086
   23816      Si       1     SIL   Si26Y       1       2.1    28.086
   23817      Ob       1     SIL   O04D1       1     -1.05    15.999
   23818      Ob       1     SIL   O04D2       1     -1.05    15.999
   23819      Ob       1     SIL   O04D3       1     -1.05    15.999
   23820      Ob       1     SIL   O04D4       1     -1.05    15.999
   23821      Ob       1     SIL   O04D5       1     -1.05    15.999
   23822      Ob       1     SIL   O04D6       1     -1.05    15.999
   23823      Si       1     SIL   Si26Z       1       2.1    28.086
   23824      Si       1     SIL   Si26a       1       2.1    28.086
   23825      Si       1     SIL   Si26b       1       2.1    28.086
   23826      Ob       1     SIL   O04D7       1     -1.05    15.999
   23827      Ob       1     SIL   O04D8       1     -1.05    15.999
   23828      Ob       1     SIL   O04D9       1     -1.05    15.999
   23829      Ob       1     SIL   O04DA       1     -1.05    15.999
   23830      Ob       1     SIL   O04DB       1     -1.05    15.999
   23831      Ob       1     SIL   O04DC       1     -1.05    15.999
   23832      Si       1     SIL   Si26c       1       2.1    28.086
   23833      Si       1     SIL   Si26d       1       2.1    28.086
   23834      Si       1     SIL   Si26e       1       2.1    28.086
   23835      Ob       1     SIL   O04DD       1     -1.05    15.999
   23836      Ob       1     SIL   O04DE       1     -1.05    15.999
   23837      Ob       1     SIL   O04DF       1     -1.05    15.999
   23838      Ob       1     SIL   O04DG       1     -1.05    15.999
   23839      Ob       1     SIL   O04DH       1     -1.05    15.999
   23840      Ob       1     SIL   O04DI       1     -1.05    15.999
   23841      Si       1     SIL   Si26f       1       2.1    28.086
   23842      Si       1     SIL   Si26g       1       2.1    28.086
   23843      Si       1     SIL   Si26h       1       2.1    28.086
   23844      Ob       1     SIL   O04DJ       1     -1.05    15.999
   23845      Ob       1     SIL   O04DK       1     -1.05    15.999
   23846      Ob       1     SIL   O04DL       1     -1.05    15.999
   23847      Ob       1     SIL   O04DM       1     -1.05    15.999
   23848      Ob       1     SIL   O04DN       1     -1.05    15.999
   23849      Ob       1     SIL   O04DO       1     -1.05    15.999
   23850      Si       1     SIL   Si26i       1       2.1    28.086
   23851      Si       1     SIL   Si26j       1       2.1    28.086
   23852      Si       1     SIL   Si26k       1       2.1    28.086
   23853      Ob       1     SIL   O04DP       1     -1.05    15.999
   23854      Ob       1     SIL   O04DQ       1     -1.05    15.999
   23855      Ob       1     SIL   O04DR       1     -1.05    15.999
   23856      Ob       1     SIL   O04DS       1     -1.05    15.999
   23857      Ob       1     SIL   O04DT       1     -1.05    15.999
   23858      Ob       1     SIL   O04DU       1     -1.05    15.999
   23859      Si       1     SIL   Si26l       1       2.1    28.086
   23860      Si       1     SIL   Si26m       1       2.1    28.086
   23861      Si       1     SIL   Si26n       1       2.1    28.086
   23862      Ob       1     SIL   O04DV       1     -1.05    15.999
   23863      Ob       1     SIL   O04DW       1     -1.05    15.999
   23864      Ob       1     SIL   O04DX       1     -1.05    15.999
   23865      Ob       1     SIL   O04DY       1     -1.05    15.999
   23866      Ob       1     SIL   O04DZ       1     -1.05    15.999
   23867      Ob       1     SIL   O04Da       1     -1.05    15.999
   23868      Si       1     SIL   Si26o       1       2.1    28.086
   23869      Si       1     SIL   Si26p       1       2.1    28.086
   23870      Si       1     SIL   Si26q       1       2.1    28.086
   23871      Ob       1     SIL   O04Db       1     -1.05    15.999
   23872      Ob       1     SIL   O04Dc       1     -1.05    15.999
   23873      Ob       1     SIL   O04Dd       1     -1.05    15.999
   23874      Ob       1     SIL   O04De       1     -1.05    15.999
   23875      Ob       1     SIL   O04Df       1     -1.05    15.999
   23876      Ob       1     SIL   O04Dg       1     -1.05    15.999
   23877      Si       1     SIL   Si26r       1       2.1    28.086
   23878      Si       1     SIL   Si26s       1       2.1    28.086
   23879      Si       1     SIL   Si26t       1       2.1    28.086
   23880      Ob       1     SIL   O04Dh       1     -1.05    15.999
   23881      Ob       1     SIL   O04Di       1     -1.05    15.999
   23882      Ob       1     SIL   O04Dj       1     -1.05    15.999
   23883      Ob       1     SIL   O04Dk       1     -1.05    15.999
   23884      Ob       1     SIL   O04Dl       1     -1.05    15.999
   23885      Ob       1     SIL   O04Dm       1     -1.05    15.999
   23886      Si       1     SIL   Si26u       1       2.1    28.086
   23887      Si       1     SIL   Si26v       1       2.1    28.086
   23888      Si       1     SIL   Si26w       1       2.1    28.086
   23889      Ob       1     SIL   O04Dn       1     -1.05    15.999
   23890      Ob       1     SIL   O04Do       1     -1.05    15.999
   23891      Ob       1     SIL   O04Dp       1     -1.05    15.999
   23892      Ob       1     SIL   O04Dq       1     -1.05    15.999
   23893      Ob       1     SIL   O04Dr       1     -1.05    15.999
   23894      Ob       1     SIL   O04Ds       1     -1.05    15.999
   23895      Si       1     SIL   Si26x       1       2.1    28.086
   23896      Si       1     SIL   Si26y       1       2.1    28.086
   23897      Si       1     SIL   Si26z       1       2.1    28.086
   23898      Ob       1     SIL   O04Dt       1     -1.05    15.999
   23899      Ob       1     SIL   O04Du       1     -1.05    15.999
   23900      Ob       1     SIL   O04Dv       1     -1.05    15.999
   23901      Ob       1     SIL   O04Dw       1     -1.05    15.999
   23902      Ob       1     SIL   O04Dx       1     -1.05    15.999
   23903      Ob       1     SIL   O04Dy       1     -1.05    15.999
   23904      Si       1     SIL   Si270       1       2.1    28.086
   23905      Si       1     SIL   Si271       1       2.1    28.086
   23906      Si       1     SIL   Si272       1       2.1    28.086
   23907      Ob       1     SIL   O04Dz       1     -1.05    15.999
   23908      Ob       1     SIL   O04E0       1     -1.05    15.999
   23909      Ob       1     SIL   O04E1       1     -1.05    15.999
   23910      Ob       1     SIL   O04E2       1     -1.05    15.999
   23911      Ob       1     SIL   O04E3       1     -1.05    15.999
   23912      Ob       1     SIL   O04E4       1     -1.05    15.999
   23913      Si       1     SIL   Si273       1       2.1    28.086
   23914      Si       1     SIL   Si274       1       2.1    28.086
   23915      Si       1     SIL   Si275       1       2.1    28.086
   23916      Ob       1     SIL   O04E5       1     -1.05    15.999
   23917      Ob       1     SIL   O04E6       1     -1.05    15.999
   23918      Ob       1     SIL   O04E7       1     -1.05    15.999
   23919      Ob       1     SIL   O04E8       1     -1.05    15.999
   23920      Ob       1     SIL   O04E9       1     -1.05    15.999
   23921      Ob       1     SIL   O04EA       1     -1.05    15.999
   23922      Si       1     SIL   Si276       1       2.1    28.086
   23923      Si       1     SIL   Si277       1       2.1    28.086
   23924      Si       1     SIL   Si278       1       2.1    28.086
   23925      Ob       1     SIL   O04EB       1     -1.05    15.999
   23926      Ob       1     SIL   O04EC       1     -1.05    15.999
   23927      Ob       1     SIL   O04ED       1     -1.05    15.999
   23928      Ob       1     SIL   O04EE       1     -1.05    15.999
   23929      Ob       1     SIL   O04EF       1     -1.05    15.999
   23930      Ob       1     SIL   O04EG       1     -1.05    15.999
   23931      Si       1     SIL   Si279       1       2.1    28.086
   23932      Si       1     SIL   Si27A       1       2.1    28.086
   23933      Si       1     SIL   Si27B       1       2.1    28.086
   23934      Ob       1     SIL   O04EH       1     -1.05    15.999
   23935      Ob       1     SIL   O04EI       1     -1.05    15.999
   23936      Ob       1     SIL   O04EJ       1     -1.05    15.999
   23937      Ob       1     SIL   O04EK       1     -1.05    15.999
   23938      Ob       1     SIL   O04EL       1     -1.05    15.999
   23939      Ob       1     SIL   O04EM       1     -1.05    15.999
   23940      Si       1     SIL   Si27C       1       2.1    28.086
   23941      Si       1     SIL   Si27D       1       2.1    28.086
   23942      Si       1     SIL   Si27E       1       2.1    28.086
   23943      Ob       1     SIL   O04EN       1     -1.05    15.999
   23944      Ob       1     SIL   O04EO       1     -1.05    15.999
   23945      Ob       1     SIL   O04EP       1     -1.05    15.999
   23946      Ob       1     SIL   O04EQ       1     -1.05    15.999
   23947      Ob       1     SIL   O04ER       1     -1.05    15.999
   23948      Ob       1     SIL   O04ES       1     -1.05    15.999
   23949      Si       1     SIL   Si27F       1       2.1    28.086
   23950      Si       1     SIL   Si27G       1       2.1    28.086
   23951      Si       1     SIL   Si27H       1       2.1    28.086
   23952      Ob       1     SIL   O04ET       1     -1.05    15.999
   23953      Ob       1     SIL   O04EU       1     -1.05    15.999
   23954      Ob       1     SIL   O04EV       1     -1.05    15.999
   23955      Ob       1     SIL   O04EW       1     -1.05    15.999
   23956      Ob       1     SIL   O04EX       1     -1.05    15.999
   23957      Ob       1     SIL   O04EY       1     -1.05    15.999
   23958      Si       1     SIL   Si27I       1       2.1    28.086
   23959      Si       1     SIL   Si27J       1       2.1    28.086
   23960      Si       1     SIL   Si27K       1       2.1    28.086
   23961      Ob       1     SIL   O04EZ       1     -1.05    15.999
   23962       O       1     SIL   O04Ea       1    -0.525    15.999
   23963       O       1     SIL   O04Eb       1    -0.525    15.999
   23964      Ob       1     SIL   O04Ec       1     -1.05    15.999
   23965      Ob       1     SIL   O04Ed       1     -1.05    15.999
   23966      Ob       1     SIL   O04Ee       1     -1.05    15.999
   23967      Si       1     SIL   Si27L       1       2.1    28.086
   23968      Si       1     SIL   Si27M       1       2.1    28.086
   23969      Si       1     SIL   Si27N       1       2.1    28.086
   23970      Ob       1     SIL   O04Ef       1     -1.05    15.999
   23971      Ob       1     SIL   O04Eg       1     -1.05    15.999
   23972      Ob       1     SIL   O04Eh       1     -1.05    15.999
   23973      Ob       1     SIL   O04Ei       1     -1.05    15.999
   23974      Ob       1     SIL   O04Ej       1     -1.05    15.999
   23975      Ob       1     SIL   O04Ek       1     -1.05    15.999
   23976      Si       1     SIL   Si27O       1       2.1    28.086
   23977      Si       1     SIL   Si27P       1       2.1    28.086
   23978      Si       1     SIL   Si27Q       1       2.1    28.086
   23979      Ob       1     SIL   O04El       1     -1.05    15.999
   23980      Ob       1     SIL   O04Em       1     -1.05    15.999
   23981      Ob       1     SIL   O04En       1     -1.05    15.999
   23982      Ob       1     SIL   O04Eo       1     -1.05    15.999
   23983      Ob       1     SIL   O04Ep       1     -1.05    15.999
   23984      Ob       1     SIL   O04Eq       1     -1.05    15.999
   23985      Si       1     SIL   Si27R       1       2.1    28.086
   23986      Si       1     SIL   Si27S       1       2.1    28.086
   23987      Si       1     SIL   Si27T       1       2.1    28.086
   23988      Ob       1     SIL   O04Er       1     -1.05    15.999
   23989      Ob       1     SIL   O04Es       1     -1.05    15.999
   23990      Ob       1     SIL   O04Et       1     -1.05    15.999
   23991      Ob       1     SIL   O04Eu       1     -1.05    15.999
   23992      Ob       1     SIL   O04Ev       1     -1.05    15.999
   23993      Ob       1     SIL   O04Ew       1     -1.05    15.999
   23994      Si       1     SIL   Si27U       1       2.1    28.086
   23995      Si       1     SIL   Si27V       1       2.1    28.086
   23996      Si       1     SIL   Si27W       1       2.1    28.086
   23997      Ob       1     SIL   O04Ex       1     -1.05    15.999
   23998      Ob       1     SIL   O04Ey       1     -1.05    15.999
   23999      Ob       1     SIL   O04Ez       1     -1.05    15.999
   24000      Ob       1     SIL   O04F0       1     -1.05    15.999
   24001      Ob       1     SIL   O04F1       1     -1.05    15.999
   24002      Ob       1     SIL   O04F2       1     -1.05    15.999
   24003      Si       1     SIL   Si27X       1       2.1    28.086
   24004      Si       1     SIL   Si27Y       1       2.1    28.086
   24005      Si       1     SIL   Si27Z       1       2.1    28.086
   24006      Ob       1     SIL   O04F3       1     -1.05    15.999
   24007      Ob       1     SIL   O04F4       1     -1.05    15.999
   24008      Ob       1     SIL   O04F5       1     -1.05    15.999
   24009      Ob       1     SIL   O04F6       1     -1.05    15.999
   24010      Ob       1     SIL   O04F7       1     -1.05    15.999
   24011      Ob       1     SIL   O04F8       1     -1.05    15.999
   24012      Si       1     SIL   Si27a       1       2.1    28.086
   24013      Si       1     SIL   Si27b       1       2.1    28.086
   24014      Si       1     SIL   Si27c       1       2.1    28.086
   24015      Ob       1     SIL   O04F9       1     -1.05    15.999
   24016      Ob       1     SIL   O04FA       1     -1.05    15.999
   24017      Ob       1     SIL   O04FB       1     -1.05    15.999
   24018      Ob       1     SIL   O04FC       1     -1.05    15.999
   24019      Ob       1     SIL   O04FD       1     -1.05    15.999
   24020      Ob       1     SIL   O04FE       1     -1.05    15.999
   24021      Si       1     SIL   Si27d       1       2.1    28.086
   24022      Si       1     SIL   Si27e       1       2.1    28.086
   24023      Si       1     SIL   Si27f       1       2.1    28.086
   24024      Ob       1     SIL   O04FF       1     -1.05    15.999
   24025      Ob       1     SIL   O04FG       1     -1.05    15.999
   24026      Ob       1     SIL   O04FH       1     -1.05    15.999
   24027      Ob       1     SIL   O04FI       1     -1.05    15.999
   24028      Ob       1     SIL   O04FJ       1     -1.05    15.999
   24029      Ob       1     SIL   O04FK       1     -1.05    15.999
   24030      Si       1     SIL   Si27g       1       2.1    28.086
   24031      Si       1     SIL   Si27h       1       2.1    28.086
   24032      Si       1     SIL   Si27i       1       2.1    28.086
   24033      Ob       1     SIL   O04FL       1     -1.05    15.999
   24034      Ob       1     SIL   O04FM       1     -1.05    15.999
   24035      Ob       1     SIL   O04FN       1     -1.05    15.999
   24036      Ob       1     SIL   O04FO       1     -1.05    15.999
   24037      Ob       1     SIL   O04FP       1     -1.05    15.999
   24038      Ob       1     SIL   O04FQ       1     -1.05    15.999
   24039      Si       1     SIL   Si27j       1       2.1    28.086
   24040      Si       1     SIL   Si27k       1       2.1    28.086
   24041      Si       1     SIL   Si27l       1       2.1    28.086
   24042      Ob       1     SIL   O04FR       1     -1.05    15.999
   24043      Ob       1     SIL   O04FS       1     -1.05    15.999
   24044      Ob       1     SIL   O04FT       1     -1.05    15.999
   24045      Ob       1     SIL   O04FU       1     -1.05    15.999
   24046      Ob       1     SIL   O04FV       1     -1.05    15.999
   24047      Ob       1     SIL   O04FW       1     -1.05    15.999
   24048      Si       1     SIL   Si27m       1       2.1    28.086
   24049      Si       1     SIL   Si27n       1       2.1    28.086
   24050      Si       1     SIL   Si27o       1       2.1    28.086
   24051      Ob       1     SIL   O04FX       1     -1.05    15.999
   24052      Ob       1     SIL   O04FY       1     -1.05    15.999
   24053      Ob       1     SIL   O04FZ       1     -1.05    15.999
   24054      Ob       1     SIL   O04Fa       1     -1.05    15.999
   24055      Ob       1     SIL   O04Fb       1     -1.05    15.999
   24056      Ob       1     SIL   O04Fc       1     -1.05    15.999
   24057      Si       1     SIL   Si27p       1       2.1    28.086
   24058      Si       1     SIL   Si27q       1       2.1    28.086
   24059      Si       1     SIL   Si27r       1       2.1    28.086
   24060      Ob       1     SIL   O04Fd       1     -1.05    15.999
   24061      Ob       1     SIL   O04Fe       1     -1.05    15.999
   24062      Ob       1     SIL   O04Ff       1     -1.05    15.999
   24063      Ob       1     SIL   O04Fg       1     -1.05    15.999
   24064      Ob       1     SIL   O04Fh       1     -1.05    15.999
   24065      Ob       1     SIL   O04Fi       1     -1.05    15.999
   24066      Si       1     SIL   Si27s       1       2.1    28.086
   24067      Si       1     SIL   Si27t       1       2.1    28.086
   24068      Si       1     SIL   Si27u       1       2.1    28.086
   24069      Ob       1     SIL   O04Fj       1     -1.05    15.999
   24070      Ob       1     SIL   O04Fk       1     -1.05    15.999
   24071      Ob       1     SIL   O04Fl       1     -1.05    15.999
   24072      Ob       1     SIL   O04Fm       1     -1.05    15.999
   24073      Ob       1     SIL   O04Fn       1     -1.05    15.999
   24074      Ob       1     SIL   O04Fo       1     -1.05    15.999
   24075      Si       1     SIL   Si27v       1       2.1    28.086
   24076      Si       1     SIL   Si27w       1       2.1    28.086
   24077      Si       1     SIL   Si27x       1       2.1    28.086
   24078      Ob       1     SIL   O04Fp       1     -1.05    15.999
   24079      Ob       1     SIL   O04Fq       1     -1.05    15.999
   24080      Ob       1     SIL   O04Fr       1     -1.05    15.999
   24081      Ob       1     SIL   O04Fs       1     -1.05    15.999
   24082      Ob       1     SIL   O04Ft       1     -1.05    15.999
   24083      Ob       1     SIL   O04Fu       1     -1.05    15.999
   24084      Si       1     SIL   Si27y       1       2.1    28.086
   24085      Si       1     SIL   Si27z       1       2.1    28.086
   24086      Si       1     SIL   Si280       1       2.1    28.086
   24087      Ob       1     SIL   O04Fv       1     -1.05    15.999
   24088      Ob       1     SIL   O04Fw       1     -1.05    15.999
   24089      Ob       1     SIL   O04Fx       1     -1.05    15.999
   24090      Ob       1     SIL   O04Fy       1     -1.05    15.999
   24091      Ob       1     SIL   O04Fz       1     -1.05    15.999
   24092      Ob       1     SIL   O04G0       1     -1.05    15.999
   24093      Si       1     SIL   Si281       1       2.1    28.086
   24094      Si       1     SIL   Si282       1       2.1    28.086
   24095      Si       1     SIL   Si283       1       2.1    28.086
   24096      Ob       1     SIL   O04G1       1     -1.05    15.999
   24097      Ob       1     SIL   O04G2       1     -1.05    15.999
   24098      Ob       1     SIL   O04G3       1     -1.05    15.999
   24099      Ob       1     SIL   O04G4       1     -1.05    15.999
   24100      Ob       1     SIL   O04G5       1     -1.05    15.999
   24101      Ob       1     SIL   O04G6       1     -1.05    15.999
   24102      Si       1     SIL   Si284       1       2.1    28.086
   24103      Si       1     SIL   Si285       1       2.1    28.086
   24104      Si       1     SIL   Si286       1       2.1    28.086
   24105      Ob       1     SIL   O04G7       1     -1.05    15.999
   24106      Ob       1     SIL   O04G8       1     -1.05    15.999
   24107      Ob       1     SIL   O04G9       1     -1.05    15.999
   24108      Ob       1     SIL   O04GA       1     -1.05    15.999
   24109      Ob       1     SIL   O04GB       1     -1.05    15.999
   24110      Ob       1     SIL   O04GC       1     -1.05    15.999
   24111      Si       1     SIL   Si287       1       2.1    28.086
   24112      Si       1     SIL   Si288       1       2.1    28.086
   24113      Si       1     SIL   Si289       1       2.1    28.086
   24114      Ob       1     SIL   O04GD       1     -1.05    15.999
   24115      Ob       1     SIL   O04GE       1     -1.05    15.999
   24116      Ob       1     SIL   O04GF       1     -1.05    15.999
   24117      Ob       1     SIL   O04GG       1     -1.05    15.999
   24118      Ob       1     SIL   O04GH       1     -1.05    15.999
   24119      Ob       1     SIL   O04GI       1     -1.05    15.999
   24120      Si       1     SIL   Si28A       1       2.1    28.086
   24121      Si       1     SIL   Si28B       1       2.1    28.086
   24122      Si       1     SIL   Si28C       1       2.1    28.086
   24123      Ob       1     SIL   O04GJ       1     -1.05    15.999
   24124      Ob       1     SIL   O04GK       1     -1.05    15.999
   24125      Ob       1     SIL   O04GL       1     -1.05    15.999
   24126      Ob       1     SIL   O04GM       1     -1.05    15.999
   24127      Ob       1     SIL   O04GN       1     -1.05    15.999
   24128      Ob       1     SIL   O04GO       1     -1.05    15.999
   24129      Si       1     SIL   Si28D       1       2.1    28.086
   24130      Si       1     SIL   Si28E       1       2.1    28.086
   24131      Si       1     SIL   Si28F       1       2.1    28.086
   24132      Ob       1     SIL   O04GP       1     -1.05    15.999
   24133      Ob       1     SIL   O04GQ       1     -1.05    15.999
   24134      Ob       1     SIL   O04GR       1     -1.05    15.999
   24135      Ob       1     SIL   O04GS       1     -1.05    15.999
   24136      Ob       1     SIL   O04GT       1     -1.05    15.999
   24137      Ob       1     SIL   O04GU       1     -1.05    15.999
   24138      Si       1     SIL   Si28G       1       2.1    28.086
   24139      Si       1     SIL   Si28H       1       2.1    28.086
   24140      Si       1     SIL   Si28I       1       2.1    28.086
   24141      Ob       1     SIL   O04GV       1     -1.05    15.999
   24142      Ob       1     SIL   O04GW       1     -1.05    15.999
   24143      Ob       1     SIL   O04GX       1     -1.05    15.999
   24144      Ob       1     SIL   O04GY       1     -1.05    15.999
   24145      Ob       1     SIL   O04GZ       1     -1.05    15.999
   24146      Ob       1     SIL   O04Ga       1     -1.05    15.999
   24147      Si       1     SIL   Si28J       1       2.1    28.086
   24148      Si       1     SIL   Si28K       1       2.1    28.086
   24149      Si       1     SIL   Si28L       1       2.1    28.086
   24150      Ob       1     SIL   O04Gb       1     -1.05    15.999
   24151      Ob       1     SIL   O04Gc       1     -1.05    15.999
   24152      Ob       1     SIL   O04Gd       1     -1.05    15.999
   24153      Ob       1     SIL   O04Ge       1     -1.05    15.999
   24154      Ob       1     SIL   O04Gf       1     -1.05    15.999
   24155      Ob       1     SIL   O04Gg       1     -1.05    15.999
   24156      Si       1     SIL   Si28M       1       2.1    28.086
   24157      Si       1     SIL   Si28N       1       2.1    28.086
   24158      Si       1     SIL   Si28O       1       2.1    28.086
   24159      Ob       1     SIL   O04Gh       1     -1.05    15.999
   24160      Ob       1     SIL   O04Gi       1     -1.05    15.999
   24161      Ob       1     SIL   O04Gj       1     -1.05    15.999
   24162      Ob       1     SIL   O04Gk       1     -1.05    15.999
   24163      Ob       1     SIL   O04Gl       1     -1.05    15.999
   24164      Ob       1     SIL   O04Gm       1     -1.05    15.999
   24165      Si       1     SIL   Si28P       1       2.1    28.086
   24166      Si       1     SIL   Si28Q       1       2.1    28.086
   24167      Si       1     SIL   Si28R       1       2.1    28.086
   24168      Ob       1     SIL   O04Gn       1     -1.05    15.999
   24169       O       1     SIL   O04Go       1    -0.525    15.999
   24170       O       1     SIL   O04Gp       1    -0.525    15.999
   24171      Ob       1     SIL   O04Gq       1     -1.05    15.999
   24172      Ob       1     SIL   O04Gr       1     -1.05    15.999
   24173      Ob       1     SIL   O04Gs       1     -1.05    15.999
   24174      Si       1     SIL   Si28S       1       2.1    28.086
   24175      Si       1     SIL   Si28T       1       2.1    28.086
   24176      Si       1     SIL   Si28U       1       2.1    28.086
   24177      Ob       1     SIL   O04Gt       1     -1.05    15.999
   24178      Ob       1     SIL   O04Gu       1     -1.05    15.999
   24179      Ob       1     SIL   O04Gv       1     -1.05    15.999
   24180      Ob       1     SIL   O04Gw       1     -1.05    15.999
   24181      Ob       1     SIL   O04Gx       1     -1.05    15.999
   24182      Ob       1     SIL   O04Gy       1     -1.05    15.999
   24183      Si       1     SIL   Si28V       1       2.1    28.086
   24184      Si       1     SIL   Si28W       1       2.1    28.086
   24185      Si       1     SIL   Si28X       1       2.1    28.086
   24186      Ob       1     SIL   O04Gz       1     -1.05    15.999
   24187      Ob       1     SIL   O04H0       1     -1.05    15.999
   24188      Ob       1     SIL   O04H1       1     -1.05    15.999
   24189      Ob       1     SIL   O04H2       1     -1.05    15.999
   24190      Ob       1     SIL   O04H3       1     -1.05    15.999
   24191      Ob       1     SIL   O04H4       1     -1.05    15.999
   24192      Si       1     SIL   Si28Y       1       2.1    28.086
   24193      Si       1     SIL   Si28Z       1       2.1    28.086
   24194      Si       1     SIL   Si28a       1       2.1    28.086
   24195      Ob       1     SIL   O04H5       1     -1.05    15.999
   24196      Ob       1     SIL   O04H6       1     -1.05    15.999
   24197      Ob       1     SIL   O04H7       1     -1.05    15.999
   24198      Ob       1     SIL   O04H8       1     -1.05    15.999
   24199      Ob       1     SIL   O04H9       1     -1.05    15.999
   24200      Ob       1     SIL   O04HA       1     -1.05    15.999
   24201      Si       1     SIL   Si28b       1       2.1    28.086
   24202      Si       1     SIL   Si28c       1       2.1    28.086
   24203      Si       1     SIL   Si28d       1       2.1    28.086
   24204      Ob       1     SIL   O04HB       1     -1.05    15.999
   24205      Ob       1     SIL   O04HC       1     -1.05    15.999
   24206      Ob       1     SIL   O04HD       1     -1.05    15.999
   24207      Ob       1     SIL   O04HE       1     -1.05    15.999
   24208      Ob       1     SIL   O04HF       1     -1.05    15.999
   24209      Ob       1     SIL   O04HG       1     -1.05    15.999
   24210      Si       1     SIL   Si28e       1       2.1    28.086
   24211      Si       1     SIL   Si28f       1       2.1    28.086
   24212      Si       1     SIL   Si28g       1       2.1    28.086
   24213      Ob       1     SIL   O04HH       1     -1.05    15.999
   24214      Ob       1     SIL   O04HI       1     -1.05    15.999
   24215      Ob       1     SIL   O04HJ       1     -1.05    15.999
   24216      Ob       1     SIL   O04HK       1     -1.05    15.999
   24217      Ob       1     SIL   O04HL       1     -1.05    15.999
   24218      Ob       1     SIL   O04HM       1     -1.05    15.999
   24219      Si       1     SIL   Si28h       1       2.1    28.086
   24220      Si       1     SIL   Si28i       1       2.1    28.086
   24221      Si       1     SIL   Si28j       1       2.1    28.086
   24222      Ob       1     SIL   O04HN       1     -1.05    15.999
   24223      Ob       1     SIL   O04HO       1     -1.05    15.999
   24224      Ob       1     SIL   O04HP       1     -1.05    15.999
   24225      Ob       1     SIL   O04HQ       1     -1.05    15.999
   24226      Ob       1     SIL   O04HR       1     -1.05    15.999
   24227      Ob       1     SIL   O04HS       1     -1.05    15.999
   24228      Si       1     SIL   Si28k       1       2.1    28.086
   24229      Si       1     SIL   Si28l       1       2.1    28.086
   24230      Si       1     SIL   Si28m       1       2.1    28.086
   24231      Ob       1     SIL   O04HT       1     -1.05    15.999
   24232      Ob       1     SIL   O04HU       1     -1.05    15.999
   24233      Ob       1     SIL   O04HV       1     -1.05    15.999
   24234      Ob       1     SIL   O04HW       1     -1.05    15.999
   24235      Ob       1     SIL   O04HX       1     -1.05    15.999
   24236      Ob       1     SIL   O04HY       1     -1.05    15.999
   24237      Si       1     SIL   Si28n       1       2.1    28.086
   24238      Si       1     SIL   Si28o       1       2.1    28.086
   24239      Si       1     SIL   Si28p       1       2.1    28.086
   24240      Ob       1     SIL   O04HZ       1     -1.05    15.999
   24241      Ob       1     SIL   O04Ha       1     -1.05    15.999
   24242      Ob       1     SIL   O04Hb       1     -1.05    15.999
   24243      Ob       1     SIL   O04Hc       1     -1.05    15.999
   24244      Ob       1     SIL   O04Hd       1     -1.05    15.999
   24245      Ob       1     SIL   O04He       1     -1.05    15.999
   24246      Si       1     SIL   Si28q       1       2.1    28.086
   24247      Si       1     SIL   Si28r       1       2.1    28.086
   24248      Si       1     SIL   Si28s       1       2.1    28.086
   24249      Ob       1     SIL   O04Hf       1     -1.05    15.999
   24250      Ob       1     SIL   O04Hg       1     -1.05    15.999
   24251      Ob       1     SIL   O04Hh       1     -1.05    15.999
   24252      Ob       1     SIL   O04Hi       1     -1.05    15.999
   24253      Ob       1     SIL   O04Hj       1     -1.05    15.999
   24254      Ob       1     SIL   O04Hk       1     -1.05    15.999
   24255      Si       1     SIL   Si28t       1       2.1    28.086
   24256      Si       1     SIL   Si28u       1       2.1    28.086
   24257      Si       1     SIL   Si28v       1       2.1    28.086
   24258      Ob       1     SIL   O04Hl       1     -1.05    15.999
   24259      Ob       1     SIL   O04Hm       1     -1.05    15.999
   24260      Ob       1     SIL   O04Hn       1     -1.05    15.999
   24261      Ob       1     SIL   O04Ho       1     -1.05    15.999
   24262      Ob       1     SIL   O04Hp       1     -1.05    15.999
   24263      Ob       1     SIL   O04Hq       1     -1.05    15.999
   24264      Si       1     SIL   Si28w       1       2.1    28.086
   24265      Si       1     SIL   Si28x       1       2.1    28.086
   24266      Si       1     SIL   Si28y       1       2.1    28.086
   24267      Ob       1     SIL   O04Hr       1     -1.05    15.999
   24268      Ob       1     SIL   O04Hs       1     -1.05    15.999
   24269      Ob       1     SIL   O04Ht       1     -1.05    15.999
   24270      Ob       1     SIL   O04Hu       1     -1.05    15.999
   24271      Ob       1     SIL   O04Hv       1     -1.05    15.999
   24272      Ob       1     SIL   O04Hw       1     -1.05    15.999
   24273      Si       1     SIL   Si28z       1       2.1    28.086
   24274      Si       1     SIL   Si290       1       2.1    28.086
   24275      Si       1     SIL   Si291       1       2.1    28.086
   24276      Ob       1     SIL   O04Hx       1     -1.05    15.999
   24277      Ob       1     SIL   O04Hy       1     -1.05    15.999
   24278      Ob       1     SIL   O04Hz       1     -1.05    15.999
   24279      Ob       1     SIL   O04I0       1     -1.05    15.999
   24280      Ob       1     SIL   O04I1       1     -1.05    15.999
   24281      Ob       1     SIL   O04I2       1     -1.05    15.999
   24282      Si       1     SIL   Si292       1       2.1    28.086
   24283      Si       1     SIL   Si293       1       2.1    28.086
   24284      Si       1     SIL   Si294       1       2.1    28.086
   24285      Ob       1     SIL   O04I3       1     -1.05    15.999
   24286      Ob       1     SIL   O04I4       1     -1.05    15.999
   24287      Ob       1     SIL   O04I5       1     -1.05    15.999
   24288      Ob       1     SIL   O04I6       1     -1.05    15.999
   24289      Ob       1     SIL   O04I7       1     -1.05    15.999
   24290      Ob       1     SIL   O04I8       1     -1.05    15.999
   24291      Si       1     SIL   Si295       1       2.1    28.086
   24292      Si       1     SIL   Si296       1       2.1    28.086
   24293      Si       1     SIL   Si297       1       2.1    28.086
   24294      Ob       1     SIL   O04I9       1     -1.05    15.999
   24295      Ob       1     SIL   O04IA       1     -1.05    15.999
   24296      Ob       1     SIL   O04IB       1     -1.05    15.999
   24297      Ob       1     SIL   O04IC       1     -1.05    15.999
   24298      Ob       1     SIL   O04ID       1     -1.05    15.999
   24299      Ob       1     SIL   O04IE       1     -1.05    15.999
   24300      Si       1     SIL   Si298       1       2.1    28.086
   24301      Si       1     SIL   Si299       1       2.1    28.086
   24302      Si       1     SIL   Si29A       1       2.1    28.086
   24303      Ob       1     SIL   O04IF       1     -1.05    15.999
   24304      Ob       1     SIL   O04IG       1     -1.05    15.999
   24305      Ob       1     SIL   O04IH       1     -1.05    15.999
   24306      Ob       1     SIL   O04II       1     -1.05    15.999
   24307      Ob       1     SIL   O04IJ       1     -1.05    15.999
   24308      Ob       1     SIL   O04IK       1     -1.05    15.999
   24309      Si       1     SIL   Si29B       1       2.1    28.086
   24310      Si       1     SIL   Si29C       1       2.1    28.086
   24311      Si       1     SIL   Si29D       1       2.1    28.086
   24312      Ob       1     SIL   O04IL       1     -1.05    15.999
   24313      Ob       1     SIL   O04IM       1     -1.05    15.999
   24314      Ob       1     SIL   O04IN       1     -1.05    15.999
   24315      Ob       1     SIL   O04IO       1     -1.05    15.999
   24316      Ob       1     SIL   O04IP       1     -1.05    15.999
   24317      Ob       1     SIL   O04IQ       1     -1.05    15.999
   24318      Si       1     SIL   Si29E       1       2.1    28.086
   24319      Si       1     SIL   Si29F       1       2.1    28.086
   24320      Si       1     SIL   Si29G       1       2.1    28.086
   24321      Ob       1     SIL   O04IR       1     -1.05    15.999
   24322      Ob       1     SIL   O04IS       1     -1.05    15.999
   24323      Ob       1     SIL   O04IT       1     -1.05    15.999
   24324      Ob       1     SIL   O04IU       1     -1.05    15.999
   24325      Ob       1     SIL   O04IV       1     -1.05    15.999
   24326      Ob       1     SIL   O04IW       1     -1.05    15.999
   24327      Si       1     SIL   Si29H       1       2.1    28.086
   24328      Si       1     SIL   Si29I       1       2.1    28.086
   24329      Si       1     SIL   Si29J       1       2.1    28.086
   24330      Ob       1     SIL   O04IX       1     -1.05    15.999
   24331      Ob       1     SIL   O04IY       1     -1.05    15.999
   24332      Ob       1     SIL   O04IZ       1     -1.05    15.999
   24333      Ob       1     SIL   O04Ia       1     -1.05    15.999
   24334      Ob       1     SIL   O04Ib       1     -1.05    15.999
   24335      Ob       1     SIL   O04Ic       1     -1.05    15.999
   24336      Si       1     SIL   Si29K       1       2.1    28.086
   24337      Si       1     SIL   Si29L       1       2.1    28.086
   24338      Si       1     SIL   Si29M       1       2.1    28.086
   24339      Ob       1     SIL   O04Id       1     -1.05    15.999
   24340      Ob       1     SIL   O04Ie       1     -1.05    15.999
   24341      Ob       1     SIL   O04If       1     -1.05    15.999
   24342      Ob       1     SIL   O04Ig       1     -1.05    15.999
   24343      Ob       1     SIL   O04Ih       1     -1.05    15.999
   24344      Ob       1     SIL   O04Ii       1     -1.05    15.999
   24345      Si       1     SIL   Si29N       1       2.1    28.086
   24346      Si       1     SIL   Si29O       1       2.1    28.086
   24347      Si       1     SIL   Si29P       1       2.1    28.086
   24348      Ob       1     SIL   O04Ij       1     -1.05    15.999
   24349      Ob       1     SIL   O04Ik       1     -1.05    15.999
   24350      Ob       1     SIL   O04Il       1     -1.05    15.999
   24351      Ob       1     SIL   O04Im       1     -1.05    15.999
   24352      Ob       1     SIL   O04In       1     -1.05    15.999
   24353      Ob       1     SIL   O04Io       1     -1.05    15.999
   24354      Si       1     SIL   Si29Q       1       2.1    28.086
   24355      Si       1     SIL   Si29R       1       2.1    28.086
   24356      Si       1     SIL   Si29S       1       2.1    28.086
   24357      Ob       1     SIL   O04Ip       1     -1.05    15.999
   24358      Ob       1     SIL   O04Iq       1     -1.05    15.999
   24359      Ob       1     SIL   O04Ir       1     -1.05    15.999
   24360      Ob       1     SIL   O04Is       1     -1.05    15.999
   24361      Ob       1     SIL   O04It       1     -1.05    15.999
   24362      Ob       1     SIL   O04Iu       1     -1.05    15.999
   24363      Si       1     SIL   Si29T       1       2.1    28.086
   24364      Si       1     SIL   Si29U       1       2.1    28.086
   24365      Si       1     SIL   Si29V       1       2.1    28.086
   24366      Ob       1     SIL   O04Iv       1     -1.05    15.999
   24367      Ob       1     SIL   O04Iw       1     -1.05    15.999
   24368      Ob       1     SIL   O04Ix       1     -1.05    15.999
   24369      Ob       1     SIL   O04Iy       1     -1.05    15.999
   24370      Ob       1     SIL   O04Iz       1     -1.05    15.999
   24371      Ob       1     SIL   O04J0       1     -1.05    15.999
   24372      Si       1     SIL   Si29W       1       2.1    28.086
   24373      Si       1     SIL   Si29X       1       2.1    28.086
   24374      Si       1     SIL   Si29Y       1       2.1    28.086
   24375      Ob       1     SIL   O04J1       1     -1.05    15.999
   24376       O       1     SIL   O04J2       1    -0.525    15.999
   24377       O       1     SIL   O04J3       1    -0.525    15.999
   24378      Ob       1     SIL   O04J4       1     -1.05    15.999
   24379      Ob       1     SIL   O04J5       1     -1.05    15.999
   24380      Ob       1     SIL   O04J6       1     -1.05    15.999
   24381      Si       1     SIL   Si29Z       1       2.1    28.086
   24382      Si       1     SIL   Si29a       1       2.1    28.086
   24383      Si       1     SIL   Si29b       1       2.1    28.086
   24384      Ob       1     SIL   O04J7       1     -1.05    15.999
   24385      Ob       1     SIL   O04J8       1     -1.05    15.999
   24386      Ob       1     SIL   O04J9       1     -1.05    15.999
   24387      Ob       1     SIL   O04JA       1     -1.05    15.999
   24388      Ob       1     SIL   O04JB       1     -1.05    15.999
   24389      Ob       1     SIL   O04JC       1     -1.05    15.999
   24390      Si       1     SIL   Si29c       1       2.1    28.086
   24391      Si       1     SIL   Si29d       1       2.1    28.086
   24392      Si       1     SIL   Si29e       1       2.1    28.086
   24393      Ob       1     SIL   O04JD       1     -1.05    15.999
   24394      Ob       1     SIL   O04JE       1     -1.05    15.999
   24395      Ob       1     SIL   O04JF       1     -1.05    15.999
   24396      Ob       1     SIL   O04JG       1     -1.05    15.999
   24397      Ob       1     SIL   O04JH       1     -1.05    15.999
   24398      Ob       1     SIL   O04JI       1     -1.05    15.999
   24399      Si       1     SIL   Si29f       1       2.1    28.086
   24400      Si       1     SIL   Si29g       1       2.1    28.086
   24401      Si       1     SIL   Si29h       1       2.1    28.086
   24402      Ob       1     SIL   O04JJ       1     -1.05    15.999
   24403      Ob       1     SIL   O04JK       1     -1.05    15.999
   24404      Ob       1     SIL   O04JL       1     -1.05    15.999
   24405      Ob       1     SIL   O04JM       1     -1.05    15.999
   24406      Ob       1     SIL   O04JN       1     -1.05    15.999
   24407      Ob       1     SIL   O04JO       1     -1.05    15.999
   24408      Si       1     SIL   Si29i       1       2.1    28.086
   24409      Si       1     SIL   Si29j       1       2.1    28.086
   24410      Si       1     SIL   Si29k       1       2.1    28.086
   24411      Ob       1     SIL   O04JP       1     -1.05    15.999
   24412      Ob       1     SIL   O04JQ       1     -1.05    15.999
   24413      Ob       1     SIL   O04JR       1     -1.05    15.999
   24414      Ob       1     SIL   O04JS       1     -1.05    15.999
   24415      Ob       1     SIL   O04JT       1     -1.05    15.999
   24416      Ob       1     SIL   O04JU       1     -1.05    15.999
   24417      Si       1     SIL   Si29l       1       2.1    28.086
   24418      Si       1     SIL   Si29m       1       2.1    28.086
   24419      Si       1     SIL   Si29n       1       2.1    28.086
   24420      Ob       1     SIL   O04JV       1     -1.05    15.999
   24421      Ob       1     SIL   O04JW       1     -1.05    15.999
   24422      Ob       1     SIL   O04JX       1     -1.05    15.999
   24423      Ob       1     SIL   O04JY       1     -1.05    15.999
   24424      Ob       1     SIL   O04JZ       1     -1.05    15.999
   24425      Ob       1     SIL   O04Ja       1     -1.05    15.999
   24426      Si       1     SIL   Si29o       1       2.1    28.086
   24427      Si       1     SIL   Si29p       1       2.1    28.086
   24428      Si       1     SIL   Si29q       1       2.1    28.086
   24429      Ob       1     SIL   O04Jb       1     -1.05    15.999
   24430      Ob       1     SIL   O04Jc       1     -1.05    15.999
   24431      Ob       1     SIL   O04Jd       1     -1.05    15.999
   24432      Ob       1     SIL   O04Je       1     -1.05    15.999
   24433      Ob       1     SIL   O04Jf       1     -1.05    15.999
   24434      Ob       1     SIL   O04Jg       1     -1.05    15.999
   24435      Si       1     SIL   Si29r       1       2.1    28.086
   24436      Si       1     SIL   Si29s       1       2.1    28.086
   24437      Si       1     SIL   Si29t       1       2.1    28.086
   24438      Ob       1     SIL   O04Jh       1     -1.05    15.999
   24439      Ob       1     SIL   O04Ji       1     -1.05    15.999
   24440      Ob       1     SIL   O04Jj       1     -1.05    15.999
   24441      Ob       1     SIL   O04Jk       1     -1.05    15.999
   24442      Ob       1     SIL   O04Jl       1     -1.05    15.999
   24443      Ob       1     SIL   O04Jm       1     -1.05    15.999
   24444      Si       1     SIL   Si29u       1       2.1    28.086
   24445      Si       1     SIL   Si29v       1       2.1    28.086
   24446      Si       1     SIL   Si29w       1       2.1    28.086
   24447      Ob       1     SIL   O04Jn       1     -1.05    15.999
   24448      Ob       1     SIL   O04Jo       1     -1.05    15.999
   24449      Ob       1     SIL   O04Jp       1     -1.05    15.999
   24450      Ob       1     SIL   O04Jq       1     -1.05    15.999
   24451      Ob       1     SIL   O04Jr       1     -1.05    15.999
   24452      Ob       1     SIL   O04Js       1     -1.05    15.999
   24453      Si       1     SIL   Si29x       1       2.1    28.086
   24454      Si       1     SIL   Si29y       1       2.1    28.086
   24455      Si       1     SIL   Si29z       1       2.1    28.086
   24456      Ob       1     SIL   O04Jt       1     -1.05    15.999
   24457      Ob       1     SIL   O04Ju       1     -1.05    15.999
   24458      Ob       1     SIL   O04Jv       1     -1.05    15.999
   24459      Ob       1     SIL   O04Jw       1     -1.05    15.999
   24460      Ob       1     SIL   O04Jx       1     -1.05    15.999
   24461      Ob       1     SIL   O04Jy       1     -1.05    15.999
   24462      Si       1     SIL   Si2A0       1       2.1    28.086
   24463      Si       1     SIL   Si2A1       1       2.1    28.086
   24464      Si       1     SIL   Si2A2       1       2.1    28.086
   24465      Ob       1     SIL   O04Jz       1     -1.05    15.999
   24466      Ob       1     SIL   O04K0       1     -1.05    15.999
   24467      Ob       1     SIL   O04K1       1     -1.05    15.999
   24468      Ob       1     SIL   O04K2       1     -1.05    15.999
   24469      Ob       1     SIL   O04K3       1     -1.05    15.999
   24470      Ob       1     SIL   O04K4       1     -1.05    15.999
   24471      Si       1     SIL   Si2A3       1       2.1    28.086
   24472      Si       1     SIL   Si2A4       1       2.1    28.086
   24473      Si       1     SIL   Si2A5       1       2.1    28.086
   24474      Ob       1     SIL   O04K5       1     -1.05    15.999
   24475      Ob       1     SIL   O04K6       1     -1.05    15.999
   24476      Ob       1     SIL   O04K7       1     -1.05    15.999
   24477      Ob       1     SIL   O04K8       1     -1.05    15.999
   24478      Ob       1     SIL   O04K9       1     -1.05    15.999
   24479      Ob       1     SIL   O04KA       1     -1.05    15.999
   24480      Si       1     SIL   Si2A6       1       2.1    28.086
   24481      Si       1     SIL   Si2A7       1       2.1    28.086
   24482      Si       1     SIL   Si2A8       1       2.1    28.086
   24483      Ob       1     SIL   O04KB       1     -1.05    15.999
   24484      Ob       1     SIL   O04KC       1     -1.05    15.999
   24485      Ob       1     SIL   O04KD       1     -1.05    15.999
   24486      Ob       1     SIL   O04KE       1     -1.05    15.999
   24487      Ob       1     SIL   O04KF       1     -1.05    15.999
   24488      Ob       1     SIL   O04KG       1     -1.05    15.999
   24489      Si       1     SIL   Si2A9       1       2.1    28.086
   24490      Si       1     SIL   Si2AA       1       2.1    28.086
   24491      Si       1     SIL   Si2AB       1       2.1    28.086
   24492      Ob       1     SIL   O04KH       1     -1.05    15.999
   24493      Ob       1     SIL   O04KI       1     -1.05    15.999
   24494      Ob       1     SIL   O04KJ       1     -1.05    15.999
   24495      Ob       1     SIL   O04KK       1     -1.05    15.999
   24496      Ob       1     SIL   O04KL       1     -1.05    15.999
   24497      Ob       1     SIL   O04KM       1     -1.05    15.999
   24498      Si       1     SIL   Si2AC       1       2.1    28.086
   24499      Si       1     SIL   Si2AD       1       2.1    28.086
   24500      Si       1     SIL   Si2AE       1       2.1    28.086
   24501      Ob       1     SIL   O04KN       1     -1.05    15.999
   24502      Ob       1     SIL   O04KO       1     -1.05    15.999
   24503      Ob       1     SIL   O04KP       1     -1.05    15.999
   24504      Ob       1     SIL   O04KQ       1     -1.05    15.999
   24505      Ob       1     SIL   O04KR       1     -1.05    15.999
   24506      Ob       1     SIL   O04KS       1     -1.05    15.999
   24507      Si       1     SIL   Si2AF       1       2.1    28.086
   24508      Si       1     SIL   Si2AG       1       2.1    28.086
   24509      Si       1     SIL   Si2AH       1       2.1    28.086
   24510      Ob       1     SIL   O04KT       1     -1.05    15.999
   24511      Ob       1     SIL   O04KU       1     -1.05    15.999
   24512      Ob       1     SIL   O04KV       1     -1.05    15.999
   24513      Ob       1     SIL   O04KW       1     -1.05    15.999
   24514      Ob       1     SIL   O04KX       1     -1.05    15.999
   24515      Ob       1     SIL   O04KY       1     -1.05    15.999
   24516      Si       1     SIL   Si2AI       1       2.1    28.086
   24517      Si       1     SIL   Si2AJ       1       2.1    28.086
   24518      Si       1     SIL   Si2AK       1       2.1    28.086
   24519      Ob       1     SIL   O04KZ       1     -1.05    15.999
   24520      Ob       1     SIL   O04Ka       1     -1.05    15.999
   24521      Ob       1     SIL   O04Kb       1     -1.05    15.999
   24522      Ob       1     SIL   O04Kc       1     -1.05    15.999
   24523      Ob       1     SIL   O04Kd       1     -1.05    15.999
   24524      Ob       1     SIL   O04Ke       1     -1.05    15.999
   24525      Si       1     SIL   Si2AL       1       2.1    28.086
   24526      Si       1     SIL   Si2AM       1       2.1    28.086
   24527      Si       1     SIL   Si2AN       1       2.1    28.086
   24528      Ob       1     SIL   O04Kf       1     -1.05    15.999
   24529      Ob       1     SIL   O04Kg       1     -1.05    15.999
   24530      Ob       1     SIL   O04Kh       1     -1.05    15.999
   24531      Ob       1     SIL   O04Ki       1     -1.05    15.999
   24532      Ob       1     SIL   O04Kj       1     -1.05    15.999
   24533      Ob       1     SIL   O04Kk       1     -1.05    15.999
   24534      Si       1     SIL   Si2AO       1       2.1    28.086
   24535      Si       1     SIL   Si2AP       1       2.1    28.086
   24536      Si       1     SIL   Si2AQ       1       2.1    28.086
   24537      Ob       1     SIL   O04Kl       1     -1.05    15.999
   24538      Ob       1     SIL   O04Km       1     -1.05    15.999
   24539      Ob       1     SIL   O04Kn       1     -1.05    15.999
   24540      Ob       1     SIL   O04Ko       1     -1.05    15.999
   24541      Ob       1     SIL   O04Kp       1     -1.05    15.999
   24542      Ob       1     SIL   O04Kq       1     -1.05    15.999
   24543      Si       1     SIL   Si2AR       1       2.1    28.086
   24544      Si       1     SIL   Si2AS       1       2.1    28.086
   24545      Si       1     SIL   Si2AT       1       2.1    28.086
   24546      Ob       1     SIL   O04Kr       1     -1.05    15.999
   24547      Ob       1     SIL   O04Ks       1     -1.05    15.999
   24548      Ob       1     SIL   O04Kt       1     -1.05    15.999
   24549      Ob       1     SIL   O04Ku       1     -1.05    15.999
   24550      Ob       1     SIL   O04Kv       1     -1.05    15.999
   24551      Ob       1     SIL   O04Kw       1     -1.05    15.999
   24552      Si       1     SIL   Si2AU       1       2.1    28.086
   24553      Si       1     SIL   Si2AV       1       2.1    28.086
   24554      Si       1     SIL   Si2AW       1       2.1    28.086
   24555      Ob       1     SIL   O04Kx       1     -1.05    15.999
   24556      Ob       1     SIL   O04Ky       1     -1.05    15.999
   24557      Ob       1     SIL   O04Kz       1     -1.05    15.999
   24558      Ob       1     SIL   O04L0       1     -1.05    15.999
   24559      Ob       1     SIL   O04L1       1     -1.05    15.999
   24560      Ob       1     SIL   O04L2       1     -1.05    15.999
   24561      Si       1     SIL   Si2AX       1       2.1    28.086
   24562      Si       1     SIL   Si2AY       1       2.1    28.086
   24563      Si       1     SIL   Si2AZ       1       2.1    28.086
   24564      Ob       1     SIL   O04L3       1     -1.05    15.999
   24565      Ob       1     SIL   O04L4       1     -1.05    15.999
   24566      Ob       1     SIL   O04L5       1     -1.05    15.999
   24567      Ob       1     SIL   O04L6       1     -1.05    15.999
   24568      Ob       1     SIL   O04L7       1     -1.05    15.999
   24569      Ob       1     SIL   O04L8       1     -1.05    15.999
   24570      Si       1     SIL   Si2Aa       1       2.1    28.086
   24571      Si       1     SIL   Si2Ab       1       2.1    28.086
   24572      Si       1     SIL   Si2Ac       1       2.1    28.086
   24573      Ob       1     SIL   O04L9       1     -1.05    15.999
   24574      Ob       1     SIL   O04LA       1     -1.05    15.999
   24575      Ob       1     SIL   O04LB       1     -1.05    15.999
   24576      Ob       1     SIL   O04LC       1     -1.05    15.999
   24577      Ob       1     SIL   O04LD       1     -1.05    15.999
   24578      Ob       1     SIL   O04LE       1     -1.05    15.999
   24579      Si       1     SIL   Si2Ad       1       2.1    28.086
   24580      Si       1     SIL   Si2Ae       1       2.1    28.086
   24581      Si       1     SIL   Si2Af       1       2.1    28.086
   24582      Ob       1     SIL   O04LF       1     -1.05    15.999
   24583       O       1     SIL   O04LG       1    -0.525    15.999
   24584       O       1     SIL   O04LH       1    -0.525    15.999
   24585      Ob       1     SIL   O04LI       1     -1.05    15.999
   24586      Ob       1     SIL   O04LJ       1     -1.05    15.999
   24587      Ob       1     SIL   O04LK       1     -1.05    15.999
   24588      Si       1     SIL   Si2Ag       1       2.1    28.086
   24589      Si       1     SIL   Si2Ah       1       2.1    28.086
   24590      Si       1     SIL   Si2Ai       1       2.1    28.086
   24591      Ob       1     SIL   O04LL       1     -1.05    15.999
   24592      Ob       1     SIL   O04LM       1     -1.05    15.999
   24593      Ob       1     SIL   O04LN       1     -1.05    15.999
   24594      Ob       1     SIL   O04LO       1     -1.05    15.999
   24595      Ob       1     SIL   O04LP       1     -1.05    15.999
   24596      Ob       1     SIL   O04LQ       1     -1.05    15.999
   24597      Si       1     SIL   Si2Aj       1       2.1    28.086
   24598      Si       1     SIL   Si2Ak       1       2.1    28.086
   24599      Si       1     SIL   Si2Al       1       2.1    28.086
   24600      Ob       1     SIL   O04LR       1     -1.05    15.999
   24601      Ob       1     SIL   O04LS       1     -1.05    15.999
   24602      Ob       1     SIL   O04LT       1     -1.05    15.999
   24603      Ob       1     SIL   O04LU       1     -1.05    15.999
   24604      Ob       1     SIL   O04LV       1     -1.05    15.999
   24605      Ob       1     SIL   O04LW       1     -1.05    15.999
   24606      Si       1     SIL   Si2Am       1       2.1    28.086
   24607      Si       1     SIL   Si2An       1       2.1    28.086
   24608      Si       1     SIL   Si2Ao       1       2.1    28.086
   24609      Ob       1     SIL   O04LX       1     -1.05    15.999
   24610      Ob       1     SIL   O04LY       1     -1.05    15.999
   24611      Ob       1     SIL   O04LZ       1     -1.05    15.999
   24612      Ob       1     SIL   O04La       1     -1.05    15.999
   24613      Ob       1     SIL   O04Lb       1     -1.05    15.999
   24614      Ob       1     SIL   O04Lc       1     -1.05    15.999
   24615      Si       1     SIL   Si2Ap       1       2.1    28.086
   24616      Si       1     SIL   Si2Aq       1       2.1    28.086
   24617      Si       1     SIL   Si2Ar       1       2.1    28.086
   24618      Ob       1     SIL   O04Ld       1     -1.05    15.999
   24619      Ob       1     SIL   O04Le       1     -1.05    15.999
   24620      Ob       1     SIL   O04Lf       1     -1.05    15.999
   24621      Ob       1     SIL   O04Lg       1     -1.05    15.999
   24622      Ob       1     SIL   O04Lh       1     -1.05    15.999
   24623      Ob       1     SIL   O04Li       1     -1.05    15.999
   24624      Si       1     SIL   Si2As       1       2.1    28.086
   24625      Si       1     SIL   Si2At       1       2.1    28.086
   24626      Si       1     SIL   Si2Au       1       2.1    28.086
   24627      Ob       1     SIL   O04Lj       1     -1.05    15.999
   24628      Ob       1     SIL   O04Lk       1     -1.05    15.999
   24629      Ob       1     SIL   O04Ll       1     -1.05    15.999
   24630      Ob       1     SIL   O04Lm       1     -1.05    15.999
   24631      Ob       1     SIL   O04Ln       1     -1.05    15.999
   24632      Ob       1     SIL   O04Lo       1     -1.05    15.999
   24633      Si       1     SIL   Si2Av       1       2.1    28.086
   24634      Si       1     SIL   Si2Aw       1       2.1    28.086
   24635      Si       1     SIL   Si2Ax       1       2.1    28.086
   24636      Ob       1     SIL   O04Lp       1     -1.05    15.999
   24637      Ob       1     SIL   O04Lq       1     -1.05    15.999
   24638      Ob       1     SIL   O04Lr       1     -1.05    15.999
   24639      Ob       1     SIL   O04Ls       1     -1.05    15.999
   24640      Ob       1     SIL   O04Lt       1     -1.05    15.999
   24641      Ob       1     SIL   O04Lu       1     -1.05    15.999
   24642      Si       1     SIL   Si2Ay       1       2.1    28.086
   24643      Si       1     SIL   Si2Az       1       2.1    28.086
   24644      Si       1     SIL   Si2B0       1       2.1    28.086
   24645      Ob       1     SIL   O04Lv       1     -1.05    15.999
   24646      Ob       1     SIL   O04Lw       1     -1.05    15.999
   24647      Ob       1     SIL   O04Lx       1     -1.05    15.999
   24648      Ob       1     SIL   O04Ly       1     -1.05    15.999
   24649      Ob       1     SIL   O04Lz       1     -1.05    15.999
   24650      Ob       1     SIL   O04M0       1     -1.05    15.999
   24651      Si       1     SIL   Si2B1       1       2.1    28.086
   24652      Si       1     SIL   Si2B2       1       2.1    28.086
   24653      Si       1     SIL   Si2B3       1       2.1    28.086
   24654      Ob       1     SIL   O04M1       1     -1.05    15.999
   24655      Ob       1     SIL   O04M2       1     -1.05    15.999
   24656      Ob       1     SIL   O04M3       1     -1.05    15.999
   24657      Ob       1     SIL   O04M4       1     -1.05    15.999
   24658      Ob       1     SIL   O04M5       1     -1.05    15.999
   24659      Ob       1     SIL   O04M6       1     -1.05    15.999
   24660      Si       1     SIL   Si2B4       1       2.1    28.086
   24661      Si       1     SIL   Si2B5       1       2.1    28.086
   24662      Si       1     SIL   Si2B6       1       2.1    28.086
   24663      Ob       1     SIL   O04M7       1     -1.05    15.999
   24664      Ob       1     SIL   O04M8       1     -1.05    15.999
   24665      Ob       1     SIL   O04M9       1     -1.05    15.999
   24666      Ob       1     SIL   O04MA       1     -1.05    15.999
   24667      Ob       1     SIL   O04MB       1     -1.05    15.999
   24668      Ob       1     SIL   O04MC       1     -1.05    15.999
   24669      Si       1     SIL   Si2B7       1       2.1    28.086
   24670      Si       1     SIL   Si2B8       1       2.1    28.086
   24671      Si       1     SIL   Si2B9       1       2.1    28.086
   24672      Ob       1     SIL   O04MD       1     -1.05    15.999
   24673      Ob       1     SIL   O04ME       1     -1.05    15.999
   24674      Ob       1     SIL   O04MF       1     -1.05    15.999
   24675      Ob       1     SIL   O04MG       1     -1.05    15.999
   24676      Ob       1     SIL   O04MH       1     -1.05    15.999
   24677      Ob       1     SIL   O04MI       1     -1.05    15.999
   24678      Si       1     SIL   Si2BA       1       2.1    28.086
   24679      Si       1     SIL   Si2BB       1       2.1    28.086
   24680      Si       1     SIL   Si2BC       1       2.1    28.086
   24681      Ob       1     SIL   O04MJ       1     -1.05    15.999
   24682      Ob       1     SIL   O04MK       1     -1.05    15.999
   24683      Ob       1     SIL   O04ML       1     -1.05    15.999
   24684      Ob       1     SIL   O04MM       1     -1.05    15.999
   24685      Ob       1     SIL   O04MN       1     -1.05    15.999
   24686      Ob       1     SIL   O04MO       1     -1.05    15.999
   24687      Si       1     SIL   Si2BD       1       2.1    28.086
   24688      Si       1     SIL   Si2BE       1       2.1    28.086
   24689      Si       1     SIL   Si2BF       1       2.1    28.086
   24690      Ob       1     SIL   O04MP       1     -1.05    15.999
   24691      Ob       1     SIL   O04MQ       1     -1.05    15.999
   24692      Ob       1     SIL   O04MR       1     -1.05    15.999
   24693      Ob       1     SIL   O04MS       1     -1.05    15.999
   24694      Ob       1     SIL   O04MT       1     -1.05    15.999
   24695      Ob       1     SIL   O04MU       1     -1.05    15.999
   24696      Si       1     SIL   Si2BG       1       2.1    28.086
   24697      Si       1     SIL   Si2BH       1       2.1    28.086
   24698      Si       1     SIL   Si2BI       1       2.1    28.086
   24699      Ob       1     SIL   O04MV       1     -1.05    15.999
   24700      Ob       1     SIL   O04MW       1     -1.05    15.999
   24701      Ob       1     SIL   O04MX       1     -1.05    15.999
   24702      Ob       1     SIL   O04MY       1     -1.05    15.999
   24703      Ob       1     SIL   O04MZ       1     -1.05    15.999
   24704      Ob       1     SIL   O04Ma       1     -1.05    15.999
   24705      Si       1     SIL   Si2BJ       1       2.1    28.086
   24706      Si       1     SIL   Si2BK       1       2.1    28.086
   24707      Si       1     SIL   Si2BL       1       2.1    28.086
   24708      Ob       1     SIL   O04Mb       1     -1.05    15.999
   24709      Ob       1     SIL   O04Mc       1     -1.05    15.999
   24710      Ob       1     SIL   O04Md       1     -1.05    15.999
   24711      Ob       1     SIL   O04Me       1     -1.05    15.999
   24712      Ob       1     SIL   O04Mf       1     -1.05    15.999
   24713      Ob       1     SIL   O04Mg       1     -1.05    15.999
   24714      Si       1     SIL   Si2BM       1       2.1    28.086
   24715      Si       1     SIL   Si2BN       1       2.1    28.086
   24716      Si       1     SIL   Si2BO       1       2.1    28.086
   24717      Ob       1     SIL   O04Mh       1     -1.05    15.999
   24718      Ob       1     SIL   O04Mi       1     -1.05    15.999
   24719      Ob       1     SIL   O04Mj       1     -1.05    15.999
   24720      Ob       1     SIL   O04Mk       1     -1.05    15.999
   24721      Ob       1     SIL   O04Ml       1     -1.05    15.999
   24722      Ob       1     SIL   O04Mm       1     -1.05    15.999
   24723      Si       1     SIL   Si2BP       1       2.1    28.086
   24724      Si       1     SIL   Si2BQ       1       2.1    28.086
   24725      Si       1     SIL   Si2BR       1       2.1    28.086
   24726      Ob       1     SIL   O04Mn       1     -1.05    15.999
   24727      Ob       1     SIL   O04Mo       1     -1.05    15.999
   24728      Ob       1     SIL   O04Mp       1     -1.05    15.999
   24729      Ob       1     SIL   O04Mq       1     -1.05    15.999
   24730      Ob       1     SIL   O04Mr       1     -1.05    15.999
   24731      Ob       1     SIL   O04Ms       1     -1.05    15.999
   24732      Si       1     SIL   Si2BS       1       2.1    28.086
   24733      Si       1     SIL   Si2BT       1       2.1    28.086
   24734      Si       1     SIL   Si2BU       1       2.1    28.086
   24735      Ob       1     SIL   O04Mt       1     -1.05    15.999
   24736      Ob       1     SIL   O04Mu       1     -1.05    15.999
   24737      Ob       1     SIL   O04Mv       1     -1.05    15.999
   24738      Ob       1     SIL   O04Mw       1     -1.05    15.999
   24739      Ob       1     SIL   O04Mx       1     -1.05    15.999
   24740      Ob       1     SIL   O04My       1     -1.05    15.999
   24741      Si       1     SIL   Si2BV       1       2.1    28.086
   24742      Si       1     SIL   Si2BW       1       2.1    28.086
   24743      Si       1     SIL   Si2BX       1       2.1    28.086
   24744      Ob       1     SIL   O04Mz       1     -1.05    15.999
   24745      Ob       1     SIL   O04N0       1     -1.05    15.999
   24746      Ob       1     SIL   O04N1       1     -1.05    15.999
   24747      Ob       1     SIL   O04N2       1     -1.05    15.999
   24748      Ob       1     SIL   O04N3       1     -1.05    15.999
   24749      Ob       1     SIL   O04N4       1     -1.05    15.999
   24750      Si       1     SIL   Si2BY       1       2.1    28.086
   24751      Si       1     SIL   Si2BZ       1       2.1    28.086
   24752      Si       1     SIL   Si2Ba       1       2.1    28.086
   24753      Ob       1     SIL   O04N5       1     -1.05    15.999
   24754      Ob       1     SIL   O04N6       1     -1.05    15.999
   24755      Ob       1     SIL   O04N7       1     -1.05    15.999
   24756      Ob       1     SIL   O04N8       1     -1.05    15.999
   24757      Ob       1     SIL   O04N9       1     -1.05    15.999
   24758      Ob       1     SIL   O04NA       1     -1.05    15.999
   24759      Si       1     SIL   Si2Bb       1       2.1    28.086
   24760      Si       1     SIL   Si2Bc       1       2.1    28.086
   24761      Si       1     SIL   Si2Bd       1       2.1    28.086
   24762      Ob       1     SIL   O04NB       1     -1.05    15.999
   24763      Ob       1     SIL   O04NC       1     -1.05    15.999
   24764      Ob       1     SIL   O04ND       1     -1.05    15.999
   24765      Ob       1     SIL   O04NE       1     -1.05    15.999
   24766      Ob       1     SIL   O04NF       1     -1.05    15.999
   24767      Ob       1     SIL   O04NG       1     -1.05    15.999
   24768      Si       1     SIL   Si2Be       1       2.1    28.086
   24769      Si       1     SIL   Si2Bf       1       2.1    28.086
   24770      Si       1     SIL   Si2Bg       1       2.1    28.086
   24771      Ob       1     SIL   O04NH       1     -1.05    15.999
   24772      Ob       1     SIL   O04NI       1     -1.05    15.999
   24773      Ob       1     SIL   O04NJ       1     -1.05    15.999
   24774      Ob       1     SIL   O04NK       1     -1.05    15.999
   24775      Ob       1     SIL   O04NL       1     -1.05    15.999
   24776      Ob       1     SIL   O04NM       1     -1.05    15.999
   24777      Si       1     SIL   Si2Bh       1       2.1    28.086
   24778      Si       1     SIL   Si2Bi       1       2.1    28.086
   24779      Si       1     SIL   Si2Bj       1       2.1    28.086
   24780      Ob       1     SIL   O04NN       1     -1.05    15.999
   24781      Ob       1     SIL   O04NO       1     -1.05    15.999
   24782      Ob       1     SIL   O04NP       1     -1.05    15.999
   24783      Ob       1     SIL   O04NQ       1     -1.05    15.999
   24784      Ob       1     SIL   O04NR       1     -1.05    15.999
   24785      Ob       1     SIL   O04NS       1     -1.05    15.999
   24786      Si       1     SIL   Si2Bk       1       2.1    28.086
   24787      Si       1     SIL   Si2Bl       1       2.1    28.086
   24788      Si       1     SIL   Si2Bm       1       2.1    28.086
   24789      Ob       1     SIL   O04NT       1     -1.05    15.999
   24790       O       1     SIL   O04NU       1    -0.525    15.999
   24791       O       1     SIL   O04NV       1    -0.525    15.999
   24792      Ob       1     SIL   O04NW       1     -1.05    15.999
   24793      Ob       1     SIL   O04NX       1     -1.05    15.999
   24794      Ob       1     SIL   O04NY       1     -1.05    15.999
   24795      Si       1     SIL   Si2Bn       1       2.1    28.086
   24796      Si       1     SIL   Si2Bo       1       2.1    28.086
   24797      Si       1     SIL   Si2Bp       1       2.1    28.086
   24798      Ob       1     SIL   O04NZ       1     -1.05    15.999
   24799      Ob       1     SIL   O04Na       1     -1.05    15.999
   24800      Ob       1     SIL   O04Nb       1     -1.05    15.999
   24801      Ob       1     SIL   O04Nc       1     -1.05    15.999
   24802      Ob       1     SIL   O04Nd       1     -1.05    15.999
   24803      Ob       1     SIL   O04Ne       1     -1.05    15.999
   24804      Si       1     SIL   Si2Bq       1       2.1    28.086
   24805      Si       1     SIL   Si2Br       1       2.1    28.086
   24806      Si       1     SIL   Si2Bs       1       2.1    28.086
   24807      Ob       1     SIL   O04Nf       1     -1.05    15.999
   24808      Ob       1     SIL   O04Ng       1     -1.05    15.999
   24809      Ob       1     SIL   O04Nh       1     -1.05    15.999
   24810      Ob       1     SIL   O04Ni       1     -1.05    15.999
   24811      Ob       1     SIL   O04Nj       1     -1.05    15.999
   24812      Ob       1     SIL   O04Nk       1     -1.05    15.999
   24813      Si       1     SIL   Si2Bt       1       2.1    28.086
   24814      Si       1     SIL   Si2Bu       1       2.1    28.086
   24815      Si       1     SIL   Si2Bv       1       2.1    28.086
   24816      Ob       1     SIL   O04Nl       1     -1.05    15.999
   24817      Ob       1     SIL   O04Nm       1     -1.05    15.999
   24818      Ob       1     SIL   O04Nn       1     -1.05    15.999
   24819      Ob       1     SIL   O04No       1     -1.05    15.999
   24820      Ob       1     SIL   O04Np       1     -1.05    15.999
   24821      Ob       1     SIL   O04Nq       1     -1.05    15.999
   24822      Si       1     SIL   Si2Bw       1       2.1    28.086
   24823      Si       1     SIL   Si2Bx       1       2.1    28.086
   24824      Si       1     SIL   Si2By       1       2.1    28.086
   24825      Ob       1     SIL   O04Nr       1     -1.05    15.999
   24826      Ob       1     SIL   O04Ns       1     -1.05    15.999
   24827      Ob       1     SIL   O04Nt       1     -1.05    15.999
   24828      Ob       1     SIL   O04Nu       1     -1.05    15.999
   24829      Ob       1     SIL   O04Nv       1     -1.05    15.999
   24830      Ob       1     SIL   O04Nw       1     -1.05    15.999
   24831      Si       1     SIL   Si2Bz       1       2.1    28.086
   24832      Si       1     SIL   Si2C0       1       2.1    28.086
   24833      Si       1     SIL   Si2C1       1       2.1    28.086
   24834      Ob       1     SIL   O04Nx       1     -1.05    15.999
   24835      Ob       1     SIL   O04Ny       1     -1.05    15.999
   24836      Ob       1     SIL   O04Nz       1     -1.05    15.999
   24837      Ob       1     SIL   O04O0       1     -1.05    15.999
   24838      Ob       1     SIL   O04O1       1     -1.05    15.999
   24839      Ob       1     SIL   O04O2       1     -1.05    15.999
   24840      Si       1     SIL   Si2C2       1       2.1    28.086
   24841      Si       1     SIL   Si2C3       1       2.1    28.086
   24842      Si       1     SIL   Si2C4       1       2.1    28.086
   24843      Ob       1     SIL   O04O3       1     -1.05    15.999
   24844      Ob       1     SIL   O04O4       1     -1.05    15.999
   24845      Ob       1     SIL   O04O5       1     -1.05    15.999
   24846      Ob       1     SIL   O04O6       1     -1.05    15.999
   24847      Ob       1     SIL   O04O7       1     -1.05    15.999
   24848      Ob       1     SIL   O04O8       1     -1.05    15.999
   24849      Si       1     SIL   Si2C5       1       2.1    28.086
   24850      Si       1     SIL   Si2C6       1       2.1    28.086
   24851      Si       1     SIL   Si2C7       1       2.1    28.086
   24852      Ob       1     SIL   O04O9       1     -1.05    15.999
   24853      Ob       1     SIL   O04OA       1     -1.05    15.999
   24854      Ob       1     SIL   O04OB       1     -1.05    15.999
   24855      Ob       1     SIL   O04OC       1     -1.05    15.999
   24856      Ob       1     SIL   O04OD       1     -1.05    15.999
   24857      Ob       1     SIL   O04OE       1     -1.05    15.999
   24858      Si       1     SIL   Si2C8       1       2.1    28.086
   24859      Si       1     SIL   Si2C9       1       2.1    28.086
   24860      Si       1     SIL   Si2CA       1       2.1    28.086
   24861      Ob       1     SIL   O04OF       1     -1.05    15.999
   24862      Ob       1     SIL   O04OG       1     -1.05    15.999
   24863      Ob       1     SIL   O04OH       1     -1.05    15.999
   24864      Ob       1     SIL   O04OI       1     -1.05    15.999
   24865      Ob       1     SIL   O04OJ       1     -1.05    15.999
   24866      Ob       1     SIL   O04OK       1     -1.05    15.999
   24867      Si       1     SIL   Si2CB       1       2.1    28.086
   24868      Si       1     SIL   Si2CC       1       2.1    28.086
   24869      Si       1     SIL   Si2CD       1       2.1    28.086
   24870      Ob       1     SIL   O04OL       1     -1.05    15.999
   24871      Ob       1     SIL   O04OM       1     -1.05    15.999
   24872      Ob       1     SIL   O04ON       1     -1.05    15.999
   24873      Ob       1     SIL   O04OO       1     -1.05    15.999
   24874      Ob       1     SIL   O04OP       1     -1.05    15.999
   24875      Ob       1     SIL   O04OQ       1     -1.05    15.999
   24876      Si       1     SIL   Si2CE       1       2.1    28.086
   24877      Si       1     SIL   Si2CF       1       2.1    28.086
   24878      Si       1     SIL   Si2CG       1       2.1    28.086
   24879      Ob       1     SIL   O04OR       1     -1.05    15.999
   24880      Ob       1     SIL   O04OS       1     -1.05    15.999
   24881      Ob       1     SIL   O04OT       1     -1.05    15.999
   24882      Ob       1     SIL   O04OU       1     -1.05    15.999
   24883      Ob       1     SIL   O04OV       1     -1.05    15.999
   24884      Ob       1     SIL   O04OW       1     -1.05    15.999
   24885      Si       1     SIL   Si2CH       1       2.1    28.086
   24886      Si       1     SIL   Si2CI       1       2.1    28.086
   24887      Si       1     SIL   Si2CJ       1       2.1    28.086
   24888      Ob       1     SIL   O04OX       1     -1.05    15.999
   24889      Ob       1     SIL   O04OY       1     -1.05    15.999
   24890      Ob       1     SIL   O04OZ       1     -1.05    15.999
   24891      Ob       1     SIL   O04Oa       1     -1.05    15.999
   24892      Ob       1     SIL   O04Ob       1     -1.05    15.999
   24893      Ob       1     SIL   O04Oc       1     -1.05    15.999
   24894      Si       1     SIL   Si2CK       1       2.1    28.086
   24895      Si       1     SIL   Si2CL       1       2.1    28.086
   24896      Si       1     SIL   Si2CM       1       2.1    28.086
   24897      Ob       1     SIL   O04Od       1     -1.05    15.999
   24898      Ob       1     SIL   O04Oe       1     -1.05    15.999
   24899      Ob       1     SIL   O04Of       1     -1.05    15.999
   24900      Ob       1     SIL   O04Og       1     -1.05    15.999
   24901      Ob       1     SIL   O04Oh       1     -1.05    15.999
   24902      Ob       1     SIL   O04Oi       1     -1.05    15.999
   24903      Si       1     SIL   Si2CN       1       2.1    28.086
   24904      Si       1     SIL   Si2CO       1       2.1    28.086
   24905      Si       1     SIL   Si2CP       1       2.1    28.086
   24906      Ob       1     SIL   O04Oj       1     -1.05    15.999
   24907      Ob       1     SIL   O04Ok       1     -1.05    15.999
   24908      Ob       1     SIL   O04Ol       1     -1.05    15.999
   24909      Ob       1     SIL   O04Om       1     -1.05    15.999
   24910      Ob       1     SIL   O04On       1     -1.05    15.999
   24911      Ob       1     SIL   O04Oo       1     -1.05    15.999
   24912      Si       1     SIL   Si2CQ       1       2.1    28.086
   24913      Si       1     SIL   Si2CR       1       2.1    28.086
   24914      Si       1     SIL   Si2CS       1       2.1    28.086
   24915      Ob       1     SIL   O04Op       1     -1.05    15.999
   24916      Ob       1     SIL   O04Oq       1     -1.05    15.999
   24917      Ob       1     SIL   O04Or       1     -1.05    15.999
   24918      Ob       1     SIL   O04Os       1     -1.05    15.999
   24919      Ob       1     SIL   O04Ot       1     -1.05    15.999
   24920      Ob       1     SIL   O04Ou       1     -1.05    15.999
   24921      Si       1     SIL   Si2CT       1       2.1    28.086
   24922      Si       1     SIL   Si2CU       1       2.1    28.086
   24923      Si       1     SIL   Si2CV       1       2.1    28.086
   24924      Ob       1     SIL   O04Ov       1     -1.05    15.999
   24925      Ob       1     SIL   O04Ow       1     -1.05    15.999
   24926      Ob       1     SIL   O04Ox       1     -1.05    15.999
   24927      Ob       1     SIL   O04Oy       1     -1.05    15.999
   24928      Ob       1     SIL   O04Oz       1     -1.05    15.999
   24929      Ob       1     SIL   O04P0       1     -1.05    15.999
   24930      Si       1     SIL   Si2CW       1       2.1    28.086
   24931      Si       1     SIL   Si2CX       1       2.1    28.086
   24932      Si       1     SIL   Si2CY       1       2.1    28.086
   24933      Ob       1     SIL   O04P1       1     -1.05    15.999
   24934      Ob       1     SIL   O04P2       1     -1.05    15.999
   24935      Ob       1     SIL   O04P3       1     -1.05    15.999
   24936      Ob       1     SIL   O04P4       1     -1.05    15.999
   24937      Ob       1     SIL   O04P5       1     -1.05    15.999
   24938      Ob       1     SIL   O04P6       1     -1.05    15.999
   24939      Si       1     SIL   Si2CZ       1       2.1    28.086
   24940      Si       1     SIL   Si2Ca       1       2.1    28.086
   24941      Si       1     SIL   Si2Cb       1       2.1    28.086
   24942      Ob       1     SIL   O04P7       1     -1.05    15.999
   24943      Ob       1     SIL   O04P8       1     -1.05    15.999
   24944      Ob       1     SIL   O04P9       1     -1.05    15.999
   24945      Ob       1     SIL   O04PA       1     -1.05    15.999
   24946      Ob       1     SIL   O04PB       1     -1.05    15.999
   24947      Ob       1     SIL   O04PC       1     -1.05    15.999
   24948      Si       1     SIL   Si2Cc       1       2.1    28.086
   24949      Si       1     SIL   Si2Cd       1       2.1    28.086
   24950      Si       1     SIL   Si2Ce       1       2.1    28.086
   24951      Ob       1     SIL   O04PD       1     -1.05    15.999
   24952      Ob       1     SIL   O04PE       1     -1.05    15.999
   24953      Ob       1     SIL   O04PF       1     -1.05    15.999
   24954      Ob       1     SIL   O04PG       1     -1.05    15.999
   24955      Ob       1     SIL   O04PH       1     -1.05    15.999
   24956      Ob       1     SIL   O04PI       1     -1.05    15.999
   24957      Si       1     SIL   Si2Cf       1       2.1    28.086
   24958      Si       1     SIL   Si2Cg       1       2.1    28.086
   24959      Si       1     SIL   Si2Ch       1       2.1    28.086
   24960      Ob       1     SIL   O04PJ       1     -1.05    15.999
   24961      Ob       1     SIL   O04PK       1     -1.05    15.999
   24962      Ob       1     SIL   O04PL       1     -1.05    15.999
   24963      Ob       1     SIL   O04PM       1     -1.05    15.999
   24964      Ob       1     SIL   O04PN       1     -1.05    15.999
   24965      Ob       1     SIL   O04PO       1     -1.05    15.999
   24966      Si       1     SIL   Si2Ci       1       2.1    28.086
   24967      Si       1     SIL   Si2Cj       1       2.1    28.086
   24968      Si       1     SIL   Si2Ck       1       2.1    28.086
   24969      Ob       1     SIL   O04PP       1     -1.05    15.999
   24970      Ob       1     SIL   O04PQ       1     -1.05    15.999
   24971      Ob       1     SIL   O04PR       1     -1.05    15.999
   24972      Ob       1     SIL   O04PS       1     -1.05    15.999
   24973      Ob       1     SIL   O04PT       1     -1.05    15.999
   24974      Ob       1     SIL   O04PU       1     -1.05    15.999
   24975      Si       1     SIL   Si2Cl       1       2.1    28.086
   24976      Si       1     SIL   Si2Cm       1       2.1    28.086
   24977      Si       1     SIL   Si2Cn       1       2.1    28.086
   24978      Ob       1     SIL   O04PV       1     -1.05    15.999
   24979      Ob       1     SIL   O04PW       1     -1.05    15.999
   24980      Ob       1     SIL   O04PX       1     -1.05    15.999
   24981      Ob       1     SIL   O04PY       1     -1.05    15.999
   24982      Ob       1     SIL   O04PZ       1     -1.05    15.999
   24983      Ob       1     SIL   O04Pa       1     -1.05    15.999
   24984      Si       1     SIL   Si2Co       1       2.1    28.086
   24985      Si       1     SIL   Si2Cp       1       2.1    28.086
   24986      Si       1     SIL   Si2Cq       1       2.1    28.086
   24987      Ob       1     SIL   O04Pb       1     -1.05    15.999
   24988      Ob       1     SIL   O04Pc       1     -1.05    15.999
   24989      Ob       1     SIL   O04Pd       1     -1.05    15.999
   24990      Ob       1     SIL   O04Pe       1     -1.05    15.999
   24991      Ob       1     SIL   O04Pf       1     -1.05    15.999
   24992      Ob       1     SIL   O04Pg       1     -1.05    15.999
   24993      Si       1     SIL   Si2Cr       1       2.1    28.086
   24994      Si       1     SIL   Si2Cs       1       2.1    28.086
   24995      Si       1     SIL   Si2Ct       1       2.1    28.086
   24996      Ob       1     SIL   O04Ph       1     -1.05    15.999
   24997       O       1     SIL   O04Pi       1    -0.525    15.999
   24998       O       1     SIL   O04Pj       1    -0.525    15.999
   24999      Ob       1     SIL   O04Pk       1     -1.05    15.999
   25000      Ob       1     SIL   O04Pl       1     -1.05    15.999
   25001      Ob       1     SIL   O04Pm       1     -1.05    15.999
   25002      Si       1     SIL   Si2Cu       1       2.1    28.086
   25003      Si       1     SIL   Si2Cv       1       2.1    28.086
   25004      Si       1     SIL   Si2Cw       1       2.1    28.086
   25005      Ob       1     SIL   O04Pn       1     -1.05    15.999
   25006      Ob       1     SIL   O04Po       1     -1.05    15.999
   25007      Ob       1     SIL   O04Pp       1     -1.05    15.999
   25008      Ob       1     SIL   O04Pq       1     -1.05    15.999
   25009      Ob       1     SIL   O04Pr       1     -1.05    15.999
   25010      Ob       1     SIL   O04Ps       1     -1.05    15.999
   25011      Si       1     SIL   Si2Cx       1       2.1    28.086
   25012      Si       1     SIL   Si2Cy       1       2.1    28.086
   25013      Si       1     SIL   Si2Cz       1       2.1    28.086
   25014      Ob       1     SIL   O04Pt       1     -1.05    15.999
   25015      Ob       1     SIL   O04Pu       1     -1.05    15.999
   25016      Ob       1     SIL   O04Pv       1     -1.05    15.999
   25017      Ob       1     SIL   O04Pw       1     -1.05    15.999
   25018      Ob       1     SIL   O04Px       1     -1.05    15.999
   25019      Ob       1     SIL   O04Py       1     -1.05    15.999
   25020      Si       1     SIL   Si2D0       1       2.1    28.086
   25021      Si       1     SIL   Si2D1       1       2.1    28.086
   25022      Si       1     SIL   Si2D2       1       2.1    28.086
   25023      Ob       1     SIL   O04Pz       1     -1.05    15.999
   25024      Ob       1     SIL   O04Q0       1     -1.05    15.999
   25025      Ob       1     SIL   O04Q1       1     -1.05    15.999
   25026      Ob       1     SIL   O04Q2       1     -1.05    15.999
   25027      Ob       1     SIL   O04Q3       1     -1.05    15.999
   25028      Ob       1     SIL   O04Q4       1     -1.05    15.999
   25029      Si       1     SIL   Si2D3       1       2.1    28.086
   25030      Si       1     SIL   Si2D4       1       2.1    28.086
   25031      Si       1     SIL   Si2D5       1       2.1    28.086
   25032      Ob       1     SIL   O04Q5       1     -1.05    15.999
   25033      Ob       1     SIL   O04Q6       1     -1.05    15.999
   25034      Ob       1     SIL   O04Q7       1     -1.05    15.999
   25035      Ob       1     SIL   O04Q8       1     -1.05    15.999
   25036      Ob       1     SIL   O04Q9       1     -1.05    15.999
   25037      Ob       1     SIL   O04QA       1     -1.05    15.999
   25038      Si       1     SIL   Si2D6       1       2.1    28.086
   25039      Si       1     SIL   Si2D7       1       2.1    28.086
   25040      Si       1     SIL   Si2D8       1       2.1    28.086
   25041      Ob       1     SIL   O04QB       1     -1.05    15.999
   25042      Ob       1     SIL   O04QC       1     -1.05    15.999
   25043      Ob       1     SIL   O04QD       1     -1.05    15.999
   25044      Ob       1     SIL   O04QE       1     -1.05    15.999
   25045      Ob       1     SIL   O04QF       1     -1.05    15.999
   25046      Ob       1     SIL   O04QG       1     -1.05    15.999
   25047      Si       1     SIL   Si2D9       1       2.1    28.086
   25048      Si       1     SIL   Si2DA       1       2.1    28.086
   25049      Si       1     SIL   Si2DB       1       2.1    28.086
   25050      Ob       1     SIL   O04QH       1     -1.05    15.999
   25051      Ob       1     SIL   O04QI       1     -1.05    15.999
   25052      Ob       1     SIL   O04QJ       1     -1.05    15.999
   25053      Ob       1     SIL   O04QK       1     -1.05    15.999
   25054      Ob       1     SIL   O04QL       1     -1.05    15.999
   25055      Ob       1     SIL   O04QM       1     -1.05    15.999
   25056      Si       1     SIL   Si2DC       1       2.1    28.086
   25057      Si       1     SIL   Si2DD       1       2.1    28.086
   25058      Si       1     SIL   Si2DE       1       2.1    28.086
   25059      Ob       1     SIL   O04QN       1     -1.05    15.999
   25060      Ob       1     SIL   O04QO       1     -1.05    15.999
   25061      Ob       1     SIL   O04QP       1     -1.05    15.999
   25062      Ob       1     SIL   O04QQ       1     -1.05    15.999
   25063      Ob       1     SIL   O04QR       1     -1.05    15.999
   25064      Ob       1     SIL   O04QS       1     -1.05    15.999
   25065      Si       1     SIL   Si2DF       1       2.1    28.086
   25066      Si       1     SIL   Si2DG       1       2.1    28.086
   25067      Si       1     SIL   Si2DH       1       2.1    28.086
   25068      Ob       1     SIL   O04QT       1     -1.05    15.999
   25069      Ob       1     SIL   O04QU       1     -1.05    15.999
   25070      Ob       1     SIL   O04QV       1     -1.05    15.999
   25071      Ob       1     SIL   O04QW       1     -1.05    15.999
   25072      Ob       1     SIL   O04QX       1     -1.05    15.999
   25073      Ob       1     SIL   O04QY       1     -1.05    15.999
   25074      Si       1     SIL   Si2DI       1       2.1    28.086
   25075      Si       1     SIL   Si2DJ       1       2.1    28.086
   25076      Si       1     SIL   Si2DK       1       2.1    28.086
   25077      Ob       1     SIL   O04QZ       1     -1.05    15.999
   25078      Ob       1     SIL   O04Qa       1     -1.05    15.999
   25079      Ob       1     SIL   O04Qb       1     -1.05    15.999
   25080      Ob       1     SIL   O04Qc       1     -1.05    15.999
   25081      Ob       1     SIL   O04Qd       1     -1.05    15.999
   25082      Ob       1     SIL   O04Qe       1     -1.05    15.999
   25083      Si       1     SIL   Si2DL       1       2.1    28.086
   25084      Si       1     SIL   Si2DM       1       2.1    28.086
   25085      Si       1     SIL   Si2DN       1       2.1    28.086
   25086      Ob       1     SIL   O04Qf       1     -1.05    15.999
   25087      Ob       1     SIL   O04Qg       1     -1.05    15.999
   25088      Ob       1     SIL   O04Qh       1     -1.05    15.999
   25089      Ob       1     SIL   O04Qi       1     -1.05    15.999
   25090      Ob       1     SIL   O04Qj       1     -1.05    15.999
   25091      Ob       1     SIL   O04Qk       1     -1.05    15.999
   25092      Si       1     SIL   Si2DO       1       2.1    28.086
   25093      Si       1     SIL   Si2DP       1       2.1    28.086
   25094      Si       1     SIL   Si2DQ       1       2.1    28.086
   25095      Ob       1     SIL   O04Ql       1     -1.05    15.999
   25096      Ob       1     SIL   O04Qm       1     -1.05    15.999
   25097      Ob       1     SIL   O04Qn       1     -1.05    15.999
   25098      Ob       1     SIL   O04Qo       1     -1.05    15.999
   25099      Ob       1     SIL   O04Qp       1     -1.05    15.999
   25100      Ob       1     SIL   O04Qq       1     -1.05    15.999
   25101      Si       1     SIL   Si2DR       1       2.1    28.086
   25102      Si       1     SIL   Si2DS       1       2.1    28.086
   25103      Si       1     SIL   Si2DT       1       2.1    28.086
   25104      Ob       1     SIL   O04Qr       1     -1.05    15.999
   25105      Ob       1     SIL   O04Qs       1     -1.05    15.999
   25106      Ob       1     SIL   O04Qt       1     -1.05    15.999
   25107      Ob       1     SIL   O04Qu       1     -1.05    15.999
   25108      Ob       1     SIL   O04Qv       1     -1.05    15.999
   25109      Ob       1     SIL   O04Qw       1     -1.05    15.999
   25110      Si       1     SIL   Si2DU       1       2.1    28.086
   25111      Si       1     SIL   Si2DV       1       2.1    28.086
   25112      Si       1     SIL   Si2DW       1       2.1    28.086
   25113      Ob       1     SIL   O04Qx       1     -1.05    15.999
   25114      Ob       1     SIL   O04Qy       1     -1.05    15.999
   25115      Ob       1     SIL   O04Qz       1     -1.05    15.999
   25116      Ob       1     SIL   O04R0       1     -1.05    15.999
   25117      Ob       1     SIL   O04R1       1     -1.05    15.999
   25118      Ob       1     SIL   O04R2       1     -1.05    15.999
   25119      Si       1     SIL   Si2DX       1       2.1    28.086
   25120      Si       1     SIL   Si2DY       1       2.1    28.086
   25121      Si       1     SIL   Si2DZ       1       2.1    28.086
   25122      Ob       1     SIL   O04R3       1     -1.05    15.999
   25123      Ob       1     SIL   O04R4       1     -1.05    15.999
   25124      Ob       1     SIL   O04R5       1     -1.05    15.999
   25125      Ob       1     SIL   O04R6       1     -1.05    15.999
   25126      Ob       1     SIL   O04R7       1     -1.05    15.999
   25127      Ob       1     SIL   O04R8       1     -1.05    15.999
   25128      Si       1     SIL   Si2Da       1       2.1    28.086
   25129      Si       1     SIL   Si2Db       1       2.1    28.086
   25130      Si       1     SIL   Si2Dc       1       2.1    28.086
   25131      Ob       1     SIL   O04R9       1     -1.05    15.999
   25132      Ob       1     SIL   O04RA       1     -1.05    15.999
   25133      Ob       1     SIL   O04RB       1     -1.05    15.999
   25134      Ob       1     SIL   O04RC       1     -1.05    15.999
   25135      Ob       1     SIL   O04RD       1     -1.05    15.999
   25136      Ob       1     SIL   O04RE       1     -1.05    15.999
   25137      Si       1     SIL   Si2Dd       1       2.1    28.086
   25138      Si       1     SIL   Si2De       1       2.1    28.086
   25139      Si       1     SIL   Si2Df       1       2.1    28.086
   25140      Ob       1     SIL   O04RF       1     -1.05    15.999
   25141      Ob       1     SIL   O04RG       1     -1.05    15.999
   25142      Ob       1     SIL   O04RH       1     -1.05    15.999
   25143      Ob       1     SIL   O04RI       1     -1.05    15.999
   25144      Ob       1     SIL   O04RJ       1     -1.05    15.999
   25145      Ob       1     SIL   O04RK       1     -1.05    15.999
   25146      Si       1     SIL   Si2Dg       1       2.1    28.086
   25147      Si       1     SIL   Si2Dh       1       2.1    28.086
   25148      Si       1     SIL   Si2Di       1       2.1    28.086
   25149      Ob       1     SIL   O04RL       1     -1.05    15.999
   25150      Ob       1     SIL   O04RM       1     -1.05    15.999
   25151      Ob       1     SIL   O04RN       1     -1.05    15.999
   25152      Ob       1     SIL   O04RO       1     -1.05    15.999
   25153      Ob       1     SIL   O04RP       1     -1.05    15.999
   25154      Ob       1     SIL   O04RQ       1     -1.05    15.999
   25155      Si       1     SIL   Si2Dj       1       2.1    28.086
   25156      Si       1     SIL   Si2Dk       1       2.1    28.086
   25157      Si       1     SIL   Si2Dl       1       2.1    28.086
   25158      Ob       1     SIL   O04RR       1     -1.05    15.999
   25159      Ob       1     SIL   O04RS       1     -1.05    15.999
   25160      Ob       1     SIL   O04RT       1     -1.05    15.999
   25161      Ob       1     SIL   O04RU       1     -1.05    15.999
   25162      Ob       1     SIL   O04RV       1     -1.05    15.999
   25163      Ob       1     SIL   O04RW       1     -1.05    15.999
   25164      Si       1     SIL   Si2Dm       1       2.1    28.086
   25165      Si       1     SIL   Si2Dn       1       2.1    28.086
   25166      Si       1     SIL   Si2Do       1       2.1    28.086
   25167      Ob       1     SIL   O04RX       1     -1.05    15.999
   25168      Ob       1     SIL   O04RY       1     -1.05    15.999
   25169      Ob       1     SIL   O04RZ       1     -1.05    15.999
   25170      Ob       1     SIL   O04Ra       1     -1.05    15.999
   25171      Ob       1     SIL   O04Rb       1     -1.05    15.999
   25172      Ob       1     SIL   O04Rc       1     -1.05    15.999
   25173      Si       1     SIL   Si2Dp       1       2.1    28.086
   25174      Si       1     SIL   Si2Dq       1       2.1    28.086
   25175      Si       1     SIL   Si2Dr       1       2.1    28.086
   25176      Ob       1     SIL   O04Rd       1     -1.05    15.999
   25177      Ob       1     SIL   O04Re       1     -1.05    15.999
   25178      Ob       1     SIL   O04Rf       1     -1.05    15.999
   25179      Ob       1     SIL   O04Rg       1     -1.05    15.999
   25180      Ob       1     SIL   O04Rh       1     -1.05    15.999
   25181      Ob       1     SIL   O04Ri       1     -1.05    15.999
   25182      Si       1     SIL   Si2Ds       1       2.1    28.086
   25183      Si       1     SIL   Si2Dt       1       2.1    28.086
   25184      Si       1     SIL   Si2Du       1       2.1    28.086
   25185      Ob       1     SIL   O04Rj       1     -1.05    15.999
   25186      Ob       1     SIL   O04Rk       1     -1.05    15.999
   25187      Ob       1     SIL   O04Rl       1     -1.05    15.999
   25188      Ob       1     SIL   O04Rm       1     -1.05    15.999
   25189      Ob       1     SIL   O04Rn       1     -1.05    15.999
   25190      Ob       1     SIL   O04Ro       1     -1.05    15.999
   25191      Si       1     SIL   Si2Dv       1       2.1    28.086
   25192      Si       1     SIL   Si2Dw       1       2.1    28.086
   25193      Si       1     SIL   Si2Dx       1       2.1    28.086
   25194      Ob       1     SIL   O04Rp       1     -1.05    15.999
   25195      Ob       1     SIL   O04Rq       1     -1.05    15.999
   25196      Ob       1     SIL   O04Rr       1     -1.05    15.999
   25197      Ob       1     SIL   O04Rs       1     -1.05    15.999
   25198      Ob       1     SIL   O04Rt       1     -1.05    15.999
   25199      Ob       1     SIL   O04Ru       1     -1.05    15.999
   25200      Si       1     SIL   Si2Dy       1       2.1    28.086
   25201      Si       1     SIL   Si2Dz       1       2.1    28.086
   25202      Si       1     SIL   Si2E0       1       2.1    28.086
   25203      Ob       1     SIL   O04Rv       1     -1.05    15.999
   25204       O       1     SIL   O04Rw       1    -0.525    15.999
   25205       O       1     SIL   O04Rx       1    -0.525    15.999
   25206      Ob       1     SIL   O04Ry       1     -1.05    15.999
   25207      Ob       1     SIL   O04Rz       1     -1.05    15.999
   25208      Ob       1     SIL   O04S0       1     -1.05    15.999
   25209      Si       1     SIL   Si2E1       1       2.1    28.086
   25210      Si       1     SIL   Si2E2       1       2.1    28.086
   25211      Si       1     SIL   Si2E3       1       2.1    28.086
   25212      Ob       1     SIL   O04S1       1     -1.05    15.999
   25213      Ob       1     SIL   O04S2       1     -1.05    15.999
   25214      Ob       1     SIL   O04S3       1     -1.05    15.999
   25215      Ob       1     SIL   O04S4       1     -1.05    15.999
   25216      Ob       1     SIL   O04S5       1     -1.05    15.999
   25217      Ob       1     SIL   O04S6       1     -1.05    15.999
   25218      Si       1     SIL   Si2E4       1       2.1    28.086
   25219      Si       1     SIL   Si2E5       1       2.1    28.086
   25220      Si       1     SIL   Si2E6       1       2.1    28.086
   25221      Ob       1     SIL   O04S7       1     -1.05    15.999
   25222      Ob       1     SIL   O04S8       1     -1.05    15.999
   25223      Ob       1     SIL   O04S9       1     -1.05    15.999
   25224      Ob       1     SIL   O04SA       1     -1.05    15.999
   25225      Ob       1     SIL   O04SB       1     -1.05    15.999
   25226      Ob       1     SIL   O04SC       1     -1.05    15.999
   25227      Si       1     SIL   Si2E7       1       2.1    28.086
   25228      Si       1     SIL   Si2E8       1       2.1    28.086
   25229      Si       1     SIL   Si2E9       1       2.1    28.086
   25230      Ob       1     SIL   O04SD       1     -1.05    15.999
   25231      Ob       1     SIL   O04SE       1     -1.05    15.999
   25232      Ob       1     SIL   O04SF       1     -1.05    15.999
   25233      Ob       1     SIL   O04SG       1     -1.05    15.999
   25234      Ob       1     SIL   O04SH       1     -1.05    15.999
   25235      Ob       1     SIL   O04SI       1     -1.05    15.999
   25236      Si       1     SIL   Si2EA       1       2.1    28.086
   25237      Si       1     SIL   Si2EB       1       2.1    28.086
   25238      Si       1     SIL   Si2EC       1       2.1    28.086
   25239      Ob       1     SIL   O04SJ       1     -1.05    15.999
   25240      Ob       1     SIL   O04SK       1     -1.05    15.999
   25241      Ob       1     SIL   O04SL       1     -1.05    15.999
   25242      Ob       1     SIL   O04SM       1     -1.05    15.999
   25243      Ob       1     SIL   O04SN       1     -1.05    15.999
   25244      Ob       1     SIL   O04SO       1     -1.05    15.999
   25245      Si       1     SIL   Si2ED       1       2.1    28.086
   25246      Si       1     SIL   Si2EE       1       2.1    28.086
   25247      Si       1     SIL   Si2EF       1       2.1    28.086
   25248      Ob       1     SIL   O04SP       1     -1.05    15.999
   25249      Ob       1     SIL   O04SQ       1     -1.05    15.999
   25250      Ob       1     SIL   O04SR       1     -1.05    15.999
   25251      Ob       1     SIL   O04SS       1     -1.05    15.999
   25252      Ob       1     SIL   O04ST       1     -1.05    15.999
   25253      Ob       1     SIL   O04SU       1     -1.05    15.999
   25254      Si       1     SIL   Si2EG       1       2.1    28.086
   25255      Si       1     SIL   Si2EH       1       2.1    28.086
   25256      Si       1     SIL   Si2EI       1       2.1    28.086
   25257      Ob       1     SIL   O04SV       1     -1.05    15.999
   25258      Ob       1     SIL   O04SW       1     -1.05    15.999
   25259      Ob       1     SIL   O04SX       1     -1.05    15.999
   25260      Ob       1     SIL   O04SY       1     -1.05    15.999
   25261      Ob       1     SIL   O04SZ       1     -1.05    15.999
   25262      Ob       1     SIL   O04Sa       1     -1.05    15.999
   25263      Si       1     SIL   Si2EJ       1       2.1    28.086
   25264      Si       1     SIL   Si2EK       1       2.1    28.086
   25265      Si       1     SIL   Si2EL       1       2.1    28.086
   25266      Ob       1     SIL   O04Sb       1     -1.05    15.999
   25267      Ob       1     SIL   O04Sc       1     -1.05    15.999
   25268      Ob       1     SIL   O04Sd       1     -1.05    15.999
   25269      Ob       1     SIL   O04Se       1     -1.05    15.999
   25270      Ob       1     SIL   O04Sf       1     -1.05    15.999
   25271      Ob       1     SIL   O04Sg       1     -1.05    15.999
   25272      Si       1     SIL   Si2EM       1       2.1    28.086
   25273      Si       1     SIL   Si2EN       1       2.1    28.086
   25274      Si       1     SIL   Si2EO       1       2.1    28.086
   25275      Ob       1     SIL   O04Sh       1     -1.05    15.999
   25276      Ob       1     SIL   O04Si       1     -1.05    15.999
   25277      Ob       1     SIL   O04Sj       1     -1.05    15.999
   25278      Ob       1     SIL   O04Sk       1     -1.05    15.999
   25279      Ob       1     SIL   O04Sl       1     -1.05    15.999
   25280      Ob       1     SIL   O04Sm       1     -1.05    15.999
   25281      Si       1     SIL   Si2EP       1       2.1    28.086
   25282      Si       1     SIL   Si2EQ       1       2.1    28.086
   25283      Si       1     SIL   Si2ER       1       2.1    28.086
   25284      Ob       1     SIL   O04Sn       1     -1.05    15.999
   25285      Ob       1     SIL   O04So       1     -1.05    15.999
   25286      Ob       1     SIL   O04Sp       1     -1.05    15.999
   25287      Ob       1     SIL   O04Sq       1     -1.05    15.999
   25288      Ob       1     SIL   O04Sr       1     -1.05    15.999
   25289      Ob       1     SIL   O04Ss       1     -1.05    15.999
   25290      Si       1     SIL   Si2ES       1       2.1    28.086
   25291      Si       1     SIL   Si2ET       1       2.1    28.086
   25292      Si       1     SIL   Si2EU       1       2.1    28.086
   25293      Ob       1     SIL   O04St       1     -1.05    15.999
   25294      Ob       1     SIL   O04Su       1     -1.05    15.999
   25295      Ob       1     SIL   O04Sv       1     -1.05    15.999
   25296      Ob       1     SIL   O04Sw       1     -1.05    15.999
   25297      Ob       1     SIL   O04Sx       1     -1.05    15.999
   25298      Ob       1     SIL   O04Sy       1     -1.05    15.999
   25299      Si       1     SIL   Si2EV       1       2.1    28.086
   25300      Si       1     SIL   Si2EW       1       2.1    28.086
   25301      Si       1     SIL   Si2EX       1       2.1    28.086
   25302      Ob       1     SIL   O04Sz       1     -1.05    15.999
   25303      Ob       1     SIL   O04T0       1     -1.05    15.999
   25304      Ob       1     SIL   O04T1       1     -1.05    15.999
   25305      Ob       1     SIL   O04T2       1     -1.05    15.999
   25306      Ob       1     SIL   O04T3       1     -1.05    15.999
   25307      Ob       1     SIL   O04T4       1     -1.05    15.999
   25308      Si       1     SIL   Si2EY       1       2.1    28.086
   25309      Si       1     SIL   Si2EZ       1       2.1    28.086
   25310      Si       1     SIL   Si2Ea       1       2.1    28.086
   25311      Ob       1     SIL   O04T5       1     -1.05    15.999
   25312      Ob       1     SIL   O04T6       1     -1.05    15.999
   25313      Ob       1     SIL   O04T7       1     -1.05    15.999
   25314      Ob       1     SIL   O04T8       1     -1.05    15.999
   25315      Ob       1     SIL   O04T9       1     -1.05    15.999
   25316      Ob       1     SIL   O04TA       1     -1.05    15.999
   25317      Si       1     SIL   Si2Eb       1       2.1    28.086
   25318      Si       1     SIL   Si2Ec       1       2.1    28.086
   25319      Si       1     SIL   Si2Ed       1       2.1    28.086
   25320      Ob       1     SIL   O04TB       1     -1.05    15.999
   25321      Ob       1     SIL   O04TC       1     -1.05    15.999
   25322      Ob       1     SIL   O04TD       1     -1.05    15.999
   25323      Ob       1     SIL   O04TE       1     -1.05    15.999
   25324      Ob       1     SIL   O04TF       1     -1.05    15.999
   25325      Ob       1     SIL   O04TG       1     -1.05    15.999
   25326      Si       1     SIL   Si2Ee       1       2.1    28.086
   25327      Si       1     SIL   Si2Ef       1       2.1    28.086
   25328      Si       1     SIL   Si2Eg       1       2.1    28.086
   25329      Ob       1     SIL   O04TH       1     -1.05    15.999
   25330      Ob       1     SIL   O04TI       1     -1.05    15.999
   25331      Ob       1     SIL   O04TJ       1     -1.05    15.999
   25332      Ob       1     SIL   O04TK       1     -1.05    15.999
   25333      Ob       1     SIL   O04TL       1     -1.05    15.999
   25334      Ob       1     SIL   O04TM       1     -1.05    15.999
   25335      Si       1     SIL   Si2Eh       1       2.1    28.086
   25336      Si       1     SIL   Si2Ei       1       2.1    28.086
   25337      Si       1     SIL   Si2Ej       1       2.1    28.086
   25338      Ob       1     SIL   O04TN       1     -1.05    15.999
   25339      Ob       1     SIL   O04TO       1     -1.05    15.999
   25340      Ob       1     SIL   O04TP       1     -1.05    15.999
   25341      Ob       1     SIL   O04TQ       1     -1.05    15.999
   25342      Ob       1     SIL   O04TR       1     -1.05    15.999
   25343      Ob       1     SIL   O04TS       1     -1.05    15.999
   25344      Si       1     SIL   Si2Ek       1       2.1    28.086
   25345      Si       1     SIL   Si2El       1       2.1    28.086
   25346      Si       1     SIL   Si2Em       1       2.1    28.086
   25347      Ob       1     SIL   O04TT       1     -1.05    15.999
   25348      Ob       1     SIL   O04TU       1     -1.05    15.999
   25349      Ob       1     SIL   O04TV       1     -1.05    15.999
   25350      Ob       1     SIL   O04TW       1     -1.05    15.999
   25351      Ob       1     SIL   O04TX       1     -1.05    15.999
   25352      Ob       1     SIL   O04TY       1     -1.05    15.999
   25353      Si       1     SIL   Si2En       1       2.1    28.086
   25354      Si       1     SIL   Si2Eo       1       2.1    28.086
   25355      Si       1     SIL   Si2Ep       1       2.1    28.086
   25356      Ob       1     SIL   O04TZ       1     -1.05    15.999
   25357      Ob       1     SIL   O04Ta       1     -1.05    15.999
   25358      Ob       1     SIL   O04Tb       1     -1.05    15.999
   25359      Ob       1     SIL   O04Tc       1     -1.05    15.999
   25360      Ob       1     SIL   O04Td       1     -1.05    15.999
   25361      Ob       1     SIL   O04Te       1     -1.05    15.999
   25362      Si       1     SIL   Si2Eq       1       2.1    28.086
   25363      Si       1     SIL   Si2Er       1       2.1    28.086
   25364      Si       1     SIL   Si2Es       1       2.1    28.086
   25365      Ob       1     SIL   O04Tf       1     -1.05    15.999
   25366      Ob       1     SIL   O04Tg       1     -1.05    15.999
   25367      Ob       1     SIL   O04Th       1     -1.05    15.999
   25368      Ob       1     SIL   O04Ti       1     -1.05    15.999
   25369      Ob       1     SIL   O04Tj       1     -1.05    15.999
   25370      Ob       1     SIL   O04Tk       1     -1.05    15.999
   25371      Si       1     SIL   Si2Et       1       2.1    28.086
   25372      Si       1     SIL   Si2Eu       1       2.1    28.086
   25373      Si       1     SIL   Si2Ev       1       2.1    28.086
   25374      Ob       1     SIL   O04Tl       1     -1.05    15.999
   25375      Ob       1     SIL   O04Tm       1     -1.05    15.999
   25376      Ob       1     SIL   O04Tn       1     -1.05    15.999
   25377      Ob       1     SIL   O04To       1     -1.05    15.999
   25378      Ob       1     SIL   O04Tp       1     -1.05    15.999
   25379      Ob       1     SIL   O04Tq       1     -1.05    15.999
   25380      Si       1     SIL   Si2Ew       1       2.1    28.086
   25381      Si       1     SIL   Si2Ex       1       2.1    28.086
   25382      Si       1     SIL   Si2Ey       1       2.1    28.086
   25383      Ob       1     SIL   O04Tr       1     -1.05    15.999
   25384      Ob       1     SIL   O04Ts       1     -1.05    15.999
   25385      Ob       1     SIL   O04Tt       1     -1.05    15.999
   25386      Ob       1     SIL   O04Tu       1     -1.05    15.999
   25387      Ob       1     SIL   O04Tv       1     -1.05    15.999
   25388      Ob       1     SIL   O04Tw       1     -1.05    15.999
   25389      Si       1     SIL   Si2Ez       1       2.1    28.086
   25390      Si       1     SIL   Si2F0       1       2.1    28.086
   25391      Si       1     SIL   Si2F1       1       2.1    28.086
   25392      Ob       1     SIL   O04Tx       1     -1.05    15.999
   25393      Ob       1     SIL   O04Ty       1     -1.05    15.999
   25394      Ob       1     SIL   O04Tz       1     -1.05    15.999
   25395      Ob       1     SIL   O04U0       1     -1.05    15.999
   25396      Ob       1     SIL   O04U1       1     -1.05    15.999
   25397      Ob       1     SIL   O04U2       1     -1.05    15.999
   25398      Si       1     SIL   Si2F2       1       2.1    28.086
   25399      Si       1     SIL   Si2F3       1       2.1    28.086
   25400      Si       1     SIL   Si2F4       1       2.1    28.086
   25401      Ob       1     SIL   O04U3       1     -1.05    15.999
   25402      Ob       1     SIL   O04U4       1     -1.05    15.999
   25403      Ob       1     SIL   O04U5       1     -1.05    15.999
   25404      Ob       1     SIL   O04U6       1     -1.05    15.999
   25405      Ob       1     SIL   O04U7       1     -1.05    15.999
   25406      Ob       1     SIL   O04U8       1     -1.05    15.999
   25407      Si       1     SIL   Si2F5       1       2.1    28.086
   25408      Si       1     SIL   Si2F6       1       2.1    28.086
   25409      Si       1     SIL   Si2F7       1       2.1    28.086
   25410      Ob       1     SIL   O04U9       1     -1.05    15.999
   25411       O       1     SIL   O04UA       1    -0.525    15.999
   25412       O       1     SIL   O04UB       1    -0.525    15.999
   25413      Ob       1     SIL   O04UC       1     -1.05    15.999
   25414      Ob       1     SIL   O04UD       1     -1.05    15.999
   25415      Ob       1     SIL   O04UE       1     -1.05    15.999
   25416      Si       1     SIL   Si2F8       1       2.1    28.086
   25417      Si       1     SIL   Si2F9       1       2.1    28.086
   25418      Si       1     SIL   Si2FA       1       2.1    28.086
   25419      Ob       1     SIL   O04UF       1     -1.05    15.999
   25420      Ob       1     SIL   O04UG       1     -1.05    15.999
   25421      Ob       1     SIL   O04UH       1     -1.05    15.999
   25422      Ob       1     SIL   O04UI       1     -1.05    15.999
   25423      Ob       1     SIL   O04UJ       1     -1.05    15.999
   25424      Ob       1     SIL   O04UK       1     -1.05    15.999
   25425      Si       1     SIL   Si2FB       1       2.1    28.086
   25426      Si       1     SIL   Si2FC       1       2.1    28.086
   25427      Si       1     SIL   Si2FD       1       2.1    28.086
   25428      Ob       1     SIL   O04UL       1     -1.05    15.999
   25429      Ob       1     SIL   O04UM       1     -1.05    15.999
   25430      Ob       1     SIL   O04UN       1     -1.05    15.999
   25431      Ob       1     SIL   O04UO       1     -1.05    15.999
   25432      Ob       1     SIL   O04UP       1     -1.05    15.999
   25433      Ob       1     SIL   O04UQ       1     -1.05    15.999
   25434      Si       1     SIL   Si2FE       1       2.1    28.086
   25435      Si       1     SIL   Si2FF       1       2.1    28.086
   25436      Si       1     SIL   Si2FG       1       2.1    28.086
   25437      Ob       1     SIL   O04UR       1     -1.05    15.999
   25438      Ob       1     SIL   O04US       1     -1.05    15.999
   25439      Ob       1     SIL   O04UT       1     -1.05    15.999
   25440      Ob       1     SIL   O04UU       1     -1.05    15.999
   25441      Ob       1     SIL   O04UV       1     -1.05    15.999
   25442      Ob       1     SIL   O04UW       1     -1.05    15.999
   25443      Si       1     SIL   Si2FH       1       2.1    28.086
   25444      Si       1     SIL   Si2FI       1       2.1    28.086
   25445      Si       1     SIL   Si2FJ       1       2.1    28.086
   25446      Ob       1     SIL   O04UX       1     -1.05    15.999
   25447      Ob       1     SIL   O04UY       1     -1.05    15.999
   25448      Ob       1     SIL   O04UZ       1     -1.05    15.999
   25449      Ob       1     SIL   O04Ua       1     -1.05    15.999
   25450      Ob       1     SIL   O04Ub       1     -1.05    15.999
   25451      Ob       1     SIL   O04Uc       1     -1.05    15.999
   25452      Si       1     SIL   Si2FK       1       2.1    28.086
   25453      Si       1     SIL   Si2FL       1       2.1    28.086
   25454      Si       1     SIL   Si2FM       1       2.1    28.086
   25455      Ob       1     SIL   O04Ud       1     -1.05    15.999
   25456      Ob       1     SIL   O04Ue       1     -1.05    15.999
   25457      Ob       1     SIL   O04Uf       1     -1.05    15.999
   25458      Ob       1     SIL   O04Ug       1     -1.05    15.999
   25459      Ob       1     SIL   O04Uh       1     -1.05    15.999
   25460      Ob       1     SIL   O04Ui       1     -1.05    15.999
   25461      Si       1     SIL   Si2FN       1       2.1    28.086
   25462      Si       1     SIL   Si2FO       1       2.1    28.086
   25463      Si       1     SIL   Si2FP       1       2.1    28.086
   25464      Ob       1     SIL   O04Uj       1     -1.05    15.999
   25465      Ob       1     SIL   O04Uk       1     -1.05    15.999
   25466      Ob       1     SIL   O04Ul       1     -1.05    15.999
   25467      Ob       1     SIL   O04Um       1     -1.05    15.999
   25468      Ob       1     SIL   O04Un       1     -1.05    15.999
   25469      Ob       1     SIL   O04Uo       1     -1.05    15.999
   25470      Si       1     SIL   Si2FQ       1       2.1    28.086
   25471      Si       1     SIL   Si2FR       1       2.1    28.086
   25472      Si       1     SIL   Si2FS       1       2.1    28.086
   25473      Ob       1     SIL   O04Up       1     -1.05    15.999
   25474      Ob       1     SIL   O04Uq       1     -1.05    15.999
   25475      Ob       1     SIL   O04Ur       1     -1.05    15.999
   25476      Ob       1     SIL   O04Us       1     -1.05    15.999
   25477      Ob       1     SIL   O04Ut       1     -1.05    15.999
   25478      Ob       1     SIL   O04Uu       1     -1.05    15.999
   25479      Si       1     SIL   Si2FT       1       2.1    28.086
   25480      Si       1     SIL   Si2FU       1       2.1    28.086
   25481      Si       1     SIL   Si2FV       1       2.1    28.086
   25482      Ob       1     SIL   O04Uv       1     -1.05    15.999
   25483      Ob       1     SIL   O04Uw       1     -1.05    15.999
   25484      Ob       1     SIL   O04Ux       1     -1.05    15.999
   25485      Ob       1     SIL   O04Uy       1     -1.05    15.999
   25486      Ob       1     SIL   O04Uz       1     -1.05    15.999
   25487      Ob       1     SIL   O04V0       1     -1.05    15.999
   25488      Si       1     SIL   Si2FW       1       2.1    28.086
   25489      Si       1     SIL   Si2FX       1       2.1    28.086
   25490      Si       1     SIL   Si2FY       1       2.1    28.086
   25491      Ob       1     SIL   O04V1       1     -1.05    15.999
   25492      Ob       1     SIL   O04V2       1     -1.05    15.999
   25493      Ob       1     SIL   O04V3       1     -1.05    15.999
   25494      Ob       1     SIL   O04V4       1     -1.05    15.999
   25495      Ob       1     SIL   O04V5       1     -1.05    15.999
   25496      Ob       1     SIL   O04V6       1     -1.05    15.999
   25497      Si       1     SIL   Si2FZ       1       2.1    28.086
   25498      Si       1     SIL   Si2Fa       1       2.1    28.086
   25499      Si       1     SIL   Si2Fb       1       2.1    28.086
   25500      Ob       1     SIL   O04V7       1     -1.05    15.999
   25501      Ob       1     SIL   O04V8       1     -1.05    15.999
   25502      Ob       1     SIL   O04V9       1     -1.05    15.999
   25503      Ob       1     SIL   O04VA       1     -1.05    15.999
   25504      Ob       1     SIL   O04VB       1     -1.05    15.999
   25505      Ob       1     SIL   O04VC       1     -1.05    15.999
   25506      Si       1     SIL   Si2Fc       1       2.1    28.086
   25507      Si       1     SIL   Si2Fd       1       2.1    28.086
   25508      Si       1     SIL   Si2Fe       1       2.1    28.086
   25509      Ob       1     SIL   O04VD       1     -1.05    15.999
   25510      Ob       1     SIL   O04VE       1     -1.05    15.999
   25511      Ob       1     SIL   O04VF       1     -1.05    15.999
   25512      Ob       1     SIL   O04VG       1     -1.05    15.999
   25513      Ob       1     SIL   O04VH       1     -1.05    15.999
   25514      Ob       1     SIL   O04VI       1     -1.05    15.999
   25515      Si       1     SIL   Si2Ff       1       2.1    28.086
   25516      Si       1     SIL   Si2Fg       1       2.1    28.086
   25517      Si       1     SIL   Si2Fh       1       2.1    28.086
   25518      Ob       1     SIL   O04VJ       1     -1.05    15.999
   25519      Ob       1     SIL   O04VK       1     -1.05    15.999
   25520      Ob       1     SIL   O04VL       1     -1.05    15.999
   25521      Ob       1     SIL   O04VM       1     -1.05    15.999
   25522      Ob       1     SIL   O04VN       1     -1.05    15.999
   25523      Ob       1     SIL   O04VO       1     -1.05    15.999
   25524      Si       1     SIL   Si2Fi       1       2.1    28.086
   25525      Si       1     SIL   Si2Fj       1       2.1    28.086
   25526      Si       1     SIL   Si2Fk       1       2.1    28.086
   25527      Ob       1     SIL   O04VP       1     -1.05    15.999
   25528      Ob       1     SIL   O04VQ       1     -1.05    15.999
   25529      Ob       1     SIL   O04VR       1     -1.05    15.999
   25530      Ob       1     SIL   O04VS       1     -1.05    15.999
   25531      Ob       1     SIL   O04VT       1     -1.05    15.999
   25532      Ob       1     SIL   O04VU       1     -1.05    15.999
   25533      Si       1     SIL   Si2Fl       1       2.1    28.086
   25534      Si       1     SIL   Si2Fm       1       2.1    28.086
   25535      Si       1     SIL   Si2Fn       1       2.1    28.086
   25536      Ob       1     SIL   O04VV       1     -1.05    15.999
   25537      Ob       1     SIL   O04VW       1     -1.05    15.999
   25538      Ob       1     SIL   O04VX       1     -1.05    15.999
   25539      Ob       1     SIL   O04VY       1     -1.05    15.999
   25540      Ob       1     SIL   O04VZ       1     -1.05    15.999
   25541      Ob       1     SIL   O04Va       1     -1.05    15.999
   25542      Si       1     SIL   Si2Fo       1       2.1    28.086
   25543      Si       1     SIL   Si2Fp       1       2.1    28.086
   25544      Si       1     SIL   Si2Fq       1       2.1    28.086
   25545      Ob       1     SIL   O04Vb       1     -1.05    15.999
   25546      Ob       1     SIL   O04Vc       1     -1.05    15.999
   25547      Ob       1     SIL   O04Vd       1     -1.05    15.999
   25548      Ob       1     SIL   O04Ve       1     -1.05    15.999
   25549      Ob       1     SIL   O04Vf       1     -1.05    15.999
   25550      Ob       1     SIL   O04Vg       1     -1.05    15.999
   25551      Si       1     SIL   Si2Fr       1       2.1    28.086
   25552      Si       1     SIL   Si2Fs       1       2.1    28.086
   25553      Si       1     SIL   Si2Ft       1       2.1    28.086
   25554      Ob       1     SIL   O04Vh       1     -1.05    15.999
   25555      Ob       1     SIL   O04Vi       1     -1.05    15.999
   25556      Ob       1     SIL   O04Vj       1     -1.05    15.999
   25557      Ob       1     SIL   O04Vk       1     -1.05    15.999
   25558      Ob       1     SIL   O04Vl       1     -1.05    15.999
   25559      Ob       1     SIL   O04Vm       1     -1.05    15.999
   25560      Si       1     SIL   Si2Fu       1       2.1    28.086
   25561      Si       1     SIL   Si2Fv       1       2.1    28.086
   25562      Si       1     SIL   Si2Fw       1       2.1    28.086
   25563      Ob       1     SIL   O04Vn       1     -1.05    15.999
   25564      Ob       1     SIL   O04Vo       1     -1.05    15.999
   25565      Ob       1     SIL   O04Vp       1     -1.05    15.999
   25566      Ob       1     SIL   O04Vq       1     -1.05    15.999
   25567      Ob       1     SIL   O04Vr       1     -1.05    15.999
   25568      Ob       1     SIL   O04Vs       1     -1.05    15.999
   25569      Si       1     SIL   Si2Fx       1       2.1    28.086
   25570      Si       1     SIL   Si2Fy       1       2.1    28.086
   25571      Si       1     SIL   Si2Fz       1       2.1    28.086
   25572      Ob       1     SIL   O04Vt       1     -1.05    15.999
   25573      Ob       1     SIL   O04Vu       1     -1.05    15.999
   25574      Ob       1     SIL   O04Vv       1     -1.05    15.999
   25575      Ob       1     SIL   O04Vw       1     -1.05    15.999
   25576      Ob       1     SIL   O04Vx       1     -1.05    15.999
   25577      Ob       1     SIL   O04Vy       1     -1.05    15.999
   25578      Si       1     SIL   Si2G0       1       2.1    28.086
   25579      Si       1     SIL   Si2G1       1       2.1    28.086
   25580      Si       1     SIL   Si2G2       1       2.1    28.086
   25581      Ob       1     SIL   O04Vz       1     -1.05    15.999
   25582      Ob       1     SIL   O04W0       1     -1.05    15.999
   25583      Ob       1     SIL   O04W1       1     -1.05    15.999
   25584      Ob       1     SIL   O04W2       1     -1.05    15.999
   25585      Ob       1     SIL   O04W3       1     -1.05    15.999
   25586      Ob       1     SIL   O04W4       1     -1.05    15.999
   25587      Si       1     SIL   Si2G3       1       2.1    28.086
   25588      Si       1     SIL   Si2G4       1       2.1    28.086
   25589      Si       1     SIL   Si2G5       1       2.1    28.086
   25590      Ob       1     SIL   O04W5       1     -1.05    15.999
   25591      Ob       1     SIL   O04W6       1     -1.05    15.999
   25592      Ob       1     SIL   O04W7       1     -1.05    15.999
   25593      Ob       1     SIL   O04W8       1     -1.05    15.999
   25594      Ob       1     SIL   O04W9       1     -1.05    15.999
   25595      Ob       1     SIL   O04WA       1     -1.05    15.999
   25596      Si       1     SIL   Si2G6       1       2.1    28.086
   25597      Si       1     SIL   Si2G7       1       2.1    28.086
   25598      Si       1     SIL   Si2G8       1       2.1    28.086
   25599      Ob       1     SIL   O04WB       1     -1.05    15.999
   25600      Ob       1     SIL   O04WC       1     -1.05    15.999
   25601      Ob       1     SIL   O04WD       1     -1.05    15.999
   25602      Ob       1     SIL   O04WE       1     -1.05    15.999
   25603      Ob       1     SIL   O04WF       1     -1.05    15.999
   25604      Ob       1     SIL   O04WG       1     -1.05    15.999
   25605      Si       1     SIL   Si2G9       1       2.1    28.086
   25606      Si       1     SIL   Si2GA       1       2.1    28.086
   25607      Si       1     SIL   Si2GB       1       2.1    28.086
   25608      Ob       1     SIL   O04WH       1     -1.05    15.999
   25609      Ob       1     SIL   O04WI       1     -1.05    15.999
   25610      Ob       1     SIL   O04WJ       1     -1.05    15.999
   25611      Ob       1     SIL   O04WK       1     -1.05    15.999
   25612      Ob       1     SIL   O04WL       1     -1.05    15.999
   25613      Ob       1     SIL   O04WM       1     -1.05    15.999
   25614      Si       1     SIL   Si2GC       1       2.1    28.086
   25615      Si       1     SIL   Si2GD       1       2.1    28.086
   25616      Si       1     SIL   Si2GE       1       2.1    28.086
   25617      Ob       1     SIL   O04WN       1     -1.05    15.999
   25618       O       1     SIL   O04WO       1    -0.525    15.999
   25619       O       1     SIL   O04WP       1    -0.525    15.999
   25620      Ob       1     SIL   O04WQ       1     -1.05    15.999
   25621      Ob       1     SIL   O04WR       1     -1.05    15.999
   25622      Ob       1     SIL   O04WS       1     -1.05    15.999
   25623      Si       1     SIL   Si2GF       1       2.1    28.086
   25624      Si       1     SIL   Si2GG       1       2.1    28.086
   25625      Si       1     SIL   Si2GH       1       2.1    28.086
   25626      Ob       1     SIL   O04WT       1     -1.05    15.999
   25627      Ob       1     SIL   O04WU       1     -1.05    15.999
   25628      Ob       1     SIL   O04WV       1     -1.05    15.999
   25629      Ob       1     SIL   O04WW       1     -1.05    15.999
   25630      Ob       1     SIL   O04WX       1     -1.05    15.999
   25631      Ob       1     SIL   O04WY       1     -1.05    15.999
   25632      Si       1     SIL   Si2GI       1       2.1    28.086
   25633      Si       1     SIL   Si2GJ       1       2.1    28.086
   25634      Si       1     SIL   Si2GK       1       2.1    28.086
   25635      Ob       1     SIL   O04WZ       1     -1.05    15.999
   25636      Ob       1     SIL   O04Wa       1     -1.05    15.999
   25637      Ob       1     SIL   O04Wb       1     -1.05    15.999
   25638      Ob       1     SIL   O04Wc       1     -1.05    15.999
   25639      Ob       1     SIL   O04Wd       1     -1.05    15.999
   25640      Ob       1     SIL   O04We       1     -1.05    15.999
   25641      Si       1     SIL   Si2GL       1       2.1    28.086
   25642      Si       1     SIL   Si2GM       1       2.1    28.086
   25643      Si       1     SIL   Si2GN       1       2.1    28.086
   25644      Ob       1     SIL   O04Wf       1     -1.05    15.999
   25645      Ob       1     SIL   O04Wg       1     -1.05    15.999
   25646      Ob       1     SIL   O04Wh       1     -1.05    15.999
   25647      Ob       1     SIL   O04Wi       1     -1.05    15.999
   25648      Ob       1     SIL   O04Wj       1     -1.05    15.999
   25649      Ob       1     SIL   O04Wk       1     -1.05    15.999
   25650      Si       1     SIL   Si2GO       1       2.1    28.086
   25651      Si       1     SIL   Si2GP       1       2.1    28.086
   25652      Si       1     SIL   Si2GQ       1       2.1    28.086
   25653      Ob       1     SIL   O04Wl       1     -1.05    15.999
   25654      Ob       1     SIL   O04Wm       1     -1.05    15.999
   25655      Ob       1     SIL   O04Wn       1     -1.05    15.999
   25656      Ob       1     SIL   O04Wo       1     -1.05    15.999
   25657      Ob       1     SIL   O04Wp       1     -1.05    15.999
   25658      Ob       1     SIL   O04Wq       1     -1.05    15.999
   25659      Si       1     SIL   Si2GR       1       2.1    28.086
   25660      Si       1     SIL   Si2GS       1       2.1    28.086
   25661      Si       1     SIL   Si2GT       1       2.1    28.086
   25662      Ob       1     SIL   O04Wr       1     -1.05    15.999
   25663      Ob       1     SIL   O04Ws       1     -1.05    15.999
   25664      Ob       1     SIL   O04Wt       1     -1.05    15.999
   25665      Ob       1     SIL   O04Wu       1     -1.05    15.999
   25666      Ob       1     SIL   O04Wv       1     -1.05    15.999
   25667      Ob       1     SIL   O04Ww       1     -1.05    15.999
   25668      Si       1     SIL   Si2GU       1       2.1    28.086
   25669      Si       1     SIL   Si2GV       1       2.1    28.086
   25670      Si       1     SIL   Si2GW       1       2.1    28.086
   25671      Ob       1     SIL   O04Wx       1     -1.05    15.999
   25672      Ob       1     SIL   O04Wy       1     -1.05    15.999
   25673      Ob       1     SIL   O04Wz       1     -1.05    15.999
   25674      Ob       1     SIL   O04X0       1     -1.05    15.999
   25675      Ob       1     SIL   O04X1       1     -1.05    15.999
   25676      Ob       1     SIL   O04X2       1     -1.05    15.999
   25677      Si       1     SIL   Si2GX       1       2.1    28.086
   25678      Si       1     SIL   Si2GY       1       2.1    28.086
   25679      Si       1     SIL   Si2GZ       1       2.1    28.086
   25680      Ob       1     SIL   O04X3       1     -1.05    15.999
   25681      Ob       1     SIL   O04X4       1     -1.05    15.999
   25682      Ob       1     SIL   O04X5       1     -1.05    15.999
   25683      Ob       1     SIL   O04X6       1     -1.05    15.999
   25684      Ob       1     SIL   O04X7       1     -1.05    15.999
   25685      Ob       1     SIL   O04X8       1     -1.05    15.999
   25686      Si       1     SIL   Si2Ga       1       2.1    28.086
   25687      Si       1     SIL   Si2Gb       1       2.1    28.086
   25688      Si       1     SIL   Si2Gc       1       2.1    28.086
   25689      Ob       1     SIL   O04X9       1     -1.05    15.999
   25690      Ob       1     SIL   O04XA       1     -1.05    15.999
   25691      Ob       1     SIL   O04XB       1     -1.05    15.999
   25692      Ob       1     SIL   O04XC       1     -1.05    15.999
   25693      Ob       1     SIL   O04XD       1     -1.05    15.999
   25694      Ob       1     SIL   O04XE       1     -1.05    15.999
   25695      Si       1     SIL   Si2Gd       1       2.1    28.086
   25696      Si       1     SIL   Si2Ge       1       2.1    28.086
   25697      Si       1     SIL   Si2Gf       1       2.1    28.086
   25698      Ob       1     SIL   O04XF       1     -1.05    15.999
   25699      Ob       1     SIL   O04XG       1     -1.05    15.999
   25700      Ob       1     SIL   O04XH       1     -1.05    15.999
   25701      Ob       1     SIL   O04XI       1     -1.05    15.999
   25702      Ob       1     SIL   O04XJ       1     -1.05    15.999
   25703      Ob       1     SIL   O04XK       1     -1.05    15.999
   25704      Si       1     SIL   Si2Gg       1       2.1    28.086
   25705      Si       1     SIL   Si2Gh       1       2.1    28.086
   25706      Si       1     SIL   Si2Gi       1       2.1    28.086
   25707      Ob       1     SIL   O04XL       1     -1.05    15.999
   25708      Ob       1     SIL   O04XM       1     -1.05    15.999
   25709      Ob       1     SIL   O04XN       1     -1.05    15.999
   25710      Ob       1     SIL   O04XO       1     -1.05    15.999
   25711      Ob       1     SIL   O04XP       1     -1.05    15.999
   25712      Ob       1     SIL   O04XQ       1     -1.05    15.999
   25713      Si       1     SIL   Si2Gj       1       2.1    28.086
   25714      Si       1     SIL   Si2Gk       1       2.1    28.086
   25715      Si       1     SIL   Si2Gl       1       2.1    28.086
   25716      Ob       1     SIL   O04XR       1     -1.05    15.999
   25717      Ob       1     SIL   O04XS       1     -1.05    15.999
   25718      Ob       1     SIL   O04XT       1     -1.05    15.999
   25719      Ob       1     SIL   O04XU       1     -1.05    15.999
   25720      Ob       1     SIL   O04XV       1     -1.05    15.999
   25721      Ob       1     SIL   O04XW       1     -1.05    15.999
   25722      Si       1     SIL   Si2Gm       1       2.1    28.086
   25723      Si       1     SIL   Si2Gn       1       2.1    28.086
   25724      Si       1     SIL   Si2Go       1       2.1    28.086
   25725      Ob       1     SIL   O04XX       1     -1.05    15.999
   25726      Ob       1     SIL   O04XY       1     -1.05    15.999
   25727      Ob       1     SIL   O04XZ       1     -1.05    15.999
   25728      Ob       1     SIL   O04Xa       1     -1.05    15.999
   25729      Ob       1     SIL   O04Xb       1     -1.05    15.999
   25730      Ob       1     SIL   O04Xc       1     -1.05    15.999
   25731      Si       1     SIL   Si2Gp       1       2.1    28.086
   25732      Si       1     SIL   Si2Gq       1       2.1    28.086
   25733      Si       1     SIL   Si2Gr       1       2.1    28.086
   25734      Ob       1     SIL   O04Xd       1     -1.05    15.999
   25735      Ob       1     SIL   O04Xe       1     -1.05    15.999
   25736      Ob       1     SIL   O04Xf       1     -1.05    15.999
   25737      Ob       1     SIL   O04Xg       1     -1.05    15.999
   25738      Ob       1     SIL   O04Xh       1     -1.05    15.999
   25739      Ob       1     SIL   O04Xi       1     -1.05    15.999
   25740      Si       1     SIL   Si2Gs       1       2.1    28.086
   25741      Si       1     SIL   Si2Gt       1       2.1    28.086
   25742      Si       1     SIL   Si2Gu       1       2.1    28.086
   25743      Ob       1     SIL   O04Xj       1     -1.05    15.999
   25744      Ob       1     SIL   O04Xk       1     -1.05    15.999
   25745      Ob       1     SIL   O04Xl       1     -1.05    15.999
   25746      Ob       1     SIL   O04Xm       1     -1.05    15.999
   25747      Ob       1     SIL   O04Xn       1     -1.05    15.999
   25748      Ob       1     SIL   O04Xo       1     -1.05    15.999
   25749      Si       1     SIL   Si2Gv       1       2.1    28.086
   25750      Si       1     SIL   Si2Gw       1       2.1    28.086
   25751      Si       1     SIL   Si2Gx       1       2.1    28.086
   25752      Ob       1     SIL   O04Xp       1     -1.05    15.999
   25753      Ob       1     SIL   O04Xq       1     -1.05    15.999
   25754      Ob       1     SIL   O04Xr       1     -1.05    15.999
   25755      Ob       1     SIL   O04Xs       1     -1.05    15.999
   25756      Ob       1     SIL   O04Xt       1     -1.05    15.999
   25757      Ob       1     SIL   O04Xu       1     -1.05    15.999
   25758      Si       1     SIL   Si2Gy       1       2.1    28.086
   25759      Si       1     SIL   Si2Gz       1       2.1    28.086
   25760      Si       1     SIL   Si2H0       1       2.1    28.086
   25761      Ob       1     SIL   O04Xv       1     -1.05    15.999
   25762      Ob       1     SIL   O04Xw       1     -1.05    15.999
   25763      Ob       1     SIL   O04Xx       1     -1.05    15.999
   25764      Ob       1     SIL   O04Xy       1     -1.05    15.999
   25765      Ob       1     SIL   O04Xz       1     -1.05    15.999
   25766      Ob       1     SIL   O04Y0       1     -1.05    15.999
   25767      Si       1     SIL   Si2H1       1       2.1    28.086
   25768      Si       1     SIL   Si2H2       1       2.1    28.086
   25769      Si       1     SIL   Si2H3       1       2.1    28.086
   25770      Ob       1     SIL   O04Y1       1     -1.05    15.999
   25771      Ob       1     SIL   O04Y2       1     -1.05    15.999
   25772      Ob       1     SIL   O04Y3       1     -1.05    15.999
   25773      Ob       1     SIL   O04Y4       1     -1.05    15.999
   25774      Ob       1     SIL   O04Y5       1     -1.05    15.999
   25775      Ob       1     SIL   O04Y6       1     -1.05    15.999
   25776      Si       1     SIL   Si2H4       1       2.1    28.086
   25777      Si       1     SIL   Si2H5       1       2.1    28.086
   25778      Si       1     SIL   Si2H6       1       2.1    28.086
   25779      Ob       1     SIL   O04Y7       1     -1.05    15.999
   25780      Ob       1     SIL   O04Y8       1     -1.05    15.999
   25781      Ob       1     SIL   O04Y9       1     -1.05    15.999
   25782      Ob       1     SIL   O04YA       1     -1.05    15.999
   25783      Ob       1     SIL   O04YB       1     -1.05    15.999
   25784      Ob       1     SIL   O04YC       1     -1.05    15.999
   25785      Si       1     SIL   Si2H7       1       2.1    28.086
   25786      Si       1     SIL   Si2H8       1       2.1    28.086
   25787      Si       1     SIL   Si2H9       1       2.1    28.086
   25788      Ob       1     SIL   O04YD       1     -1.05    15.999
   25789      Ob       1     SIL   O04YE       1     -1.05    15.999
   25790      Ob       1     SIL   O04YF       1     -1.05    15.999
   25791      Ob       1     SIL   O04YG       1     -1.05    15.999
   25792      Ob       1     SIL   O04YH       1     -1.05    15.999
   25793      Ob       1     SIL   O04YI       1     -1.05    15.999
   25794      Si       1     SIL   Si2HA       1       2.1    28.086
   25795      Si       1     SIL   Si2HB       1       2.1    28.086
   25796      Si       1     SIL   Si2HC       1       2.1    28.086
   25797      Ob       1     SIL   O04YJ       1     -1.05    15.999
   25798      Ob       1     SIL   O04YK       1     -1.05    15.999
   25799      Ob       1     SIL   O04YL       1     -1.05    15.999
   25800      Ob       1     SIL   O04YM       1     -1.05    15.999
   25801      Ob       1     SIL   O04YN       1     -1.05    15.999
   25802      Ob       1     SIL   O04YO       1     -1.05    15.999
   25803      Si       1     SIL   Si2HD       1       2.1    28.086
   25804      Si       1     SIL   Si2HE       1       2.1    28.086
   25805      Si       1     SIL   Si2HF       1       2.1    28.086
   25806      Ob       1     SIL   O04YP       1     -1.05    15.999
   25807      Ob       1     SIL   O04YQ       1     -1.05    15.999
   25808      Ob       1     SIL   O04YR       1     -1.05    15.999
   25809      Ob       1     SIL   O04YS       1     -1.05    15.999
   25810      Ob       1     SIL   O04YT       1     -1.05    15.999
   25811      Ob       1     SIL   O04YU       1     -1.05    15.999
   25812      Si       1     SIL   Si2HG       1       2.1    28.086
   25813      Si       1     SIL   Si2HH       1       2.1    28.086
   25814      Si       1     SIL   Si2HI       1       2.1    28.086
   25815      Ob       1     SIL   O04YV       1     -1.05    15.999
   25816      Ob       1     SIL   O04YW       1     -1.05    15.999
   25817      Ob       1     SIL   O04YX       1     -1.05    15.999
   25818      Ob       1     SIL   O04YY       1     -1.05    15.999
   25819      Ob       1     SIL   O04YZ       1     -1.05    15.999
   25820      Ob       1     SIL   O04Ya       1     -1.05    15.999
   25821      Si       1     SIL   Si2HJ       1       2.1    28.086
   25822      Si       1     SIL   Si2HK       1       2.1    28.086
   25823      Si       1     SIL   Si2HL       1       2.1    28.086
   25824      Ob       1     SIL   O04Yb       1     -1.05    15.999
   25825       O       1     SIL   O04Yc       1    -0.525    15.999
   25826       O       1     SIL   O04Yd       1    -0.525    15.999
   25827      Ob       1     SIL   O04Ye       1     -1.05    15.999
   25828      Ob       1     SIL   O04Yf       1     -1.05    15.999
   25829      Ob       1     SIL   O04Yg       1     -1.05    15.999
   25830      Si       1     SIL   Si2HM       1       2.1    28.086
   25831      Si       1     SIL   Si2HN       1       2.1    28.086
   25832      Si       1     SIL   Si2HO       1       2.1    28.086
   25833      Ob       1     SIL   O04Yh       1     -1.05    15.999
   25834      Ob       1     SIL   O04Yi       1     -1.05    15.999
   25835      Ob       1     SIL   O04Yj       1     -1.05    15.999
   25836      Ob       1     SIL   O04Yk       1     -1.05    15.999
   25837      Ob       1     SIL   O04Yl       1     -1.05    15.999
   25838      Ob       1     SIL   O04Ym       1     -1.05    15.999
   25839      Si       1     SIL   Si2HP       1       2.1    28.086
   25840      Si       1     SIL   Si2HQ       1       2.1    28.086
   25841      Si       1     SIL   Si2HR       1       2.1    28.086
   25842      Ob       1     SIL   O04Yn       1     -1.05    15.999
   25843      Ob       1     SIL   O04Yo       1     -1.05    15.999
   25844      Ob       1     SIL   O04Yp       1     -1.05    15.999
   25845      Ob       1     SIL   O04Yq       1     -1.05    15.999
   25846      Ob       1     SIL   O04Yr       1     -1.05    15.999
   25847      Ob       1     SIL   O04Ys       1     -1.05    15.999
   25848      Si       1     SIL   Si2HS       1       2.1    28.086
   25849      Si       1     SIL   Si2HT       1       2.1    28.086
   25850      Si       1     SIL   Si2HU       1       2.1    28.086
   25851      Ob       1     SIL   O04Yt       1     -1.05    15.999
   25852      Ob       1     SIL   O04Yu       1     -1.05    15.999
   25853      Ob       1     SIL   O04Yv       1     -1.05    15.999
   25854      Ob       1     SIL   O04Yw       1     -1.05    15.999
   25855      Ob       1     SIL   O04Yx       1     -1.05    15.999
   25856      Ob       1     SIL   O04Yy       1     -1.05    15.999
   25857      Si       1     SIL   Si2HV       1       2.1    28.086
   25858      Si       1     SIL   Si2HW       1       2.1    28.086
   25859      Si       1     SIL   Si2HX       1       2.1    28.086
   25860      Ob       1     SIL   O04Yz       1     -1.05    15.999
   25861      Ob       1     SIL   O04Z0       1     -1.05    15.999
   25862      Ob       1     SIL   O04Z1       1     -1.05    15.999
   25863      Ob       1     SIL   O04Z2       1     -1.05    15.999
   25864      Ob       1     SIL   O04Z3       1     -1.05    15.999
   25865      Ob       1     SIL   O04Z4       1     -1.05    15.999
   25866      Si       1     SIL   Si2HY       1       2.1    28.086
   25867      Si       1     SIL   Si2HZ       1       2.1    28.086
   25868      Si       1     SIL   Si2Ha       1       2.1    28.086
   25869      Ob       1     SIL   O04Z5       1     -1.05    15.999
   25870      Ob       1     SIL   O04Z6       1     -1.05    15.999
   25871      Ob       1     SIL   O04Z7       1     -1.05    15.999
   25872      Ob       1     SIL   O04Z8       1     -1.05    15.999
   25873      Ob       1     SIL   O04Z9       1     -1.05    15.999
   25874      Ob       1     SIL   O04ZA       1     -1.05    15.999
   25875      Si       1     SIL   Si2Hb       1       2.1    28.086
   25876      Si       1     SIL   Si2Hc       1       2.1    28.086
   25877      Si       1     SIL   Si2Hd       1       2.1    28.086
   25878      Ob       1     SIL   O04ZB       1     -1.05    15.999
   25879      Ob       1     SIL   O04ZC       1     -1.05    15.999
   25880      Ob       1     SIL   O04ZD       1     -1.05    15.999
   25881      Ob       1     SIL   O04ZE       1     -1.05    15.999
   25882      Ob       1     SIL   O04ZF       1     -1.05    15.999
   25883      Ob       1     SIL   O04ZG       1     -1.05    15.999
   25884      Si       1     SIL   Si2He       1       2.1    28.086
   25885      Si       1     SIL   Si2Hf       1       2.1    28.086
   25886      Si       1     SIL   Si2Hg       1       2.1    28.086
   25887      Ob       1     SIL   O04ZH       1     -1.05    15.999
   25888      Ob       1     SIL   O04ZI       1     -1.05    15.999
   25889      Ob       1     SIL   O04ZJ       1     -1.05    15.999
   25890      Ob       1     SIL   O04ZK       1     -1.05    15.999
   25891      Ob       1     SIL   O04ZL       1     -1.05    15.999
   25892      Ob       1     SIL   O04ZM       1     -1.05    15.999
   25893      Si       1     SIL   Si2Hh       1       2.1    28.086
   25894      Si       1     SIL   Si2Hi       1       2.1    28.086
   25895      Si       1     SIL   Si2Hj       1       2.1    28.086
   25896      Ob       1     SIL   O04ZN       1     -1.05    15.999
   25897      Ob       1     SIL   O04ZO       1     -1.05    15.999
   25898      Ob       1     SIL   O04ZP       1     -1.05    15.999
   25899      Ob       1     SIL   O04ZQ       1     -1.05    15.999
   25900      Ob       1     SIL   O04ZR       1     -1.05    15.999
   25901      Ob       1     SIL   O04ZS       1     -1.05    15.999
   25902      Si       1     SIL   Si2Hk       1       2.1    28.086
   25903      Si       1     SIL   Si2Hl       1       2.1    28.086
   25904      Si       1     SIL   Si2Hm       1       2.1    28.086
   25905      Ob       1     SIL   O04ZT       1     -1.05    15.999
   25906      Ob       1     SIL   O04ZU       1     -1.05    15.999
   25907      Ob       1     SIL   O04ZV       1     -1.05    15.999
   25908      Ob       1     SIL   O04ZW       1     -1.05    15.999
   25909      Ob       1     SIL   O04ZX       1     -1.05    15.999
   25910      Ob       1     SIL   O04ZY       1     -1.05    15.999
   25911      Si       1     SIL   Si2Hn       1       2.1    28.086
   25912      Si       1     SIL   Si2Ho       1       2.1    28.086
   25913      Si       1     SIL   Si2Hp       1       2.1    28.086
   25914      Ob       1     SIL   O04ZZ       1     -1.05    15.999
   25915      Ob       1     SIL   O04Za       1     -1.05    15.999
   25916      Ob       1     SIL   O04Zb       1     -1.05    15.999
   25917      Ob       1     SIL   O04Zc       1     -1.05    15.999
   25918      Ob       1     SIL   O04Zd       1     -1.05    15.999
   25919      Ob       1     SIL   O04Ze       1     -1.05    15.999
   25920      Si       1     SIL   Si2Hq       1       2.1    28.086
   25921      Si       1     SIL   Si2Hr       1       2.1    28.086
   25922      Si       1     SIL   Si2Hs       1       2.1    28.086
   25923      Ob       1     SIL   O04Zf       1     -1.05    15.999
   25924      Ob       1     SIL   O04Zg       1     -1.05    15.999
   25925      Ob       1     SIL   O04Zh       1     -1.05    15.999
   25926      Ob       1     SIL   O04Zi       1     -1.05    15.999
   25927      Ob       1     SIL   O04Zj       1     -1.05    15.999
   25928      Ob       1     SIL   O04Zk       1     -1.05    15.999
   25929      Si       1     SIL   Si2Ht       1       2.1    28.086
   25930      Si       1     SIL   Si2Hu       1       2.1    28.086
   25931      Si       1     SIL   Si2Hv       1       2.1    28.086
   25932      Ob       1     SIL   O04Zl       1     -1.05    15.999
   25933      Ob       1     SIL   O04Zm       1     -1.05    15.999
   25934      Ob       1     SIL   O04Zn       1     -1.05    15.999
   25935      Ob       1     SIL   O04Zo       1     -1.05    15.999
   25936      Ob       1     SIL   O04Zp       1     -1.05    15.999
   25937      Ob       1     SIL   O04Zq       1     -1.05    15.999
   25938      Si       1     SIL   Si2Hw       1       2.1    28.086
   25939      Si       1     SIL   Si2Hx       1       2.1    28.086
   25940      Si       1     SIL   Si2Hy       1       2.1    28.086
   25941      Ob       1     SIL   O04Zr       1     -1.05    15.999
   25942      Ob       1     SIL   O04Zs       1     -1.05    15.999
   25943      Ob       1     SIL   O04Zt       1     -1.05    15.999
   25944      Ob       1     SIL   O04Zu       1     -1.05    15.999
   25945      Ob       1     SIL   O04Zv       1     -1.05    15.999
   25946      Ob       1     SIL   O04Zw       1     -1.05    15.999
   25947      Si       1     SIL   Si2Hz       1       2.1    28.086
   25948      Si       1     SIL   Si2I0       1       2.1    28.086
   25949      Si       1     SIL   Si2I1       1       2.1    28.086
   25950      Ob       1     SIL   O04Zx       1     -1.05    15.999
   25951      Ob       1     SIL   O04Zy       1     -1.05    15.999
   25952      Ob       1     SIL   O04Zz       1     -1.05    15.999
   25953      Ob       1     SIL   O04a0       1     -1.05    15.999
   25954      Ob       1     SIL   O04a1       1     -1.05    15.999
   25955      Ob       1     SIL   O04a2       1     -1.05    15.999
   25956      Si       1     SIL   Si2I2       1       2.1    28.086
   25957      Si       1     SIL   Si2I3       1       2.1    28.086
   25958      Si       1     SIL   Si2I4       1       2.1    28.086
   25959      Ob       1     SIL   O04a3       1     -1.05    15.999
   25960      Ob       1     SIL   O04a4       1     -1.05    15.999
   25961      Ob       1     SIL   O04a5       1     -1.05    15.999
   25962      Ob       1     SIL   O04a6       1     -1.05    15.999
   25963      Ob       1     SIL   O04a7       1     -1.05    15.999
   25964      Ob       1     SIL   O04a8       1     -1.05    15.999
   25965      Si       1     SIL   Si2I5       1       2.1    28.086
   25966      Si       1     SIL   Si2I6       1       2.1    28.086
   25967      Si       1     SIL   Si2I7       1       2.1    28.086
   25968      Ob       1     SIL   O04a9       1     -1.05    15.999
   25969      Ob       1     SIL   O04aA       1     -1.05    15.999
   25970      Ob       1     SIL   O04aB       1     -1.05    15.999
   25971      Ob       1     SIL   O04aC       1     -1.05    15.999
   25972      Ob       1     SIL   O04aD       1     -1.05    15.999
   25973      Ob       1     SIL   O04aE       1     -1.05    15.999
   25974      Si       1     SIL   Si2I8       1       2.1    28.086
   25975      Si       1     SIL   Si2I9       1       2.1    28.086
   25976      Si       1     SIL   Si2IA       1       2.1    28.086
   25977      Ob       1     SIL   O04aF       1     -1.05    15.999
   25978      Ob       1     SIL   O04aG       1     -1.05    15.999
   25979      Ob       1     SIL   O04aH       1     -1.05    15.999
   25980      Ob       1     SIL   O04aI       1     -1.05    15.999
   25981      Ob       1     SIL   O04aJ       1     -1.05    15.999
   25982      Ob       1     SIL   O04aK       1     -1.05    15.999
   25983      Si       1     SIL   Si2IB       1       2.1    28.086
   25984      Si       1     SIL   Si2IC       1       2.1    28.086
   25985      Si       1     SIL   Si2ID       1       2.1    28.086
   25986      Ob       1     SIL   O04aL       1     -1.05    15.999
   25987      Ob       1     SIL   O04aM       1     -1.05    15.999
   25988      Ob       1     SIL   O04aN       1     -1.05    15.999
   25989      Ob       1     SIL   O04aO       1     -1.05    15.999
   25990      Ob       1     SIL   O04aP       1     -1.05    15.999
   25991      Ob       1     SIL   O04aQ       1     -1.05    15.999
   25992      Si       1     SIL   Si2IE       1       2.1    28.086
   25993      Si       1     SIL   Si2IF       1       2.1    28.086
   25994      Si       1     SIL   Si2IG       1       2.1    28.086
   25995      Ob       1     SIL   O04aR       1     -1.05    15.999
   25996      Ob       1     SIL   O04aS       1     -1.05    15.999
   25997      Ob       1     SIL   O04aT       1     -1.05    15.999
   25998      Ob       1     SIL   O04aU       1     -1.05    15.999
   25999      Ob       1     SIL   O04aV       1     -1.05    15.999
   26000      Ob       1     SIL   O04aW       1     -1.05    15.999
   26001      Si       1     SIL   Si2IH       1       2.1    28.086
   26002      Si       1     SIL   Si2II       1       2.1    28.086
   26003      Si       1     SIL   Si2IJ       1       2.1    28.086
   26004      Ob       1     SIL   O04aX       1     -1.05    15.999
   26005      Ob       1     SIL   O04aY       1     -1.05    15.999
   26006      Ob       1     SIL   O04aZ       1     -1.05    15.999
   26007      Ob       1     SIL   O04aa       1     -1.05    15.999
   26008      Ob       1     SIL   O04ab       1     -1.05    15.999
   26009      Ob       1     SIL   O04ac       1     -1.05    15.999
   26010      Si       1     SIL   Si2IK       1       2.1    28.086
   26011      Si       1     SIL   Si2IL       1       2.1    28.086
   26012      Si       1     SIL   Si2IM       1       2.1    28.086
   26013      Ob       1     SIL   O04ad       1     -1.05    15.999
   26014      Ob       1     SIL   O04ae       1     -1.05    15.999
   26015      Ob       1     SIL   O04af       1     -1.05    15.999
   26016      Ob       1     SIL   O04ag       1     -1.05    15.999
   26017      Ob       1     SIL   O04ah       1     -1.05    15.999
   26018      Ob       1     SIL   O04ai       1     -1.05    15.999
   26019      Si       1     SIL   Si2IN       1       2.1    28.086
   26020      Si       1     SIL   Si2IO       1       2.1    28.086
   26021      Si       1     SIL   Si2IP       1       2.1    28.086
   26022      Ob       1     SIL   O04aj       1     -1.05    15.999
   26023      Ob       1     SIL   O04ak       1     -1.05    15.999
   26024      Ob       1     SIL   O04al       1     -1.05    15.999
   26025      Ob       1     SIL   O04am       1     -1.05    15.999
   26026      Ob       1     SIL   O04an       1     -1.05    15.999
   26027      Ob       1     SIL   O04ao       1     -1.05    15.999
   26028      Si       1     SIL   Si2IQ       1       2.1    28.086
   26029      Si       1     SIL   Si2IR       1       2.1    28.086
   26030      Si       1     SIL   Si2IS       1       2.1    28.086
   26031      Ob       1     SIL   O04ap       1     -1.05    15.999
   26032       O       1     SIL   O04aq       1    -0.525    15.999
   26033       O       1     SIL   O04ar       1    -0.525    15.999
   26034      Ob       1     SIL   O04as       1     -1.05    15.999
   26035      Ob       1     SIL   O04at       1     -1.05    15.999
   26036      Ob       1     SIL   O04au       1     -1.05    15.999
   26037      Si       1     SIL   Si2IT       1       2.1    28.086
   26038      Si       1     SIL   Si2IU       1       2.1    28.086
   26039      Si       1     SIL   Si2IV       1       2.1    28.086
   26040      Ob       1     SIL   O04av       1     -1.05    15.999
   26041      Ob       1     SIL   O04aw       1     -1.05    15.999
   26042      Ob       1     SIL   O04ax       1     -1.05    15.999
   26043      Ob       1     SIL   O04ay       1     -1.05    15.999
   26044      Ob       1     SIL   O04az       1     -1.05    15.999
   26045      Ob       1     SIL   O04b0       1     -1.05    15.999
   26046      Si       1     SIL   Si2IW       1       2.1    28.086
   26047      Si       1     SIL   Si2IX       1       2.1    28.086
   26048      Si       1     SIL   Si2IY       1       2.1    28.086
   26049      Ob       1     SIL   O04b1       1     -1.05    15.999
   26050      Ob       1     SIL   O04b2       1     -1.05    15.999
   26051      Ob       1     SIL   O04b3       1     -1.05    15.999
   26052      Ob       1     SIL   O04b4       1     -1.05    15.999
   26053      Ob       1     SIL   O04b5       1     -1.05    15.999
   26054      Ob       1     SIL   O04b6       1     -1.05    15.999
   26055      Si       1     SIL   Si2IZ       1       2.1    28.086
   26056      Si       1     SIL   Si2Ia       1       2.1    28.086
   26057      Si       1     SIL   Si2Ib       1       2.1    28.086
   26058      Ob       1     SIL   O04b7       1     -1.05    15.999
   26059      Ob       1     SIL   O04b8       1     -1.05    15.999
   26060      Ob       1     SIL   O04b9       1     -1.05    15.999
   26061      Ob       1     SIL   O04bA       1     -1.05    15.999
   26062      Ob       1     SIL   O04bB       1     -1.05    15.999
   26063      Ob       1     SIL   O04bC       1     -1.05    15.999
   26064      Si       1     SIL   Si2Ic       1       2.1    28.086
   26065      Si       1     SIL   Si2Id       1       2.1    28.086
   26066      Si       1     SIL   Si2Ie       1       2.1    28.086
   26067      Ob       1     SIL   O04bD       1     -1.05    15.999
   26068      Ob       1     SIL   O04bE       1     -1.05    15.999
   26069      Ob       1     SIL   O04bF       1     -1.05    15.999
   26070      Ob       1     SIL   O04bG       1     -1.05    15.999
   26071      Ob       1     SIL   O04bH       1     -1.05    15.999
   26072      Ob       1     SIL   O04bI       1     -1.05    15.999
   26073      Si       1     SIL   Si2If       1       2.1    28.086
   26074      Si       1     SIL   Si2Ig       1       2.1    28.086
   26075      Si       1     SIL   Si2Ih       1       2.1    28.086
   26076      Ob       1     SIL   O04bJ       1     -1.05    15.999
   26077      Ob       1     SIL   O04bK       1     -1.05    15.999
   26078      Ob       1     SIL   O04bL       1     -1.05    15.999
   26079      Ob       1     SIL   O04bM       1     -1.05    15.999
   26080      Ob       1     SIL   O04bN       1     -1.05    15.999
   26081      Ob       1     SIL   O04bO       1     -1.05    15.999
   26082      Si       1     SIL   Si2Ii       1       2.1    28.086
   26083      Si       1     SIL   Si2Ij       1       2.1    28.086
   26084      Si       1     SIL   Si2Ik       1       2.1    28.086
   26085      Ob       1     SIL   O04bP       1     -1.05    15.999
   26086      Ob       1     SIL   O04bQ       1     -1.05    15.999
   26087      Ob       1     SIL   O04bR       1     -1.05    15.999
   26088      Ob       1     SIL   O04bS       1     -1.05    15.999
   26089      Ob       1     SIL   O04bT       1     -1.05    15.999
   26090      Ob       1     SIL   O04bU       1     -1.05    15.999
   26091      Si       1     SIL   Si2Il       1       2.1    28.086
   26092      Si       1     SIL   Si2Im       1       2.1    28.086
   26093      Si       1     SIL   Si2In       1       2.1    28.086
   26094      Ob       1     SIL   O04bV       1     -1.05    15.999
   26095      Ob       1     SIL   O04bW       1     -1.05    15.999
   26096      Ob       1     SIL   O04bX       1     -1.05    15.999
   26097      Ob       1     SIL   O04bY       1     -1.05    15.999
   26098      Ob       1     SIL   O04bZ       1     -1.05    15.999
   26099      Ob       1     SIL   O04ba       1     -1.05    15.999
   26100      Si       1     SIL   Si2Io       1       2.1    28.086
   26101      Si       1     SIL   Si2Ip       1       2.1    28.086
   26102      Si       1     SIL   Si2Iq       1       2.1    28.086
   26103      Ob       1     SIL   O04bb       1     -1.05    15.999
   26104      Ob       1     SIL   O04bc       1     -1.05    15.999
   26105      Ob       1     SIL   O04bd       1     -1.05    15.999
   26106      Ob       1     SIL   O04be       1     -1.05    15.999
   26107      Ob       1     SIL   O04bf       1     -1.05    15.999
   26108      Ob       1     SIL   O04bg       1     -1.05    15.999
   26109      Si       1     SIL   Si2Ir       1       2.1    28.086
   26110      Si       1     SIL   Si2Is       1       2.1    28.086
   26111      Si       1     SIL   Si2It       1       2.1    28.086
   26112      Ob       1     SIL   O04bh       1     -1.05    15.999
   26113      Ob       1     SIL   O04bi       1     -1.05    15.999
   26114      Ob       1     SIL   O04bj       1     -1.05    15.999
   26115      Ob       1     SIL   O04bk       1     -1.05    15.999
   26116      Ob       1     SIL   O04bl       1     -1.05    15.999
   26117      Ob       1     SIL   O04bm       1     -1.05    15.999
   26118      Si       1     SIL   Si2Iu       1       2.1    28.086
   26119      Si       1     SIL   Si2Iv       1       2.1    28.086
   26120      Si       1     SIL   Si2Iw       1       2.1    28.086
   26121      Ob       1     SIL   O04bn       1     -1.05    15.999
   26122      Ob       1     SIL   O04bo       1     -1.05    15.999
   26123      Ob       1     SIL   O04bp       1     -1.05    15.999
   26124      Ob       1     SIL   O04bq       1     -1.05    15.999
   26125      Ob       1     SIL   O04br       1     -1.05    15.999
   26126      Ob       1     SIL   O04bs       1     -1.05    15.999
   26127      Si       1     SIL   Si2Ix       1       2.1    28.086
   26128      Si       1     SIL   Si2Iy       1       2.1    28.086
   26129      Si       1     SIL   Si2Iz       1       2.1    28.086
   26130      Ob       1     SIL   O04bt       1     -1.05    15.999
   26131      Ob       1     SIL   O04bu       1     -1.05    15.999
   26132      Ob       1     SIL   O04bv       1     -1.05    15.999
   26133      Ob       1     SIL   O04bw       1     -1.05    15.999
   26134      Ob       1     SIL   O04bx       1     -1.05    15.999
   26135      Ob       1     SIL   O04by       1     -1.05    15.999
   26136      Si       1     SIL   Si2J0       1       2.1    28.086
   26137      Si       1     SIL   Si2J1       1       2.1    28.086
   26138      Si       1     SIL   Si2J2       1       2.1    28.086
   26139      Ob       1     SIL   O04bz       1     -1.05    15.999
   26140      Ob       1     SIL   O04c0       1     -1.05    15.999
   26141      Ob       1     SIL   O04c1       1     -1.05    15.999
   26142      Ob       1     SIL   O04c2       1     -1.05    15.999
   26143      Ob       1     SIL   O04c3       1     -1.05    15.999
   26144      Ob       1     SIL   O04c4       1     -1.05    15.999
   26145      Si       1     SIL   Si2J3       1       2.1    28.086
   26146      Si       1     SIL   Si2J4       1       2.1    28.086
   26147      Si       1     SIL   Si2J5       1       2.1    28.086
   26148      Ob       1     SIL   O04c5       1     -1.05    15.999
   26149      Ob       1     SIL   O04c6       1     -1.05    15.999
   26150      Ob       1     SIL   O04c7       1     -1.05    15.999
   26151      Ob       1     SIL   O04c8       1     -1.05    15.999
   26152      Ob       1     SIL   O04c9       1     -1.05    15.999
   26153      Ob       1     SIL   O04cA       1     -1.05    15.999
   26154      Si       1     SIL   Si2J6       1       2.1    28.086
   26155      Si       1     SIL   Si2J7       1       2.1    28.086
   26156      Si       1     SIL   Si2J8       1       2.1    28.086
   26157      Ob       1     SIL   O04cB       1     -1.05    15.999
   26158      Ob       1     SIL   O04cC       1     -1.05    15.999
   26159      Ob       1     SIL   O04cD       1     -1.05    15.999
   26160      Ob       1     SIL   O04cE       1     -1.05    15.999
   26161      Ob       1     SIL   O04cF       1     -1.05    15.999
   26162      Ob       1     SIL   O04cG       1     -1.05    15.999
   26163      Si       1     SIL   Si2J9       1       2.1    28.086
   26164      Si       1     SIL   Si2JA       1       2.1    28.086
   26165      Si       1     SIL   Si2JB       1       2.1    28.086
   26166      Ob       1     SIL   O04cH       1     -1.05    15.999
   26167      Ob       1     SIL   O04cI       1     -1.05    15.999
   26168      Ob       1     SIL   O04cJ       1     -1.05    15.999
   26169      Ob       1     SIL   O04cK       1     -1.05    15.999
   26170      Ob       1     SIL   O04cL       1     -1.05    15.999
   26171      Ob       1     SIL   O04cM       1     -1.05    15.999
   26172      Si       1     SIL   Si2JC       1       2.1    28.086
   26173      Si       1     SIL   Si2JD       1       2.1    28.086
   26174      Si       1     SIL   Si2JE       1       2.1    28.086
   26175      Ob       1     SIL   O04cN       1     -1.05    15.999
   26176      Ob       1     SIL   O04cO       1     -1.05    15.999
   26177      Ob       1     SIL   O04cP       1     -1.05    15.999
   26178      Ob       1     SIL   O04cQ       1     -1.05    15.999
   26179      Ob       1     SIL   O04cR       1     -1.05    15.999
   26180      Ob       1     SIL   O04cS       1     -1.05    15.999
   26181      Si       1     SIL   Si2JF       1       2.1    28.086
   26182      Si       1     SIL   Si2JG       1       2.1    28.086
   26183      Si       1     SIL   Si2JH       1       2.1    28.086
   26184      Ob       1     SIL   O04cT       1     -1.05    15.999
   26185      Ob       1     SIL   O04cU       1     -1.05    15.999
   26186      Ob       1     SIL   O04cV       1     -1.05    15.999
   26187      Ob       1     SIL   O04cW       1     -1.05    15.999
   26188      Ob       1     SIL   O04cX       1     -1.05    15.999
   26189      Ob       1     SIL   O04cY       1     -1.05    15.999
   26190      Si       1     SIL   Si2JI       1       2.1    28.086
   26191      Si       1     SIL   Si2JJ       1       2.1    28.086
   26192      Si       1     SIL   Si2JK       1       2.1    28.086
   26193      Ob       1     SIL   O04cZ       1     -1.05    15.999
   26194      Ob       1     SIL   O04ca       1     -1.05    15.999
   26195      Ob       1     SIL   O04cb       1     -1.05    15.999
   26196      Ob       1     SIL   O04cc       1     -1.05    15.999
   26197      Ob       1     SIL   O04cd       1     -1.05    15.999
   26198      Ob       1     SIL   O04ce       1     -1.05    15.999
   26199      Si       1     SIL   Si2JL       1       2.1    28.086
   26200      Si       1     SIL   Si2JM       1       2.1    28.086
   26201      Si       1     SIL   Si2JN       1       2.1    28.086
   26202      Ob       1     SIL   O04cf       1     -1.05    15.999
   26203      Ob       1     SIL   O04cg       1     -1.05    15.999
   26204      Ob       1     SIL   O04ch       1     -1.05    15.999
   26205      Ob       1     SIL   O04ci       1     -1.05    15.999
   26206      Ob       1     SIL   O04cj       1     -1.05    15.999
   26207      Ob       1     SIL   O04ck       1     -1.05    15.999
   26208      Si       1     SIL   Si2JO       1       2.1    28.086
   26209      Si       1     SIL   Si2JP       1       2.1    28.086
   26210      Si       1     SIL   Si2JQ       1       2.1    28.086
   26211      Ob       1     SIL   O04cl       1     -1.05    15.999
   26212      Ob       1     SIL   O04cm       1     -1.05    15.999
   26213      Ob       1     SIL   O04cn       1     -1.05    15.999
   26214      Ob       1     SIL   O04co       1     -1.05    15.999
   26215      Ob       1     SIL   O04cp       1     -1.05    15.999
   26216      Ob       1     SIL   O04cq       1     -1.05    15.999
   26217      Si       1     SIL   Si2JR       1       2.1    28.086
   26218      Si       1     SIL   Si2JS       1       2.1    28.086
   26219      Si       1     SIL   Si2JT       1       2.1    28.086
   26220      Ob       1     SIL   O04cr       1     -1.05    15.999
   26221      Ob       1     SIL   O04cs       1     -1.05    15.999
   26222      Ob       1     SIL   O04ct       1     -1.05    15.999
   26223      Ob       1     SIL   O04cu       1     -1.05    15.999
   26224      Ob       1     SIL   O04cv       1     -1.05    15.999
   26225      Ob       1     SIL   O04cw       1     -1.05    15.999
   26226      Si       1     SIL   Si2JU       1       2.1    28.086
   26227      Si       1     SIL   Si2JV       1       2.1    28.086
   26228      Si       1     SIL   Si2JW       1       2.1    28.086
   26229      Ob       1     SIL   O04cx       1     -1.05    15.999
   26230      Ob       1     SIL   O04cy       1     -1.05    15.999
   26231      Ob       1     SIL   O04cz       1     -1.05    15.999
   26232      Ob       1     SIL   O04d0       1     -1.05    15.999
   26233      Ob       1     SIL   O04d1       1     -1.05    15.999
   26234      Ob       1     SIL   O04d2       1     -1.05    15.999
   26235      Si       1     SIL   Si2JX       1       2.1    28.086
   26236      Si       1     SIL   Si2JY       1       2.1    28.086
   26237      Si       1     SIL   Si2JZ       1       2.1    28.086
   26238      Ob       1     SIL   O04d3       1     -1.05    15.999
   26239       O       1     SIL   O04d4       1    -0.525    15.999
   26240       O       1     SIL   O04d5       1    -0.525    15.999
   26241      Ob       1     SIL   O04d6       1     -1.05    15.999
   26242      Ob       1     SIL   O04d7       1     -1.05    15.999
   26243      Ob       1     SIL   O04d8       1     -1.05    15.999
   26244      Si       1     SIL   Si2Ja       1       2.1    28.086
   26245      Si       1     SIL   Si2Jb       1       2.1    28.086
   26246      Si       1     SIL   Si2Jc       1       2.1    28.086
   26247      Ob       1     SIL   O04d9       1     -1.05    15.999
   26248      Ob       1     SIL   O04dA       1     -1.05    15.999
   26249      Ob       1     SIL   O04dB       1     -1.05    15.999
   26250      Ob       1     SIL   O04dC       1     -1.05    15.999
   26251      Ob       1     SIL   O04dD       1     -1.05    15.999
   26252      Ob       1     SIL   O04dE       1     -1.05    15.999
   26253      Si       1     SIL   Si2Jd       1       2.1    28.086
   26254      Si       1     SIL   Si2Je       1       2.1    28.086
   26255      Si       1     SIL   Si2Jf       1       2.1    28.086
   26256      Ob       1     SIL   O04dF       1     -1.05    15.999
   26257      Ob       1     SIL   O04dG       1     -1.05    15.999
   26258      Ob       1     SIL   O04dH       1     -1.05    15.999
   26259      Ob       1     SIL   O04dI       1     -1.05    15.999
   26260      Ob       1     SIL   O04dJ       1     -1.05    15.999
   26261      Ob       1     SIL   O04dK       1     -1.05    15.999
   26262      Si       1     SIL   Si2Jg       1       2.1    28.086
   26263      Si       1     SIL   Si2Jh       1       2.1    28.086
   26264      Si       1     SIL   Si2Ji       1       2.1    28.086
   26265      Ob       1     SIL   O04dL       1     -1.05    15.999
   26266      Ob       1     SIL   O04dM       1     -1.05    15.999
   26267      Ob       1     SIL   O04dN       1     -1.05    15.999
   26268      Ob       1     SIL   O04dO       1     -1.05    15.999
   26269      Ob       1     SIL   O04dP       1     -1.05    15.999
   26270      Ob       1     SIL   O04dQ       1     -1.05    15.999
   26271      Si       1     SIL   Si2Jj       1       2.1    28.086
   26272      Si       1     SIL   Si2Jk       1       2.1    28.086
   26273      Si       1     SIL   Si2Jl       1       2.1    28.086
   26274      Ob       1     SIL   O04dR       1     -1.05    15.999
   26275      Ob       1     SIL   O04dS       1     -1.05    15.999
   26276      Ob       1     SIL   O04dT       1     -1.05    15.999
   26277      Ob       1     SIL   O04dU       1     -1.05    15.999
   26278      Ob       1     SIL   O04dV       1     -1.05    15.999
   26279      Ob       1     SIL   O04dW       1     -1.05    15.999
   26280      Si       1     SIL   Si2Jm       1       2.1    28.086
   26281      Si       1     SIL   Si2Jn       1       2.1    28.086
   26282      Si       1     SIL   Si2Jo       1       2.1    28.086
   26283      Ob       1     SIL   O04dX       1     -1.05    15.999
   26284      Ob       1     SIL   O04dY       1     -1.05    15.999
   26285      Ob       1     SIL   O04dZ       1     -1.05    15.999
   26286      Ob       1     SIL   O04da       1     -1.05    15.999
   26287      Ob       1     SIL   O04db       1     -1.05    15.999
   26288      Ob       1     SIL   O04dc       1     -1.05    15.999
   26289      Si       1     SIL   Si2Jp       1       2.1    28.086
   26290      Si       1     SIL   Si2Jq       1       2.1    28.086
   26291      Si       1     SIL   Si2Jr       1       2.1    28.086
   26292      Ob       1     SIL   O04dd       1     -1.05    15.999
   26293      Ob       1     SIL   O04de       1     -1.05    15.999
   26294      Ob       1     SIL   O04df       1     -1.05    15.999
   26295      Ob       1     SIL   O04dg       1     -1.05    15.999
   26296      Ob       1     SIL   O04dh       1     -1.05    15.999
   26297      Ob       1     SIL   O04di       1     -1.05    15.999
   26298      Si       1     SIL   Si2Js       1       2.1    28.086
   26299      Si       1     SIL   Si2Jt       1       2.1    28.086
   26300      Si       1     SIL   Si2Ju       1       2.1    28.086
   26301      Ob       1     SIL   O04dj       1     -1.05    15.999
   26302      Ob       1     SIL   O04dk       1     -1.05    15.999
   26303      Ob       1     SIL   O04dl       1     -1.05    15.999
   26304      Ob       1     SIL   O04dm       1     -1.05    15.999
   26305      Ob       1     SIL   O04dn       1     -1.05    15.999
   26306      Ob       1     SIL   O04do       1     -1.05    15.999
   26307      Si       1     SIL   Si2Jv       1       2.1    28.086
   26308      Si       1     SIL   Si2Jw       1       2.1    28.086
   26309      Si       1     SIL   Si2Jx       1       2.1    28.086
   26310      Ob       1     SIL   O04dp       1     -1.05    15.999
   26311      Ob       1     SIL   O04dq       1     -1.05    15.999
   26312      Ob       1     SIL   O04dr       1     -1.05    15.999
   26313      Ob       1     SIL   O04ds       1     -1.05    15.999
   26314      Ob       1     SIL   O04dt       1     -1.05    15.999
   26315      Ob       1     SIL   O04du       1     -1.05    15.999
   26316      Si       1     SIL   Si2Jy       1       2.1    28.086
   26317      Si       1     SIL   Si2Jz       1       2.1    28.086
   26318      Si       1     SIL   Si2K0       1       2.1    28.086
   26319      Ob       1     SIL   O04dv       1     -1.05    15.999
   26320      Ob       1     SIL   O04dw       1     -1.05    15.999
   26321      Ob       1     SIL   O04dx       1     -1.05    15.999
   26322      Ob       1     SIL   O04dy       1     -1.05    15.999
   26323      Ob       1     SIL   O04dz       1     -1.05    15.999
   26324      Ob       1     SIL   O04e0       1     -1.05    15.999
   26325      Si       1     SIL   Si2K1       1       2.1    28.086
   26326      Si       1     SIL   Si2K2       1       2.1    28.086
   26327      Si       1     SIL   Si2K3       1       2.1    28.086
   26328      Ob       1     SIL   O04e1       1     -1.05    15.999
   26329      Ob       1     SIL   O04e2       1     -1.05    15.999
   26330      Ob       1     SIL   O04e3       1     -1.05    15.999
   26331      Ob       1     SIL   O04e4       1     -1.05    15.999
   26332      Ob       1     SIL   O04e5       1     -1.05    15.999
   26333      Ob       1     SIL   O04e6       1     -1.05    15.999
   26334      Si       1     SIL   Si2K4       1       2.1    28.086
   26335      Si       1     SIL   Si2K5       1       2.1    28.086
   26336      Si       1     SIL   Si2K6       1       2.1    28.086
   26337      Ob       1     SIL   O04e7       1     -1.05    15.999
   26338      Ob       1     SIL   O04e8       1     -1.05    15.999
   26339      Ob       1     SIL   O04e9       1     -1.05    15.999
   26340      Ob       1     SIL   O04eA       1     -1.05    15.999
   26341      Ob       1     SIL   O04eB       1     -1.05    15.999
   26342      Ob       1     SIL   O04eC       1     -1.05    15.999
   26343      Si       1     SIL   Si2K7       1       2.1    28.086
   26344      Si       1     SIL   Si2K8       1       2.1    28.086
   26345      Si       1     SIL   Si2K9       1       2.1    28.086
   26346      Ob       1     SIL   O04eD       1     -1.05    15.999
   26347      Ob       1     SIL   O04eE       1     -1.05    15.999
   26348      Ob       1     SIL   O04eF       1     -1.05    15.999
   26349      Ob       1     SIL   O04eG       1     -1.05    15.999
   26350      Ob       1     SIL   O04eH       1     -1.05    15.999
   26351      Ob       1     SIL   O04eI       1     -1.05    15.999
   26352      Si       1     SIL   Si2KA       1       2.1    28.086
   26353      Si       1     SIL   Si2KB       1       2.1    28.086
   26354      Si       1     SIL   Si2KC       1       2.1    28.086
   26355      Ob       1     SIL   O04eJ       1     -1.05    15.999
   26356      Ob       1     SIL   O04eK       1     -1.05    15.999
   26357      Ob       1     SIL   O04eL       1     -1.05    15.999
   26358      Ob       1     SIL   O04eM       1     -1.05    15.999
   26359      Ob       1     SIL   O04eN       1     -1.05    15.999
   26360      Ob       1     SIL   O04eO       1     -1.05    15.999
   26361      Si       1     SIL   Si2KD       1       2.1    28.086
   26362      Si       1     SIL   Si2KE       1       2.1    28.086
   26363      Si       1     SIL   Si2KF       1       2.1    28.086
   26364      Ob       1     SIL   O04eP       1     -1.05    15.999
   26365      Ob       1     SIL   O04eQ       1     -1.05    15.999
   26366      Ob       1     SIL   O04eR       1     -1.05    15.999
   26367      Ob       1     SIL   O04eS       1     -1.05    15.999
   26368      Ob       1     SIL   O04eT       1     -1.05    15.999
   26369      Ob       1     SIL   O04eU       1     -1.05    15.999
   26370      Si       1     SIL   Si2KG       1       2.1    28.086
   26371      Si       1     SIL   Si2KH       1       2.1    28.086
   26372      Si       1     SIL   Si2KI       1       2.1    28.086
   26373      Ob       1     SIL   O04eV       1     -1.05    15.999
   26374      Ob       1     SIL   O04eW       1     -1.05    15.999
   26375      Ob       1     SIL   O04eX       1     -1.05    15.999
   26376      Ob       1     SIL   O04eY       1     -1.05    15.999
   26377      Ob       1     SIL   O04eZ       1     -1.05    15.999
   26378      Ob       1     SIL   O04ea       1     -1.05    15.999
   26379      Si       1     SIL   Si2KJ       1       2.1    28.086
   26380      Si       1     SIL   Si2KK       1       2.1    28.086
   26381      Si       1     SIL   Si2KL       1       2.1    28.086
   26382      Ob       1     SIL   O04eb       1     -1.05    15.999
   26383      Ob       1     SIL   O04ec       1     -1.05    15.999
   26384      Ob       1     SIL   O04ed       1     -1.05    15.999
   26385      Ob       1     SIL   O04ee       1     -1.05    15.999
   26386      Ob       1     SIL   O04ef       1     -1.05    15.999
   26387      Ob       1     SIL   O04eg       1     -1.05    15.999
   26388      Si       1     SIL   Si2KM       1       2.1    28.086
   26389      Si       1     SIL   Si2KN       1       2.1    28.086
   26390      Si       1     SIL   Si2KO       1       2.1    28.086
   26391      Ob       1     SIL   O04eh       1     -1.05    15.999
   26392      Ob       1     SIL   O04ei       1     -1.05    15.999
   26393      Ob       1     SIL   O04ej       1     -1.05    15.999
   26394      Ob       1     SIL   O04ek       1     -1.05    15.999
   26395      Ob       1     SIL   O04el       1     -1.05    15.999
   26396      Ob       1     SIL   O04em       1     -1.05    15.999
   26397      Si       1     SIL   Si2KP       1       2.1    28.086
   26398      Si       1     SIL   Si2KQ       1       2.1    28.086
   26399      Si       1     SIL   Si2KR       1       2.1    28.086
   26400      Ob       1     SIL   O04en       1     -1.05    15.999
   26401      Ob       1     SIL   O04eo       1     -1.05    15.999
   26402      Ob       1     SIL   O04ep       1     -1.05    15.999
   26403      Ob       1     SIL   O04eq       1     -1.05    15.999
   26404      Ob       1     SIL   O04er       1     -1.05    15.999
   26405      Ob       1     SIL   O04es       1     -1.05    15.999
   26406      Si       1     SIL   Si2KS       1       2.1    28.086
   26407      Si       1     SIL   Si2KT       1       2.1    28.086
   26408      Si       1     SIL   Si2KU       1       2.1    28.086
   26409      Ob       1     SIL   O04et       1     -1.05    15.999
   26410      Ob       1     SIL   O04eu       1     -1.05    15.999
   26411      Ob       1     SIL   O04ev       1     -1.05    15.999
   26412      Ob       1     SIL   O04ew       1     -1.05    15.999
   26413      Ob       1     SIL   O04ex       1     -1.05    15.999
   26414      Ob       1     SIL   O04ey       1     -1.05    15.999
   26415      Si       1     SIL   Si2KV       1       2.1    28.086
   26416      Si       1     SIL   Si2KW       1       2.1    28.086
   26417      Si       1     SIL   Si2KX       1       2.1    28.086
   26418      Ob       1     SIL   O04ez       1     -1.05    15.999
   26419      Ob       1     SIL   O04f0       1     -1.05    15.999
   26420      Ob       1     SIL   O04f1       1     -1.05    15.999
   26421      Ob       1     SIL   O04f2       1     -1.05    15.999
   26422      Ob       1     SIL   O04f3       1     -1.05    15.999
   26423      Ob       1     SIL   O04f4       1     -1.05    15.999
   26424      Si       1     SIL   Si2KY       1       2.1    28.086
   26425      Si       1     SIL   Si2KZ       1       2.1    28.086
   26426      Si       1     SIL   Si2Ka       1       2.1    28.086
   26427      Ob       1     SIL   O04f5       1     -1.05    15.999
   26428      Ob       1     SIL   O04f6       1     -1.05    15.999
   26429      Ob       1     SIL   O04f7       1     -1.05    15.999
   26430      Ob       1     SIL   O04f8       1     -1.05    15.999
   26431      Ob       1     SIL   O04f9       1     -1.05    15.999
   26432      Ob       1     SIL   O04fA       1     -1.05    15.999
   26433      Si       1     SIL   Si2Kb       1       2.1    28.086
   26434      Si       1     SIL   Si2Kc       1       2.1    28.086
   26435      Si       1     SIL   Si2Kd       1       2.1    28.086
   26436      Ob       1     SIL   O04fB       1     -1.05    15.999
   26437      Ob       1     SIL   O04fC       1     -1.05    15.999
   26438      Ob       1     SIL   O04fD       1     -1.05    15.999
   26439      Ob       1     SIL   O04fE       1     -1.05    15.999
   26440      Ob       1     SIL   O04fF       1     -1.05    15.999
   26441      Ob       1     SIL   O04fG       1     -1.05    15.999
   26442      Si       1     SIL   Si2Ke       1       2.1    28.086
   26443      Si       1     SIL   Si2Kf       1       2.1    28.086
   26444      Si       1     SIL   Si2Kg       1       2.1    28.086
   26445      Ob       1     SIL   O04fH       1     -1.05    15.999
   26446       O       1     SIL   O04fI       1    -0.525    15.999
   26447       O       1     SIL   O04fJ       1    -0.525    15.999
   26448      Ob       1     SIL   O04fK       1     -1.05    15.999
   26449      Ob       1     SIL   O04fL       1     -1.05    15.999
   26450      Ob       1     SIL   O04fM       1     -1.05    15.999
   26451      Si       1     SIL   Si2Kh       1       2.1    28.086
   26452      Si       1     SIL   Si2Ki       1       2.1    28.086
   26453      Si       1     SIL   Si2Kj       1       2.1    28.086
   26454      Ob       1     SIL   O04fN       1     -1.05    15.999
   26455      Ob       1     SIL   O04fO       1     -1.05    15.999
   26456      Ob       1     SIL   O04fP       1     -1.05    15.999
   26457      Ob       1     SIL   O04fQ       1     -1.05    15.999
   26458      Ob       1     SIL   O04fR       1     -1.05    15.999
   26459      Ob       1     SIL   O04fS       1     -1.05    15.999
   26460      Si       1     SIL   Si2Kk       1       2.1    28.086
   26461      Si       1     SIL   Si2Kl       1       2.1    28.086
   26462      Si       1     SIL   Si2Km       1       2.1    28.086
   26463      Ob       1     SIL   O04fT       1     -1.05    15.999
   26464      Ob       1     SIL   O04fU       1     -1.05    15.999
   26465      Ob       1     SIL   O04fV       1     -1.05    15.999
   26466      Ob       1     SIL   O04fW       1     -1.05    15.999
   26467      Ob       1     SIL   O04fX       1     -1.05    15.999
   26468      Ob       1     SIL   O04fY       1     -1.05    15.999
   26469      Si       1     SIL   Si2Kn       1       2.1    28.086
   26470      Si       1     SIL   Si2Ko       1       2.1    28.086
   26471      Si       1     SIL   Si2Kp       1       2.1    28.086
   26472      Ob       1     SIL   O04fZ       1     -1.05    15.999
   26473      Ob       1     SIL   O04fa       1     -1.05    15.999
   26474      Ob       1     SIL   O04fb       1     -1.05    15.999
   26475      Ob       1     SIL   O04fc       1     -1.05    15.999
   26476      Ob       1     SIL   O04fd       1     -1.05    15.999
   26477      Ob       1     SIL   O04fe       1     -1.05    15.999
   26478      Si       1     SIL   Si2Kq       1       2.1    28.086
   26479      Si       1     SIL   Si2Kr       1       2.1    28.086
   26480      Si       1     SIL   Si2Ks       1       2.1    28.086
   26481      Ob       1     SIL   O04ff       1     -1.05    15.999
   26482      Ob       1     SIL   O04fg       1     -1.05    15.999
   26483      Ob       1     SIL   O04fh       1     -1.05    15.999
   26484      Ob       1     SIL   O04fi       1     -1.05    15.999
   26485      Ob       1     SIL   O04fj       1     -1.05    15.999
   26486      Ob       1     SIL   O04fk       1     -1.05    15.999
   26487      Si       1     SIL   Si2Kt       1       2.1    28.086
   26488      Si       1     SIL   Si2Ku       1       2.1    28.086
   26489      Si       1     SIL   Si2Kv       1       2.1    28.086
   26490      Ob       1     SIL   O04fl       1     -1.05    15.999
   26491      Ob       1     SIL   O04fm       1     -1.05    15.999
   26492      Ob       1     SIL   O04fn       1     -1.05    15.999
   26493      Ob       1     SIL   O04fo       1     -1.05    15.999
   26494      Ob       1     SIL   O04fp       1     -1.05    15.999
   26495      Ob       1     SIL   O04fq       1     -1.05    15.999
   26496      Si       1     SIL   Si2Kw       1       2.1    28.086
   26497      Si       1     SIL   Si2Kx       1       2.1    28.086
   26498      Si       1     SIL   Si2Ky       1       2.1    28.086
   26499      Ob       1     SIL   O04fr       1     -1.05    15.999
   26500      Ob       1     SIL   O04fs       1     -1.05    15.999
   26501      Ob       1     SIL   O04ft       1     -1.05    15.999
   26502      Ob       1     SIL   O04fu       1     -1.05    15.999
   26503      Ob       1     SIL   O04fv       1     -1.05    15.999
   26504      Ob       1     SIL   O04fw       1     -1.05    15.999
   26505      Si       1     SIL   Si2Kz       1       2.1    28.086
   26506      Si       1     SIL   Si2L0       1       2.1    28.086
   26507      Si       1     SIL   Si2L1       1       2.1    28.086
   26508      Ob       1     SIL   O04fx       1     -1.05    15.999
   26509      Ob       1     SIL   O04fy       1     -1.05    15.999
   26510      Ob       1     SIL   O04fz       1     -1.05    15.999
   26511      Ob       1     SIL   O04g0       1     -1.05    15.999
   26512      Ob       1     SIL   O04g1       1     -1.05    15.999
   26513      Ob       1     SIL   O04g2       1     -1.05    15.999
   26514      Si       1     SIL   Si2L2       1       2.1    28.086
   26515      Si       1     SIL   Si2L3       1       2.1    28.086
   26516      Si       1     SIL   Si2L4       1       2.1    28.086
   26517      Ob       1     SIL   O04g3       1     -1.05    15.999
   26518      Ob       1     SIL   O04g4       1     -1.05    15.999
   26519      Ob       1     SIL   O04g5       1     -1.05    15.999
   26520      Ob       1     SIL   O04g6       1     -1.05    15.999
   26521      Ob       1     SIL   O04g7       1     -1.05    15.999
   26522      Ob       1     SIL   O04g8       1     -1.05    15.999
   26523      Si       1     SIL   Si2L5       1       2.1    28.086
   26524      Si       1     SIL   Si2L6       1       2.1    28.086
   26525      Si       1     SIL   Si2L7       1       2.1    28.086
   26526      Ob       1     SIL   O04g9       1     -1.05    15.999
   26527      Ob       1     SIL   O04gA       1     -1.05    15.999
   26528      Ob       1     SIL   O04gB       1     -1.05    15.999
   26529      Ob       1     SIL   O04gC       1     -1.05    15.999
   26530      Ob       1     SIL   O04gD       1     -1.05    15.999
   26531      Ob       1     SIL   O04gE       1     -1.05    15.999
   26532      Si       1     SIL   Si2L8       1       2.1    28.086
   26533      Si       1     SIL   Si2L9       1       2.1    28.086
   26534      Si       1     SIL   Si2LA       1       2.1    28.086
   26535      Ob       1     SIL   O04gF       1     -1.05    15.999
   26536      Ob       1     SIL   O04gG       1     -1.05    15.999
   26537      Ob       1     SIL   O04gH       1     -1.05    15.999
   26538      Ob       1     SIL   O04gI       1     -1.05    15.999
   26539      Ob       1     SIL   O04gJ       1     -1.05    15.999
   26540      Ob       1     SIL   O04gK       1     -1.05    15.999
   26541      Si       1     SIL   Si2LB       1       2.1    28.086
   26542      Si       1     SIL   Si2LC       1       2.1    28.086
   26543      Si       1     SIL   Si2LD       1       2.1    28.086
   26544      Ob       1     SIL   O04gL       1     -1.05    15.999
   26545      Ob       1     SIL   O04gM       1     -1.05    15.999
   26546      Ob       1     SIL   O04gN       1     -1.05    15.999
   26547      Ob       1     SIL   O04gO       1     -1.05    15.999
   26548      Ob       1     SIL   O04gP       1     -1.05    15.999
   26549      Ob       1     SIL   O04gQ       1     -1.05    15.999
   26550      Si       1     SIL   Si2LE       1       2.1    28.086
   26551      Si       1     SIL   Si2LF       1       2.1    28.086
   26552      Si       1     SIL   Si2LG       1       2.1    28.086
   26553      Ob       1     SIL   O04gR       1     -1.05    15.999
   26554      Ob       1     SIL   O04gS       1     -1.05    15.999
   26555      Ob       1     SIL   O04gT       1     -1.05    15.999
   26556      Ob       1     SIL   O04gU       1     -1.05    15.999
   26557      Ob       1     SIL   O04gV       1     -1.05    15.999
   26558      Ob       1     SIL   O04gW       1     -1.05    15.999
   26559      Si       1     SIL   Si2LH       1       2.1    28.086
   26560      Si       1     SIL   Si2LI       1       2.1    28.086
   26561      Si       1     SIL   Si2LJ       1       2.1    28.086
   26562      Ob       1     SIL   O04gX       1     -1.05    15.999
   26563      Ob       1     SIL   O04gY       1     -1.05    15.999
   26564      Ob       1     SIL   O04gZ       1     -1.05    15.999
   26565      Ob       1     SIL   O04ga       1     -1.05    15.999
   26566      Ob       1     SIL   O04gb       1     -1.05    15.999
   26567      Ob       1     SIL   O04gc       1     -1.05    15.999
   26568      Si       1     SIL   Si2LK       1       2.1    28.086
   26569      Si       1     SIL   Si2LL       1       2.1    28.086
   26570      Si       1     SIL   Si2LM       1       2.1    28.086
   26571      Ob       1     SIL   O04gd       1     -1.05    15.999
   26572      Ob       1     SIL   O04ge       1     -1.05    15.999
   26573      Ob       1     SIL   O04gf       1     -1.05    15.999
   26574      Ob       1     SIL   O04gg       1     -1.05    15.999
   26575      Ob       1     SIL   O04gh       1     -1.05    15.999
   26576      Ob       1     SIL   O04gi       1     -1.05    15.999
   26577      Si       1     SIL   Si2LN       1       2.1    28.086
   26578      Si       1     SIL   Si2LO       1       2.1    28.086
   26579      Si       1     SIL   Si2LP       1       2.1    28.086
   26580      Ob       1     SIL   O04gj       1     -1.05    15.999
   26581      Ob       1     SIL   O04gk       1     -1.05    15.999
   26582      Ob       1     SIL   O04gl       1     -1.05    15.999
   26583      Ob       1     SIL   O04gm       1     -1.05    15.999
   26584      Ob       1     SIL   O04gn       1     -1.05    15.999
   26585      Ob       1     SIL   O04go       1     -1.05    15.999
   26586      Si       1     SIL   Si2LQ       1       2.1    28.086
   26587      Si       1     SIL   Si2LR       1       2.1    28.086
   26588      Si       1     SIL   Si2LS       1       2.1    28.086
   26589      Ob       1     SIL   O04gp       1     -1.05    15.999
   26590      Ob       1     SIL   O04gq       1     -1.05    15.999
   26591      Ob       1     SIL   O04gr       1     -1.05    15.999
   26592      Ob       1     SIL   O04gs       1     -1.05    15.999
   26593      Ob       1     SIL   O04gt       1     -1.05    15.999
   26594      Ob       1     SIL   O04gu       1     -1.05    15.999
   26595      Si       1     SIL   Si2LT       1       2.1    28.086
   26596      Si       1     SIL   Si2LU       1       2.1    28.086
   26597      Si       1     SIL   Si2LV       1       2.1    28.086
   26598      Ob       1     SIL   O04gv       1     -1.05    15.999
   26599      Ob       1     SIL   O04gw       1     -1.05    15.999
   26600      Ob       1     SIL   O04gx       1     -1.05    15.999
   26601      Ob       1     SIL   O04gy       1     -1.05    15.999
   26602      Ob       1     SIL   O04gz       1     -1.05    15.999
   26603      Ob       1     SIL   O04h0       1     -1.05    15.999
   26604      Si       1     SIL   Si2LW       1       2.1    28.086
   26605      Si       1     SIL   Si2LX       1       2.1    28.086
   26606      Si       1     SIL   Si2LY       1       2.1    28.086
   26607      Ob       1     SIL   O04h1       1     -1.05    15.999
   26608      Ob       1     SIL   O04h2       1     -1.05    15.999
   26609      Ob       1     SIL   O04h3       1     -1.05    15.999
   26610      Ob       1     SIL   O04h4       1     -1.05    15.999
   26611      Ob       1     SIL   O04h5       1     -1.05    15.999
   26612      Ob       1     SIL   O04h6       1     -1.05    15.999
   26613      Si       1     SIL   Si2LZ       1       2.1    28.086
   26614      Si       1     SIL   Si2La       1       2.1    28.086
   26615      Si       1     SIL   Si2Lb       1       2.1    28.086
   26616      Ob       1     SIL   O04h7       1     -1.05    15.999
   26617      Ob       1     SIL   O04h8       1     -1.05    15.999
   26618      Ob       1     SIL   O04h9       1     -1.05    15.999
   26619      Ob       1     SIL   O04hA       1     -1.05    15.999
   26620      Ob       1     SIL   O04hB       1     -1.05    15.999
   26621      Ob       1     SIL   O04hC       1     -1.05    15.999
   26622      Si       1     SIL   Si2Lc       1       2.1    28.086
   26623      Si       1     SIL   Si2Ld       1       2.1    28.086
   26624      Si       1     SIL   Si2Le       1       2.1    28.086
   26625      Ob       1     SIL   O04hD       1     -1.05    15.999
   26626      Ob       1     SIL   O04hE       1     -1.05    15.999
   26627      Ob       1     SIL   O04hF       1     -1.05    15.999
   26628      Ob       1     SIL   O04hG       1     -1.05    15.999
   26629      Ob       1     SIL   O04hH       1     -1.05    15.999
   26630      Ob       1     SIL   O04hI       1     -1.05    15.999
   26631      Si       1     SIL   Si2Lf       1       2.1    28.086
   26632      Si       1     SIL   Si2Lg       1       2.1    28.086
   26633      Si       1     SIL   Si2Lh       1       2.1    28.086
   26634      Ob       1     SIL   O04hJ       1     -1.05    15.999
   26635      Ob       1     SIL   O04hK       1     -1.05    15.999
   26636      Ob       1     SIL   O04hL       1     -1.05    15.999
   26637      Ob       1     SIL   O04hM       1     -1.05    15.999
   26638      Ob       1     SIL   O04hN       1     -1.05    15.999
   26639      Ob       1     SIL   O04hO       1     -1.05    15.999
   26640      Si       1     SIL   Si2Li       1       2.1    28.086
   26641      Si       1     SIL   Si2Lj       1       2.1    28.086
   26642      Si       1     SIL   Si2Lk       1       2.1    28.086
   26643      Ob       1     SIL   O04hP       1     -1.05    15.999
   26644      Ob       1     SIL   O04hQ       1     -1.05    15.999
   26645      Ob       1     SIL   O04hR       1     -1.05    15.999
   26646      Ob       1     SIL   O04hS       1     -1.05    15.999
   26647      Ob       1     SIL   O04hT       1     -1.05    15.999
   26648      Ob       1     SIL   O04hU       1     -1.05    15.999
   26649      Si       1     SIL   Si2Ll       1       2.1    28.086
   26650      Si       1     SIL   Si2Lm       1       2.1    28.086
   26651      Si       1     SIL   Si2Ln       1       2.1    28.086
   26652      Ob       1     SIL   O04hV       1     -1.05    15.999
   26653       O       1     SIL   O04hW       1    -0.525    15.999
   26654       O       1     SIL   O04hX       1    -0.525    15.999
   26655      Ob       1     SIL   O04hY       1     -1.05    15.999
   26656      Ob       1     SIL   O04hZ       1     -1.05    15.999
   26657      Ob       1     SIL   O04ha       1     -1.05    15.999
   26658      Si       1     SIL   Si2Lo       1       2.1    28.086
   26659      Si       1     SIL   Si2Lp       1       2.1    28.086
   26660      Si       1     SIL   Si2Lq       1       2.1    28.086
   26661      Ob       1     SIL   O04hb       1     -1.05    15.999
   26662      Ob       1     SIL   O04hc       1     -1.05    15.999
   26663      Ob       1     SIL   O04hd       1     -1.05    15.999
   26664      Ob       1     SIL   O04he       1     -1.05    15.999
   26665      Ob       1     SIL   O04hf       1     -1.05    15.999
   26666      Ob       1     SIL   O04hg       1     -1.05    15.999
   26667      Si       1     SIL   Si2Lr       1       2.1    28.086
   26668      Si       1     SIL   Si2Ls       1       2.1    28.086
   26669      Si       1     SIL   Si2Lt       1       2.1    28.086
   26670      Ob       1     SIL   O04hh       1     -1.05    15.999
   26671      Ob       1     SIL   O04hi       1     -1.05    15.999
   26672      Ob       1     SIL   O04hj       1     -1.05    15.999
   26673      Ob       1     SIL   O04hk       1     -1.05    15.999
   26674      Ob       1     SIL   O04hl       1     -1.05    15.999
   26675      Ob       1     SIL   O04hm       1     -1.05    15.999
   26676      Si       1     SIL   Si2Lu       1       2.1    28.086
   26677      Si       1     SIL   Si2Lv       1       2.1    28.086
   26678      Si       1     SIL   Si2Lw       1       2.1    28.086
   26679      Ob       1     SIL   O04hn       1     -1.05    15.999
   26680      Ob       1     SIL   O04ho       1     -1.05    15.999
   26681      Ob       1     SIL   O04hp       1     -1.05    15.999
   26682      Ob       1     SIL   O04hq       1     -1.05    15.999
   26683      Ob       1     SIL   O04hr       1     -1.05    15.999
   26684      Ob       1     SIL   O04hs       1     -1.05    15.999
   26685      Si       1     SIL   Si2Lx       1       2.1    28.086
   26686      Si       1     SIL   Si2Ly       1       2.1    28.086
   26687      Si       1     SIL   Si2Lz       1       2.1    28.086
   26688      Ob       1     SIL   O04ht       1     -1.05    15.999
   26689      Ob       1     SIL   O04hu       1     -1.05    15.999
   26690      Ob       1     SIL   O04hv       1     -1.05    15.999
   26691      Ob       1     SIL   O04hw       1     -1.05    15.999
   26692      Ob       1     SIL   O04hx       1     -1.05    15.999
   26693      Ob       1     SIL   O04hy       1     -1.05    15.999
   26694      Si       1     SIL   Si2M0       1       2.1    28.086
   26695      Si       1     SIL   Si2M1       1       2.1    28.086
   26696      Si       1     SIL   Si2M2       1       2.1    28.086
   26697      Ob       1     SIL   O04hz       1     -1.05    15.999
   26698      Ob       1     SIL   O04i0       1     -1.05    15.999
   26699      Ob       1     SIL   O04i1       1     -1.05    15.999
   26700      Ob       1     SIL   O04i2       1     -1.05    15.999
   26701      Ob       1     SIL   O04i3       1     -1.05    15.999
   26702      Ob       1     SIL   O04i4       1     -1.05    15.999
   26703      Si       1     SIL   Si2M3       1       2.1    28.086
   26704      Si       1     SIL   Si2M4       1       2.1    28.086
   26705      Si       1     SIL   Si2M5       1       2.1    28.086
   26706      Ob       1     SIL   O04i5       1     -1.05    15.999
   26707      Ob       1     SIL   O04i6       1     -1.05    15.999
   26708      Ob       1     SIL   O04i7       1     -1.05    15.999
   26709      Ob       1     SIL   O04i8       1     -1.05    15.999
   26710      Ob       1     SIL   O04i9       1     -1.05    15.999
   26711      Ob       1     SIL   O04iA       1     -1.05    15.999
   26712      Si       1     SIL   Si2M6       1       2.1    28.086
   26713      Si       1     SIL   Si2M7       1       2.1    28.086
   26714      Si       1     SIL   Si2M8       1       2.1    28.086
   26715      Ob       1     SIL   O04iB       1     -1.05    15.999
   26716      Ob       1     SIL   O04iC       1     -1.05    15.999
   26717      Ob       1     SIL   O04iD       1     -1.05    15.999
   26718      Ob       1     SIL   O04iE       1     -1.05    15.999
   26719      Ob       1     SIL   O04iF       1     -1.05    15.999
   26720      Ob       1     SIL   O04iG       1     -1.05    15.999
   26721      Si       1     SIL   Si2M9       1       2.1    28.086
   26722      Si       1     SIL   Si2MA       1       2.1    28.086
   26723      Si       1     SIL   Si2MB       1       2.1    28.086
   26724      Ob       1     SIL   O04iH       1     -1.05    15.999
   26725      Ob       1     SIL   O04iI       1     -1.05    15.999
   26726      Ob       1     SIL   O04iJ       1     -1.05    15.999
   26727      Ob       1     SIL   O04iK       1     -1.05    15.999
   26728      Ob       1     SIL   O04iL       1     -1.05    15.999
   26729      Ob       1     SIL   O04iM       1     -1.05    15.999
   26730      Si       1     SIL   Si2MC       1       2.1    28.086
   26731      Si       1     SIL   Si2MD       1       2.1    28.086
   26732      Si       1     SIL   Si2ME       1       2.1    28.086
   26733      Ob       1     SIL   O04iN       1     -1.05    15.999
   26734      Ob       1     SIL   O04iO       1     -1.05    15.999
   26735      Ob       1     SIL   O04iP       1     -1.05    15.999
   26736      Ob       1     SIL   O04iQ       1     -1.05    15.999
   26737      Ob       1     SIL   O04iR       1     -1.05    15.999
   26738      Ob       1     SIL   O04iS       1     -1.05    15.999
   26739      Si       1     SIL   Si2MF       1       2.1    28.086
   26740      Si       1     SIL   Si2MG       1       2.1    28.086
   26741      Si       1     SIL   Si2MH       1       2.1    28.086
   26742      Ob       1     SIL   O04iT       1     -1.05    15.999
   26743      Ob       1     SIL   O04iU       1     -1.05    15.999
   26744      Ob       1     SIL   O04iV       1     -1.05    15.999
   26745      Ob       1     SIL   O04iW       1     -1.05    15.999
   26746      Ob       1     SIL   O04iX       1     -1.05    15.999
   26747      Ob       1     SIL   O04iY       1     -1.05    15.999
   26748      Si       1     SIL   Si2MI       1       2.1    28.086
   26749      Si       1     SIL   Si2MJ       1       2.1    28.086
   26750      Si       1     SIL   Si2MK       1       2.1    28.086
   26751      Ob       1     SIL   O04iZ       1     -1.05    15.999
   26752      Ob       1     SIL   O04ia       1     -1.05    15.999
   26753      Ob       1     SIL   O04ib       1     -1.05    15.999
   26754      Ob       1     SIL   O04ic       1     -1.05    15.999
   26755      Ob       1     SIL   O04id       1     -1.05    15.999
   26756      Ob       1     SIL   O04ie       1     -1.05    15.999
   26757      Si       1     SIL   Si2ML       1       2.1    28.086
   26758      Si       1     SIL   Si2MM       1       2.1    28.086
   26759      Si       1     SIL   Si2MN       1       2.1    28.086
   26760      Ob       1     SIL   O04if       1     -1.05    15.999
   26761      Ob       1     SIL   O04ig       1     -1.05    15.999
   26762      Ob       1     SIL   O04ih       1     -1.05    15.999
   26763      Ob       1     SIL   O04ii       1     -1.05    15.999
   26764      Ob       1     SIL   O04ij       1     -1.05    15.999
   26765      Ob       1     SIL   O04ik       1     -1.05    15.999
   26766      Si       1     SIL   Si2MO       1       2.1    28.086
   26767      Si       1     SIL   Si2MP       1       2.1    28.086
   26768      Si       1     SIL   Si2MQ       1       2.1    28.086
   26769      Ob       1     SIL   O04il       1     -1.05    15.999
   26770      Ob       1     SIL   O04im       1     -1.05    15.999
   26771      Ob       1     SIL   O04in       1     -1.05    15.999
   26772      Ob       1     SIL   O04io       1     -1.05    15.999
   26773      Ob       1     SIL   O04ip       1     -1.05    15.999
   26774      Ob       1     SIL   O04iq       1     -1.05    15.999
   26775      Si       1     SIL   Si2MR       1       2.1    28.086
   26776      Si       1     SIL   Si2MS       1       2.1    28.086
   26777      Si       1     SIL   Si2MT       1       2.1    28.086
   26778      Ob       1     SIL   O04ir       1     -1.05    15.999
   26779      Ob       1     SIL   O04is       1     -1.05    15.999
   26780      Ob       1     SIL   O04it       1     -1.05    15.999
   26781      Ob       1     SIL   O04iu       1     -1.05    15.999
   26782      Ob       1     SIL   O04iv       1     -1.05    15.999
   26783      Ob       1     SIL   O04iw       1     -1.05    15.999
   26784      Si       1     SIL   Si2MU       1       2.1    28.086
   26785      Si       1     SIL   Si2MV       1       2.1    28.086
   26786      Si       1     SIL   Si2MW       1       2.1    28.086
   26787      Ob       1     SIL   O04ix       1     -1.05    15.999
   26788      Ob       1     SIL   O04iy       1     -1.05    15.999
   26789      Ob       1     SIL   O04iz       1     -1.05    15.999
   26790      Ob       1     SIL   O04j0       1     -1.05    15.999
   26791      Ob       1     SIL   O04j1       1     -1.05    15.999
   26792      Ob       1     SIL   O04j2       1     -1.05    15.999
   26793      Si       1     SIL   Si2MX       1       2.1    28.086
   26794      Si       1     SIL   Si2MY       1       2.1    28.086
   26795      Si       1     SIL   Si2MZ       1       2.1    28.086
   26796      Ob       1     SIL   O04j3       1     -1.05    15.999
   26797      Ob       1     SIL   O04j4       1     -1.05    15.999
   26798      Ob       1     SIL   O04j5       1     -1.05    15.999
   26799      Ob       1     SIL   O04j6       1     -1.05    15.999
   26800      Ob       1     SIL   O04j7       1     -1.05    15.999
   26801      Ob       1     SIL   O04j8       1     -1.05    15.999
   26802      Si       1     SIL   Si2Ma       1       2.1    28.086
   26803      Si       1     SIL   Si2Mb       1       2.1    28.086
   26804      Si       1     SIL   Si2Mc       1       2.1    28.086
   26805      Ob       1     SIL   O04j9       1     -1.05    15.999
   26806      Ob       1     SIL   O04jA       1     -1.05    15.999
   26807      Ob       1     SIL   O04jB       1     -1.05    15.999
   26808      Ob       1     SIL   O04jC       1     -1.05    15.999
   26809      Ob       1     SIL   O04jD       1     -1.05    15.999
   26810      Ob       1     SIL   O04jE       1     -1.05    15.999
   26811      Si       1     SIL   Si2Md       1       2.1    28.086
   26812      Si       1     SIL   Si2Me       1       2.1    28.086
   26813      Si       1     SIL   Si2Mf       1       2.1    28.086
   26814      Ob       1     SIL   O04jF       1     -1.05    15.999
   26815      Ob       1     SIL   O04jG       1     -1.05    15.999
   26816      Ob       1     SIL   O04jH       1     -1.05    15.999
   26817      Ob       1     SIL   O04jI       1     -1.05    15.999
   26818      Ob       1     SIL   O04jJ       1     -1.05    15.999
   26819      Ob       1     SIL   O04jK       1     -1.05    15.999
   26820      Si       1     SIL   Si2Mg       1       2.1    28.086
   26821      Si       1     SIL   Si2Mh       1       2.1    28.086
   26822      Si       1     SIL   Si2Mi       1       2.1    28.086
   26823      Ob       1     SIL   O04jL       1     -1.05    15.999
   26824      Ob       1     SIL   O04jM       1     -1.05    15.999
   26825      Ob       1     SIL   O04jN       1     -1.05    15.999
   26826      Ob       1     SIL   O04jO       1     -1.05    15.999
   26827      Ob       1     SIL   O04jP       1     -1.05    15.999
   26828      Ob       1     SIL   O04jQ       1     -1.05    15.999
   26829      Si       1     SIL   Si2Mj       1       2.1    28.086
   26830      Si       1     SIL   Si2Mk       1       2.1    28.086
   26831      Si       1     SIL   Si2Ml       1       2.1    28.086
   26832      Ob       1     SIL   O04jR       1     -1.05    15.999
   26833      Ob       1     SIL   O04jS       1     -1.05    15.999
   26834      Ob       1     SIL   O04jT       1     -1.05    15.999
   26835      Ob       1     SIL   O04jU       1     -1.05    15.999
   26836      Ob       1     SIL   O04jV       1     -1.05    15.999
   26837      Ob       1     SIL   O04jW       1     -1.05    15.999
   26838      Si       1     SIL   Si2Mm       1       2.1    28.086
   26839      Si       1     SIL   Si2Mn       1       2.1    28.086
   26840      Si       1     SIL   Si2Mo       1       2.1    28.086
   26841      Ob       1     SIL   O04jX       1     -1.05    15.999
   26842      Ob       1     SIL   O04jY       1     -1.05    15.999
   26843      Ob       1     SIL   O04jZ       1     -1.05    15.999
   26844      Ob       1     SIL   O04ja       1     -1.05    15.999
   26845      Ob       1     SIL   O04jb       1     -1.05    15.999
   26846      Ob       1     SIL   O04jc       1     -1.05    15.999
   26847      Si       1     SIL   Si2Mp       1       2.1    28.086
   26848      Si       1     SIL   Si2Mq       1       2.1    28.086
   26849      Si       1     SIL   Si2Mr       1       2.1    28.086
   26850      Ob       1     SIL   O04jd       1     -1.05    15.999
   26851      Ob       1     SIL   O04je       1     -1.05    15.999
   26852      Ob       1     SIL   O04jf       1     -1.05    15.999
   26853      Ob       1     SIL   O04jg       1     -1.05    15.999
   26854      Ob       1     SIL   O04jh       1     -1.05    15.999
   26855      Ob       1     SIL   O04ji       1     -1.05    15.999
   26856      Si       1     SIL   Si2Ms       1       2.1    28.086
   26857      Si       1     SIL   Si2Mt       1       2.1    28.086
   26858      Si       1     SIL   Si2Mu       1       2.1    28.086
   26859      Ob       1     SIL   O04jj       1     -1.05    15.999
   26860       O       1     SIL   O04jk       1    -0.525    15.999
   26861       O       1     SIL   O04jl       1    -0.525    15.999
   26862      Ob       1     SIL   O04jm       1     -1.05    15.999
   26863      Ob       1     SIL   O04jn       1     -1.05    15.999
   26864      Ob       1     SIL   O04jo       1     -1.05    15.999
   26865      Si       1     SIL   Si2Mv       1       2.1    28.086
   26866      Si       1     SIL   Si2Mw       1       2.1    28.086
   26867      Si       1     SIL   Si2Mx       1       2.1    28.086
   26868      Ob       1     SIL   O04jp       1     -1.05    15.999
   26869      Ob       1     SIL   O04jq       1     -1.05    15.999
   26870      Ob       1     SIL   O04jr       1     -1.05    15.999
   26871      Ob       1     SIL   O04js       1     -1.05    15.999
   26872      Ob       1     SIL   O04jt       1     -1.05    15.999
   26873      Ob       1     SIL   O04ju       1     -1.05    15.999
   26874      Si       1     SIL   Si2My       1       2.1    28.086
   26875      Si       1     SIL   Si2Mz       1       2.1    28.086
   26876      Si       1     SIL   Si2N0       1       2.1    28.086
   26877      Ob       1     SIL   O04jv       1     -1.05    15.999
   26878      Ob       1     SIL   O04jw       1     -1.05    15.999
   26879      Ob       1     SIL   O04jx       1     -1.05    15.999
   26880      Ob       1     SIL   O04jy       1     -1.05    15.999
   26881      Ob       1     SIL   O04jz       1     -1.05    15.999
   26882      Ob       1     SIL   O04k0       1     -1.05    15.999
   26883      Si       1     SIL   Si2N1       1       2.1    28.086
   26884      Si       1     SIL   Si2N2       1       2.1    28.086
   26885      Si       1     SIL   Si2N3       1       2.1    28.086
   26886      Ob       1     SIL   O04k1       1     -1.05    15.999
   26887      Ob       1     SIL   O04k2       1     -1.05    15.999
   26888      Ob       1     SIL   O04k3       1     -1.05    15.999
   26889      Ob       1     SIL   O04k4       1     -1.05    15.999
   26890      Ob       1     SIL   O04k5       1     -1.05    15.999
   26891      Ob       1     SIL   O04k6       1     -1.05    15.999
   26892      Si       1     SIL   Si2N4       1       2.1    28.086
   26893      Si       1     SIL   Si2N5       1       2.1    28.086
   26894      Si       1     SIL   Si2N6       1       2.1    28.086
   26895      Ob       1     SIL   O04k7       1     -1.05    15.999
   26896      Ob       1     SIL   O04k8       1     -1.05    15.999
   26897      Ob       1     SIL   O04k9       1     -1.05    15.999
   26898      Ob       1     SIL   O04kA       1     -1.05    15.999
   26899      Ob       1     SIL   O04kB       1     -1.05    15.999
   26900      Ob       1     SIL   O04kC       1     -1.05    15.999
   26901      Si       1     SIL   Si2N7       1       2.1    28.086
   26902      Si       1     SIL   Si2N8       1       2.1    28.086
   26903      Si       1     SIL   Si2N9       1       2.1    28.086
   26904      Ob       1     SIL   O04kD       1     -1.05    15.999
   26905      Ob       1     SIL   O04kE       1     -1.05    15.999
   26906      Ob       1     SIL   O04kF       1     -1.05    15.999
   26907      Ob       1     SIL   O04kG       1     -1.05    15.999
   26908      Ob       1     SIL   O04kH       1     -1.05    15.999
   26909      Ob       1     SIL   O04kI       1     -1.05    15.999
   26910      Si       1     SIL   Si2NA       1       2.1    28.086
   26911      Si       1     SIL   Si2NB       1       2.1    28.086
   26912      Si       1     SIL   Si2NC       1       2.1    28.086
   26913      Ob       1     SIL   O04kJ       1     -1.05    15.999
   26914      Ob       1     SIL   O04kK       1     -1.05    15.999
   26915      Ob       1     SIL   O04kL       1     -1.05    15.999
   26916      Ob       1     SIL   O04kM       1     -1.05    15.999
   26917      Ob       1     SIL   O04kN       1     -1.05    15.999
   26918      Ob       1     SIL   O04kO       1     -1.05    15.999
   26919      Si       1     SIL   Si2ND       1       2.1    28.086
   26920      Si       1     SIL   Si2NE       1       2.1    28.086
   26921      Si       1     SIL   Si2NF       1       2.1    28.086
   26922      Ob       1     SIL   O04kP       1     -1.05    15.999
   26923      Ob       1     SIL   O04kQ       1     -1.05    15.999
   26924      Ob       1     SIL   O04kR       1     -1.05    15.999
   26925      Ob       1     SIL   O04kS       1     -1.05    15.999
   26926      Ob       1     SIL   O04kT       1     -1.05    15.999
   26927      Ob       1     SIL   O04kU       1     -1.05    15.999
   26928      Si       1     SIL   Si2NG       1       2.1    28.086
   26929      Si       1     SIL   Si2NH       1       2.1    28.086
   26930      Si       1     SIL   Si2NI       1       2.1    28.086
   26931      Ob       1     SIL   O04kV       1     -1.05    15.999
   26932      Ob       1     SIL   O04kW       1     -1.05    15.999
   26933      Ob       1     SIL   O04kX       1     -1.05    15.999
   26934      Ob       1     SIL   O04kY       1     -1.05    15.999
   26935      Ob       1     SIL   O04kZ       1     -1.05    15.999
   26936      Ob       1     SIL   O04ka       1     -1.05    15.999
   26937      Si       1     SIL   Si2NJ       1       2.1    28.086
   26938      Si       1     SIL   Si2NK       1       2.1    28.086
   26939      Si       1     SIL   Si2NL       1       2.1    28.086
   26940      Ob       1     SIL   O04kb       1     -1.05    15.999
   26941      Ob       1     SIL   O04kc       1     -1.05    15.999
   26942      Ob       1     SIL   O04kd       1     -1.05    15.999
   26943      Ob       1     SIL   O04ke       1     -1.05    15.999
   26944      Ob       1     SIL   O04kf       1     -1.05    15.999
   26945      Ob       1     SIL   O04kg       1     -1.05    15.999
   26946      Si       1     SIL   Si2NM       1       2.1    28.086
   26947      Si       1     SIL   Si2NN       1       2.1    28.086
   26948      Si       1     SIL   Si2NO       1       2.1    28.086
   26949      Ob       1     SIL   O04kh       1     -1.05    15.999
   26950      Ob       1     SIL   O04ki       1     -1.05    15.999
   26951      Ob       1     SIL   O04kj       1     -1.05    15.999
   26952      Ob       1     SIL   O04kk       1     -1.05    15.999
   26953      Ob       1     SIL   O04kl       1     -1.05    15.999
   26954      Ob       1     SIL   O04km       1     -1.05    15.999
   26955      Si       1     SIL   Si2NP       1       2.1    28.086
   26956      Si       1     SIL   Si2NQ       1       2.1    28.086
   26957      Si       1     SIL   Si2NR       1       2.1    28.086
   26958      Ob       1     SIL   O04kn       1     -1.05    15.999
   26959      Ob       1     SIL   O04ko       1     -1.05    15.999
   26960      Ob       1     SIL   O04kp       1     -1.05    15.999
   26961      Ob       1     SIL   O04kq       1     -1.05    15.999
   26962      Ob       1     SIL   O04kr       1     -1.05    15.999
   26963      Ob       1     SIL   O04ks       1     -1.05    15.999
   26964      Si       1     SIL   Si2NS       1       2.1    28.086
   26965      Si       1     SIL   Si2NT       1       2.1    28.086
   26966      Si       1     SIL   Si2NU       1       2.1    28.086
   26967      Ob       1     SIL   O04kt       1     -1.05    15.999
   26968      Ob       1     SIL   O04ku       1     -1.05    15.999
   26969      Ob       1     SIL   O04kv       1     -1.05    15.999
   26970      Ob       1     SIL   O04kw       1     -1.05    15.999
   26971      Ob       1     SIL   O04kx       1     -1.05    15.999
   26972      Ob       1     SIL   O04ky       1     -1.05    15.999
   26973      Si       1     SIL   Si2NV       1       2.1    28.086
   26974      Si       1     SIL   Si2NW       1       2.1    28.086
   26975      Si       1     SIL   Si2NX       1       2.1    28.086
   26976      Ob       1     SIL   O04kz       1     -1.05    15.999
   26977      Ob       1     SIL   O04l0       1     -1.05    15.999
   26978      Ob       1     SIL   O04l1       1     -1.05    15.999
   26979      Ob       1     SIL   O04l2       1     -1.05    15.999
   26980      Ob       1     SIL   O04l3       1     -1.05    15.999
   26981      Ob       1     SIL   O04l4       1     -1.05    15.999
   26982      Si       1     SIL   Si2NY       1       2.1    28.086
   26983      Si       1     SIL   Si2NZ       1       2.1    28.086
   26984      Si       1     SIL   Si2Na       1       2.1    28.086
   26985      Ob       1     SIL   O04l5       1     -1.05    15.999
   26986      Ob       1     SIL   O04l6       1     -1.05    15.999
   26987      Ob       1     SIL   O04l7       1     -1.05    15.999
   26988      Ob       1     SIL   O04l8       1     -1.05    15.999
   26989      Ob       1     SIL   O04l9       1     -1.05    15.999
   26990      Ob       1     SIL   O04lA       1     -1.05    15.999
   26991      Si       1     SIL   Si2Nb       1       2.1    28.086
   26992      Si       1     SIL   Si2Nc       1       2.1    28.086
   26993      Si       1     SIL   Si2Nd       1       2.1    28.086
   26994      Ob       1     SIL   O04lB       1     -1.05    15.999
   26995      Ob       1     SIL   O04lC       1     -1.05    15.999
   26996      Ob       1     SIL   O04lD       1     -1.05    15.999
   26997      Ob       1     SIL   O04lE       1     -1.05    15.999
   26998      Ob       1     SIL   O04lF       1     -1.05    15.999
   26999      Ob       1     SIL   O04lG       1     -1.05    15.999
   27000      Si       1     SIL   Si2Ne       1       2.1    28.086
   27001      Si       1     SIL   Si2Nf       1       2.1    28.086
   27002      Si       1     SIL   Si2Ng       1       2.1    28.086
   27003      Ob       1     SIL   O04lH       1     -1.05    15.999
   27004      Ob       1     SIL   O04lI       1     -1.05    15.999
   27005      Ob       1     SIL   O04lJ       1     -1.05    15.999
   27006      Ob       1     SIL   O04lK       1     -1.05    15.999
   27007      Ob       1     SIL   O04lL       1     -1.05    15.999
   27008      Ob       1     SIL   O04lM       1     -1.05    15.999
   27009      Si       1     SIL   Si2Nh       1       2.1    28.086
   27010      Si       1     SIL   Si2Ni       1       2.1    28.086
   27011      Si       1     SIL   Si2Nj       1       2.1    28.086
   27012      Ob       1     SIL   O04lN       1     -1.05    15.999
   27013      Ob       1     SIL   O04lO       1     -1.05    15.999
   27014      Ob       1     SIL   O04lP       1     -1.05    15.999
   27015      Ob       1     SIL   O04lQ       1     -1.05    15.999
   27016      Ob       1     SIL   O04lR       1     -1.05    15.999
   27017      Ob       1     SIL   O04lS       1     -1.05    15.999
   27018      Si       1     SIL   Si2Nk       1       2.1    28.086
   27019      Si       1     SIL   Si2Nl       1       2.1    28.086
   27020      Si       1     SIL   Si2Nm       1       2.1    28.086
   27021      Ob       1     SIL   O04lT       1     -1.05    15.999
   27022      Ob       1     SIL   O04lU       1     -1.05    15.999
   27023      Ob       1     SIL   O04lV       1     -1.05    15.999
   27024      Ob       1     SIL   O04lW       1     -1.05    15.999
   27025      Ob       1     SIL   O04lX       1     -1.05    15.999
   27026      Ob       1     SIL   O04lY       1     -1.05    15.999
   27027      Si       1     SIL   Si2Nn       1       2.1    28.086
   27028      Si       1     SIL   Si2No       1       2.1    28.086
   27029      Si       1     SIL   Si2Np       1       2.1    28.086
   27030      Ob       1     SIL   O04lZ       1     -1.05    15.999
   27031      Ob       1     SIL   O04la       1     -1.05    15.999
   27032      Ob       1     SIL   O04lb       1     -1.05    15.999
   27033      Ob       1     SIL   O04lc       1     -1.05    15.999
   27034      Ob       1     SIL   O04ld       1     -1.05    15.999
   27035      Ob       1     SIL   O04le       1     -1.05    15.999
   27036      Si       1     SIL   Si2Nq       1       2.1    28.086
   27037      Si       1     SIL   Si2Nr       1       2.1    28.086
   27038      Si       1     SIL   Si2Ns       1       2.1    28.086
   27039      Ob       1     SIL   O04lf       1     -1.05    15.999
   27040      Ob       1     SIL   O04lg       1     -1.05    15.999
   27041      Ob       1     SIL   O04lh       1     -1.05    15.999
   27042      Ob       1     SIL   O04li       1     -1.05    15.999
   27043      Ob       1     SIL   O04lj       1     -1.05    15.999
   27044      Ob       1     SIL   O04lk       1     -1.05    15.999
   27045      Si       1     SIL   Si2Nt       1       2.1    28.086
   27046      Si       1     SIL   Si2Nu       1       2.1    28.086
   27047      Si       1     SIL   Si2Nv       1       2.1    28.086
   27048      Ob       1     SIL   O04ll       1     -1.05    15.999
   27049      Ob       1     SIL   O04lm       1     -1.05    15.999
   27050      Ob       1     SIL   O04ln       1     -1.05    15.999
   27051      Ob       1     SIL   O04lo       1     -1.05    15.999
   27052      Ob       1     SIL   O04lp       1     -1.05    15.999
   27053      Ob       1     SIL   O04lq       1     -1.05    15.999
   27054      Si       1     SIL   Si2Nw       1       2.1    28.086
   27055      Si       1     SIL   Si2Nx       1       2.1    28.086
   27056      Si       1     SIL   Si2Ny       1       2.1    28.086
   27057      Ob       1     SIL   O04lr       1     -1.05    15.999
   27058      Ob       1     SIL   O04ls       1     -1.05    15.999
   27059      Ob       1     SIL   O04lt       1     -1.05    15.999
   27060      Ob       1     SIL   O04lu       1     -1.05    15.999
   27061      Ob       1     SIL   O04lv       1     -1.05    15.999
   27062      Ob       1     SIL   O04lw       1     -1.05    15.999
   27063      Si       1     SIL   Si2Nz       1       2.1    28.086
   27064      Si       1     SIL   Si2O0       1       2.1    28.086
   27065      Si       1     SIL   Si2O1       1       2.1    28.086
   27066      Ob       1     SIL   O04lx       1     -1.05    15.999
   27067       O       1     SIL   O04ly       1    -0.525    15.999
   27068       O       1     SIL   O04lz       1    -0.525    15.999
   27069      Ob       1     SIL   O04m0       1     -1.05    15.999
   27070      Ob       1     SIL   O04m1       1     -1.05    15.999
   27071      Ob       1     SIL   O04m2       1     -1.05    15.999
   27072      Si       1     SIL   Si2O2       1       2.1    28.086
   27073      Si       1     SIL   Si2O3       1       2.1    28.086
   27074      Si       1     SIL   Si2O4       1       2.1    28.086
   27075      Ob       1     SIL   O04m3       1     -1.05    15.999
   27076      Ob       1     SIL   O04m4       1     -1.05    15.999
   27077      Ob       1     SIL   O04m5       1     -1.05    15.999
   27078      Ob       1     SIL   O04m6       1     -1.05    15.999
   27079      Ob       1     SIL   O04m7       1     -1.05    15.999
   27080      Ob       1     SIL   O04m8       1     -1.05    15.999
   27081      Si       1     SIL   Si2O5       1       2.1    28.086
   27082      Si       1     SIL   Si2O6       1       2.1    28.086
   27083      Si       1     SIL   Si2O7       1       2.1    28.086
   27084      Ob       1     SIL   O04m9       1     -1.05    15.999
   27085      Ob       1     SIL   O04mA       1     -1.05    15.999
   27086      Ob       1     SIL   O04mB       1     -1.05    15.999
   27087      Ob       1     SIL   O04mC       1     -1.05    15.999
   27088      Ob       1     SIL   O04mD       1     -1.05    15.999
   27089      Ob       1     SIL   O04mE       1     -1.05    15.999
   27090      Si       1     SIL   Si2O8       1       2.1    28.086
   27091      Si       1     SIL   Si2O9       1       2.1    28.086
   27092      Si       1     SIL   Si2OA       1       2.1    28.086
   27093      Ob       1     SIL   O04mF       1     -1.05    15.999
   27094      Ob       1     SIL   O04mG       1     -1.05    15.999
   27095      Ob       1     SIL   O04mH       1     -1.05    15.999
   27096      Ob       1     SIL   O04mI       1     -1.05    15.999
   27097      Ob       1     SIL   O04mJ       1     -1.05    15.999
   27098      Ob       1     SIL   O04mK       1     -1.05    15.999
   27099      Si       1     SIL   Si2OB       1       2.1    28.086
   27100      Si       1     SIL   Si2OC       1       2.1    28.086
   27101      Si       1     SIL   Si2OD       1       2.1    28.086
   27102      Ob       1     SIL   O04mL       1     -1.05    15.999
   27103      Ob       1     SIL   O04mM       1     -1.05    15.999
   27104      Ob       1     SIL   O04mN       1     -1.05    15.999
   27105      Ob       1     SIL   O04mO       1     -1.05    15.999
   27106      Ob       1     SIL   O04mP       1     -1.05    15.999
   27107      Ob       1     SIL   O04mQ       1     -1.05    15.999
   27108      Si       1     SIL   Si2OE       1       2.1    28.086
   27109      Si       1     SIL   Si2OF       1       2.1    28.086
   27110      Si       1     SIL   Si2OG       1       2.1    28.086
   27111      Ob       1     SIL   O04mR       1     -1.05    15.999
   27112      Ob       1     SIL   O04mS       1     -1.05    15.999
   27113      Ob       1     SIL   O04mT       1     -1.05    15.999
   27114      Ob       1     SIL   O04mU       1     -1.05    15.999
   27115      Ob       1     SIL   O04mV       1     -1.05    15.999
   27116      Ob       1     SIL   O04mW       1     -1.05    15.999
   27117      Si       1     SIL   Si2OH       1       2.1    28.086
   27118      Si       1     SIL   Si2OI       1       2.1    28.086
   27119      Si       1     SIL   Si2OJ       1       2.1    28.086
   27120      Ob       1     SIL   O04mX       1     -1.05    15.999
   27121      Ob       1     SIL   O04mY       1     -1.05    15.999
   27122      Ob       1     SIL   O04mZ       1     -1.05    15.999
   27123      Ob       1     SIL   O04ma       1     -1.05    15.999
   27124      Ob       1     SIL   O04mb       1     -1.05    15.999
   27125      Ob       1     SIL   O04mc       1     -1.05    15.999
   27126      Si       1     SIL   Si2OK       1       2.1    28.086
   27127      Si       1     SIL   Si2OL       1       2.1    28.086
   27128      Si       1     SIL   Si2OM       1       2.1    28.086
   27129      Ob       1     SIL   O04md       1     -1.05    15.999
   27130      Ob       1     SIL   O04me       1     -1.05    15.999
   27131      Ob       1     SIL   O04mf       1     -1.05    15.999
   27132      Ob       1     SIL   O04mg       1     -1.05    15.999
   27133      Ob       1     SIL   O04mh       1     -1.05    15.999
   27134      Ob       1     SIL   O04mi       1     -1.05    15.999
   27135      Si       1     SIL   Si2ON       1       2.1    28.086
   27136      Si       1     SIL   Si2OO       1       2.1    28.086
   27137      Si       1     SIL   Si2OP       1       2.1    28.086
   27138      Ob       1     SIL   O04mj       1     -1.05    15.999
   27139      Ob       1     SIL   O04mk       1     -1.05    15.999
   27140      Ob       1     SIL   O04ml       1     -1.05    15.999
   27141      Ob       1     SIL   O04mm       1     -1.05    15.999
   27142      Ob       1     SIL   O04mn       1     -1.05    15.999
   27143      Ob       1     SIL   O04mo       1     -1.05    15.999
   27144      Si       1     SIL   Si2OQ       1       2.1    28.086
   27145      Si       1     SIL   Si2OR       1       2.1    28.086
   27146      Si       1     SIL   Si2OS       1       2.1    28.086
   27147      Ob       1     SIL   O04mp       1     -1.05    15.999
   27148      Ob       1     SIL   O04mq       1     -1.05    15.999
   27149      Ob       1     SIL   O04mr       1     -1.05    15.999
   27150      Ob       1     SIL   O04ms       1     -1.05    15.999
   27151      Ob       1     SIL   O04mt       1     -1.05    15.999
   27152      Ob       1     SIL   O04mu       1     -1.05    15.999
   27153      Si       1     SIL   Si2OT       1       2.1    28.086
   27154      Si       1     SIL   Si2OU       1       2.1    28.086
   27155      Si       1     SIL   Si2OV       1       2.1    28.086
   27156      Ob       1     SIL   O04mv       1     -1.05    15.999
   27157      Ob       1     SIL   O04mw       1     -1.05    15.999
   27158      Ob       1     SIL   O04mx       1     -1.05    15.999
   27159      Ob       1     SIL   O04my       1     -1.05    15.999
   27160      Ob       1     SIL   O04mz       1     -1.05    15.999
   27161      Ob       1     SIL   O04n0       1     -1.05    15.999
   27162      Si       1     SIL   Si2OW       1       2.1    28.086
   27163      Si       1     SIL   Si2OX       1       2.1    28.086
   27164      Si       1     SIL   Si2OY       1       2.1    28.086
   27165      Ob       1     SIL   O04n1       1     -1.05    15.999
   27166      Ob       1     SIL   O04n2       1     -1.05    15.999
   27167      Ob       1     SIL   O04n3       1     -1.05    15.999
   27168      Ob       1     SIL   O04n4       1     -1.05    15.999
   27169      Ob       1     SIL   O04n5       1     -1.05    15.999
   27170      Ob       1     SIL   O04n6       1     -1.05    15.999
   27171      Si       1     SIL   Si2OZ       1       2.1    28.086
   27172      Si       1     SIL   Si2Oa       1       2.1    28.086
   27173      Si       1     SIL   Si2Ob       1       2.1    28.086
   27174      Ob       1     SIL   O04n7       1     -1.05    15.999
   27175      Ob       1     SIL   O04n8       1     -1.05    15.999
   27176      Ob       1     SIL   O04n9       1     -1.05    15.999
   27177      Ob       1     SIL   O04nA       1     -1.05    15.999
   27178      Ob       1     SIL   O04nB       1     -1.05    15.999
   27179      Ob       1     SIL   O04nC       1     -1.05    15.999
   27180      Si       1     SIL   Si2Oc       1       2.1    28.086
   27181      Si       1     SIL   Si2Od       1       2.1    28.086
   27182      Si       1     SIL   Si2Oe       1       2.1    28.086
   27183      Ob       1     SIL   O04nD       1     -1.05    15.999
   27184      Ob       1     SIL   O04nE       1     -1.05    15.999
   27185      Ob       1     SIL   O04nF       1     -1.05    15.999
   27186      Ob       1     SIL   O04nG       1     -1.05    15.999
   27187      Ob       1     SIL   O04nH       1     -1.05    15.999
   27188      Ob       1     SIL   O04nI       1     -1.05    15.999
   27189      Si       1     SIL   Si2Of       1       2.1    28.086
   27190      Si       1     SIL   Si2Og       1       2.1    28.086
   27191      Si       1     SIL   Si2Oh       1       2.1    28.086
   27192      Ob       1     SIL   O04nJ       1     -1.05    15.999
   27193      Ob       1     SIL   O04nK       1     -1.05    15.999
   27194      Ob       1     SIL   O04nL       1     -1.05    15.999
   27195      Ob       1     SIL   O04nM       1     -1.05    15.999
   27196      Ob       1     SIL   O04nN       1     -1.05    15.999
   27197      Ob       1     SIL   O04nO       1     -1.05    15.999
   27198      Si       1     SIL   Si2Oi       1       2.1    28.086
   27199      Si       1     SIL   Si2Oj       1       2.1    28.086
   27200      Si       1     SIL   Si2Ok       1       2.1    28.086
   27201      Ob       1     SIL   O04nP       1     -1.05    15.999
   27202      Ob       1     SIL   O04nQ       1     -1.05    15.999
   27203      Ob       1     SIL   O04nR       1     -1.05    15.999
   27204      Ob       1     SIL   O04nS       1     -1.05    15.999
   27205      Ob       1     SIL   O04nT       1     -1.05    15.999
   27206      Ob       1     SIL   O04nU       1     -1.05    15.999
   27207      Si       1     SIL   Si2Ol       1       2.1    28.086
   27208      Si       1     SIL   Si2Om       1       2.1    28.086
   27209      Si       1     SIL   Si2On       1       2.1    28.086
   27210      Ob       1     SIL   O04nV       1     -1.05    15.999
   27211      Ob       1     SIL   O04nW       1     -1.05    15.999
   27212      Ob       1     SIL   O04nX       1     -1.05    15.999
   27213      Ob       1     SIL   O04nY       1     -1.05    15.999
   27214      Ob       1     SIL   O04nZ       1     -1.05    15.999
   27215      Ob       1     SIL   O04na       1     -1.05    15.999
   27216      Si       1     SIL   Si2Oo       1       2.1    28.086
   27217      Si       1     SIL   Si2Op       1       2.1    28.086
   27218      Si       1     SIL   Si2Oq       1       2.1    28.086
   27219      Ob       1     SIL   O04nb       1     -1.05    15.999
   27220      Ob       1     SIL   O04nc       1     -1.05    15.999
   27221      Ob       1     SIL   O04nd       1     -1.05    15.999
   27222      Ob       1     SIL   O04ne       1     -1.05    15.999
   27223      Ob       1     SIL   O04nf       1     -1.05    15.999
   27224      Ob       1     SIL   O04ng       1     -1.05    15.999
   27225      Si       1     SIL   Si2Or       1       2.1    28.086
   27226      Si       1     SIL   Si2Os       1       2.1    28.086
   27227      Si       1     SIL   Si2Ot       1       2.1    28.086
   27228      Ob       1     SIL   O04nh       1     -1.05    15.999
   27229      Ob       1     SIL   O04ni       1     -1.05    15.999
   27230      Ob       1     SIL   O04nj       1     -1.05    15.999
   27231      Ob       1     SIL   O04nk       1     -1.05    15.999
   27232      Ob       1     SIL   O04nl       1     -1.05    15.999
   27233      Ob       1     SIL   O04nm       1     -1.05    15.999
   27234      Si       1     SIL   Si2Ou       1       2.1    28.086
   27235      Si       1     SIL   Si2Ov       1       2.1    28.086
   27236      Si       1     SIL   Si2Ow       1       2.1    28.086
   27237      Ob       1     SIL   O04nn       1     -1.05    15.999
   27238      Ob       1     SIL   O04no       1     -1.05    15.999
   27239      Ob       1     SIL   O04np       1     -1.05    15.999
   27240      Ob       1     SIL   O04nq       1     -1.05    15.999
   27241      Ob       1     SIL   O04nr       1     -1.05    15.999
   27242      Ob       1     SIL   O04ns       1     -1.05    15.999
   27243      Si       1     SIL   Si2Ox       1       2.1    28.086
   27244      Si       1     SIL   Si2Oy       1       2.1    28.086
   27245      Si       1     SIL   Si2Oz       1       2.1    28.086
   27246      Ob       1     SIL   O04nt       1     -1.05    15.999
   27247      Ob       1     SIL   O04nu       1     -1.05    15.999
   27248      Ob       1     SIL   O04nv       1     -1.05    15.999
   27249      Ob       1     SIL   O04nw       1     -1.05    15.999
   27250      Ob       1     SIL   O04nx       1     -1.05    15.999
   27251      Ob       1     SIL   O04ny       1     -1.05    15.999
   27252      Si       1     SIL   Si2P0       1       2.1    28.086
   27253      Si       1     SIL   Si2P1       1       2.1    28.086
   27254      Si       1     SIL   Si2P2       1       2.1    28.086
   27255      Ob       1     SIL   O04nz       1     -1.05    15.999
   27256      Ob       1     SIL   O04o0       1     -1.05    15.999
   27257      Ob       1     SIL   O04o1       1     -1.05    15.999
   27258      Ob       1     SIL   O04o2       1     -1.05    15.999
   27259      Ob       1     SIL   O04o3       1     -1.05    15.999
   27260      Ob       1     SIL   O04o4       1     -1.05    15.999
   27261      Si       1     SIL   Si2P3       1       2.1    28.086
   27262      Si       1     SIL   Si2P4       1       2.1    28.086
   27263      Si       1     SIL   Si2P5       1       2.1    28.086
   27264      Ob       1     SIL   O04o5       1     -1.05    15.999
   27265      Ob       1     SIL   O04o6       1     -1.05    15.999
   27266      Ob       1     SIL   O04o7       1     -1.05    15.999
   27267      Ob       1     SIL   O04o8       1     -1.05    15.999
   27268      Ob       1     SIL   O04o9       1     -1.05    15.999
   27269      Ob       1     SIL   O04oA       1     -1.05    15.999
   27270      Si       1     SIL   Si2P6       1       2.1    28.086
   27271      Si       1     SIL   Si2P7       1       2.1    28.086
   27272      Si       1     SIL   Si2P8       1       2.1    28.086
   27273      Ob       1     SIL   O04oB       1     -1.05    15.999
   27274       O       1     SIL   O04oC       1    -0.525    15.999
   27275       O       1     SIL   O04oD       1    -0.525    15.999
   27276      Ob       1     SIL   O04oE       1     -1.05    15.999
   27277      Ob       1     SIL   O04oF       1     -1.05    15.999
   27278      Ob       1     SIL   O04oG       1     -1.05    15.999
   27279      Si       1     SIL   Si2P9       1       2.1    28.086
   27280      Si       1     SIL   Si2PA       1       2.1    28.086
   27281      Si       1     SIL   Si2PB       1       2.1    28.086
   27282      Ob       1     SIL   O04oH       1     -1.05    15.999
   27283      Ob       1     SIL   O04oI       1     -1.05    15.999
   27284      Ob       1     SIL   O04oJ       1     -1.05    15.999
   27285      Ob       1     SIL   O04oK       1     -1.05    15.999
   27286      Ob       1     SIL   O04oL       1     -1.05    15.999
   27287      Ob       1     SIL   O04oM       1     -1.05    15.999
   27288      Si       1     SIL   Si2PC       1       2.1    28.086
   27289      Si       1     SIL   Si2PD       1       2.1    28.086
   27290      Si       1     SIL   Si2PE       1       2.1    28.086
   27291      Ob       1     SIL   O04oN       1     -1.05    15.999
   27292      Ob       1     SIL   O04oO       1     -1.05    15.999
   27293      Ob       1     SIL   O04oP       1     -1.05    15.999
   27294      Ob       1     SIL   O04oQ       1     -1.05    15.999
   27295      Ob       1     SIL   O04oR       1     -1.05    15.999
   27296      Ob       1     SIL   O04oS       1     -1.05    15.999
   27297      Si       1     SIL   Si2PF       1       2.1    28.086
   27298      Si       1     SIL   Si2PG       1       2.1    28.086
   27299      Si       1     SIL   Si2PH       1       2.1    28.086
   27300      Ob       1     SIL   O04oT       1     -1.05    15.999
   27301      Ob       1     SIL   O04oU       1     -1.05    15.999
   27302      Ob       1     SIL   O04oV       1     -1.05    15.999
   27303      Ob       1     SIL   O04oW       1     -1.05    15.999
   27304      Ob       1     SIL   O04oX       1     -1.05    15.999
   27305      Ob       1     SIL   O04oY       1     -1.05    15.999
   27306      Si       1     SIL   Si2PI       1       2.1    28.086
   27307      Si       1     SIL   Si2PJ       1       2.1    28.086
   27308      Si       1     SIL   Si2PK       1       2.1    28.086
   27309      Ob       1     SIL   O04oZ       1     -1.05    15.999
   27310      Ob       1     SIL   O04oa       1     -1.05    15.999
   27311      Ob       1     SIL   O04ob       1     -1.05    15.999
   27312      Ob       1     SIL   O04oc       1     -1.05    15.999
   27313      Ob       1     SIL   O04od       1     -1.05    15.999
   27314      Ob       1     SIL   O04oe       1     -1.05    15.999
   27315      Si       1     SIL   Si2PL       1       2.1    28.086
   27316      Si       1     SIL   Si2PM       1       2.1    28.086
   27317      Si       1     SIL   Si2PN       1       2.1    28.086
   27318      Ob       1     SIL   O04of       1     -1.05    15.999
   27319      Ob       1     SIL   O04og       1     -1.05    15.999
   27320      Ob       1     SIL   O04oh       1     -1.05    15.999
   27321      Ob       1     SIL   O04oi       1     -1.05    15.999
   27322      Ob       1     SIL   O04oj       1     -1.05    15.999
   27323      Ob       1     SIL   O04ok       1     -1.05    15.999
   27324      Si       1     SIL   Si2PO       1       2.1    28.086
   27325      Si       1     SIL   Si2PP       1       2.1    28.086
   27326      Si       1     SIL   Si2PQ       1       2.1    28.086
   27327      Ob       1     SIL   O04ol       1     -1.05    15.999
   27328      Ob       1     SIL   O04om       1     -1.05    15.999
   27329      Ob       1     SIL   O04on       1     -1.05    15.999
   27330      Ob       1     SIL   O04oo       1     -1.05    15.999
   27331      Ob       1     SIL   O04op       1     -1.05    15.999
   27332      Ob       1     SIL   O04oq       1     -1.05    15.999
   27333      Si       1     SIL   Si2PR       1       2.1    28.086
   27334      Si       1     SIL   Si2PS       1       2.1    28.086
   27335      Si       1     SIL   Si2PT       1       2.1    28.086
   27336      Ob       1     SIL   O04or       1     -1.05    15.999
   27337      Ob       1     SIL   O04os       1     -1.05    15.999
   27338      Ob       1     SIL   O04ot       1     -1.05    15.999
   27339      Ob       1     SIL   O04ou       1     -1.05    15.999
   27340      Ob       1     SIL   O04ov       1     -1.05    15.999
   27341      Ob       1     SIL   O04ow       1     -1.05    15.999
   27342      Si       1     SIL   Si2PU       1       2.1    28.086
   27343      Si       1     SIL   Si2PV       1       2.1    28.086
   27344      Si       1     SIL   Si2PW       1       2.1    28.086
   27345      Ob       1     SIL   O04ox       1     -1.05    15.999
   27346      Ob       1     SIL   O04oy       1     -1.05    15.999
   27347      Ob       1     SIL   O04oz       1     -1.05    15.999
   27348      Ob       1     SIL   O04p0       1     -1.05    15.999
   27349      Ob       1     SIL   O04p1       1     -1.05    15.999
   27350      Ob       1     SIL   O04p2       1     -1.05    15.999
   27351      Si       1     SIL   Si2PX       1       2.1    28.086
   27352      Si       1     SIL   Si2PY       1       2.1    28.086
   27353      Si       1     SIL   Si2PZ       1       2.1    28.086
   27354      Ob       1     SIL   O04p3       1     -1.05    15.999
   27355      Ob       1     SIL   O04p4       1     -1.05    15.999
   27356      Ob       1     SIL   O04p5       1     -1.05    15.999
   27357      Ob       1     SIL   O04p6       1     -1.05    15.999
   27358      Ob       1     SIL   O04p7       1     -1.05    15.999
   27359      Ob       1     SIL   O04p8       1     -1.05    15.999
   27360      Si       1     SIL   Si2Pa       1       2.1    28.086
   27361      Si       1     SIL   Si2Pb       1       2.1    28.086
   27362      Si       1     SIL   Si2Pc       1       2.1    28.086
   27363      Ob       1     SIL   O04p9       1     -1.05    15.999
   27364      Ob       1     SIL   O04pA       1     -1.05    15.999
   27365      Ob       1     SIL   O04pB       1     -1.05    15.999
   27366      Ob       1     SIL   O04pC       1     -1.05    15.999
   27367      Ob       1     SIL   O04pD       1     -1.05    15.999
   27368      Ob       1     SIL   O04pE       1     -1.05    15.999
   27369      Si       1     SIL   Si2Pd       1       2.1    28.086
   27370      Si       1     SIL   Si2Pe       1       2.1    28.086
   27371      Si       1     SIL   Si2Pf       1       2.1    28.086
   27372      Ob       1     SIL   O04pF       1     -1.05    15.999
   27373      Ob       1     SIL   O04pG       1     -1.05    15.999
   27374      Ob       1     SIL   O04pH       1     -1.05    15.999
   27375      Ob       1     SIL   O04pI       1     -1.05    15.999
   27376      Ob       1     SIL   O04pJ       1     -1.05    15.999
   27377      Ob       1     SIL   O04pK       1     -1.05    15.999
   27378      Si       1     SIL   Si2Pg       1       2.1    28.086
   27379      Si       1     SIL   Si2Ph       1       2.1    28.086
   27380      Si       1     SIL   Si2Pi       1       2.1    28.086
   27381      Ob       1     SIL   O04pL       1     -1.05    15.999
   27382      Ob       1     SIL   O04pM       1     -1.05    15.999
   27383      Ob       1     SIL   O04pN       1     -1.05    15.999
   27384      Ob       1     SIL   O04pO       1     -1.05    15.999
   27385      Ob       1     SIL   O04pP       1     -1.05    15.999
   27386      Ob       1     SIL   O04pQ       1     -1.05    15.999
   27387      Si       1     SIL   Si2Pj       1       2.1    28.086
   27388      Si       1     SIL   Si2Pk       1       2.1    28.086
   27389      Si       1     SIL   Si2Pl       1       2.1    28.086
   27390      Ob       1     SIL   O04pR       1     -1.05    15.999
   27391      Ob       1     SIL   O04pS       1     -1.05    15.999
   27392      Ob       1     SIL   O04pT       1     -1.05    15.999
   27393      Ob       1     SIL   O04pU       1     -1.05    15.999
   27394      Ob       1     SIL   O04pV       1     -1.05    15.999
   27395      Ob       1     SIL   O04pW       1     -1.05    15.999
   27396      Si       1     SIL   Si2Pm       1       2.1    28.086
   27397      Si       1     SIL   Si2Pn       1       2.1    28.086
   27398      Si       1     SIL   Si2Po       1       2.1    28.086
   27399      Ob       1     SIL   O04pX       1     -1.05    15.999
   27400      Ob       1     SIL   O04pY       1     -1.05    15.999
   27401      Ob       1     SIL   O04pZ       1     -1.05    15.999
   27402      Ob       1     SIL   O04pa       1     -1.05    15.999
   27403      Ob       1     SIL   O04pb       1     -1.05    15.999
   27404      Ob       1     SIL   O04pc       1     -1.05    15.999
   27405      Si       1     SIL   Si2Pp       1       2.1    28.086
   27406      Si       1     SIL   Si2Pq       1       2.1    28.086
   27407      Si       1     SIL   Si2Pr       1       2.1    28.086
   27408      Ob       1     SIL   O04pd       1     -1.05    15.999
   27409      Ob       1     SIL   O04pe       1     -1.05    15.999
   27410      Ob       1     SIL   O04pf       1     -1.05    15.999
   27411      Ob       1     SIL   O04pg       1     -1.05    15.999
   27412      Ob       1     SIL   O04ph       1     -1.05    15.999
   27413      Ob       1     SIL   O04pi       1     -1.05    15.999
   27414      Si       1     SIL   Si2Ps       1       2.1    28.086
   27415      Si       1     SIL   Si2Pt       1       2.1    28.086
   27416      Si       1     SIL   Si2Pu       1       2.1    28.086
   27417      Ob       1     SIL   O04pj       1     -1.05    15.999
   27418      Ob       1     SIL   O04pk       1     -1.05    15.999
   27419      Ob       1     SIL   O04pl       1     -1.05    15.999
   27420      Ob       1     SIL   O04pm       1     -1.05    15.999
   27421      Ob       1     SIL   O04pn       1     -1.05    15.999
   27422      Ob       1     SIL   O04po       1     -1.05    15.999
   27423      Si       1     SIL   Si2Pv       1       2.1    28.086
   27424      Si       1     SIL   Si2Pw       1       2.1    28.086
   27425      Si       1     SIL   Si2Px       1       2.1    28.086
   27426      Ob       1     SIL   O04pp       1     -1.05    15.999
   27427      Ob       1     SIL   O04pq       1     -1.05    15.999
   27428      Ob       1     SIL   O04pr       1     -1.05    15.999
   27429      Ob       1     SIL   O04ps       1     -1.05    15.999
   27430      Ob       1     SIL   O04pt       1     -1.05    15.999
   27431      Ob       1     SIL   O04pu       1     -1.05    15.999
   27432      Si       1     SIL   Si2Py       1       2.1    28.086
   27433      Si       1     SIL   Si2Pz       1       2.1    28.086
   27434      Si       1     SIL   Si2Q0       1       2.1    28.086
   27435      Ob       1     SIL   O04pv       1     -1.05    15.999
   27436      Ob       1     SIL   O04pw       1     -1.05    15.999
   27437      Ob       1     SIL   O04px       1     -1.05    15.999
   27438      Ob       1     SIL   O04py       1     -1.05    15.999
   27439      Ob       1     SIL   O04pz       1     -1.05    15.999
   27440      Ob       1     SIL   O04q0       1     -1.05    15.999
   27441      Si       1     SIL   Si2Q1       1       2.1    28.086
   27442      Si       1     SIL   Si2Q2       1       2.1    28.086
   27443      Si       1     SIL   Si2Q3       1       2.1    28.086
   27444      Ob       1     SIL   O04q1       1     -1.05    15.999
   27445      Ob       1     SIL   O04q2       1     -1.05    15.999
   27446      Ob       1     SIL   O04q3       1     -1.05    15.999
   27447      Ob       1     SIL   O04q4       1     -1.05    15.999
   27448      Ob       1     SIL   O04q5       1     -1.05    15.999
   27449      Ob       1     SIL   O04q6       1     -1.05    15.999
   27450      Si       1     SIL   Si2Q4       1       2.1    28.086
   27451      Si       1     SIL   Si2Q5       1       2.1    28.086
   27452      Si       1     SIL   Si2Q6       1       2.1    28.086
   27453      Ob       1     SIL   O04q7       1     -1.05    15.999
   27454      Ob       1     SIL   O04q8       1     -1.05    15.999
   27455      Ob       1     SIL   O04q9       1     -1.05    15.999
   27456      Ob       1     SIL   O04qA       1     -1.05    15.999
   27457      Ob       1     SIL   O04qB       1     -1.05    15.999
   27458      Ob       1     SIL   O04qC       1     -1.05    15.999
   27459      Si       1     SIL   Si2Q7       1       2.1    28.086
   27460      Si       1     SIL   Si2Q8       1       2.1    28.086
   27461      Si       1     SIL   Si2Q9       1       2.1    28.086
   27462      Ob       1     SIL   O04qD       1     -1.05    15.999
   27463      Ob       1     SIL   O04qE       1     -1.05    15.999
   27464      Ob       1     SIL   O04qF       1     -1.05    15.999
   27465      Ob       1     SIL   O04qG       1     -1.05    15.999
   27466      Ob       1     SIL   O04qH       1     -1.05    15.999
   27467      Ob       1     SIL   O04qI       1     -1.05    15.999
   27468      Si       1     SIL   Si2QA       1       2.1    28.086
   27469      Si       1     SIL   Si2QB       1       2.1    28.086
   27470      Si       1     SIL   Si2QC       1       2.1    28.086
   27471      Ob       1     SIL   O04qJ       1     -1.05    15.999
   27472      Ob       1     SIL   O04qK       1     -1.05    15.999
   27473      Ob       1     SIL   O04qL       1     -1.05    15.999
   27474      Ob       1     SIL   O04qM       1     -1.05    15.999
   27475      Ob       1     SIL   O04qN       1     -1.05    15.999
   27476      Ob       1     SIL   O04qO       1     -1.05    15.999
   27477      Si       1     SIL   Si2QD       1       2.1    28.086
   27478      Si       1     SIL   Si2QE       1       2.1    28.086
   27479      Si       1     SIL   Si2QF       1       2.1    28.086
   27480      Ob       1     SIL   O04qP       1     -1.05    15.999
   27481       O       1     SIL   O04qQ       1    -0.525    15.999
   27482       O       1     SIL   O04qR       1    -0.525    15.999
   27483      Ob       1     SIL   O04qS       1     -1.05    15.999
   27484      Ob       1     SIL   O04qT       1     -1.05    15.999
   27485      Ob       1     SIL   O04qU       1     -1.05    15.999
   27486      Si       1     SIL   Si2QG       1       2.1    28.086
   27487      Si       1     SIL   Si2QH       1       2.1    28.086
   27488      Si       1     SIL   Si2QI       1       2.1    28.086
   27489      Ob       1     SIL   O04qV       1     -1.05    15.999
   27490      Ob       1     SIL   O04qW       1     -1.05    15.999
   27491      Ob       1     SIL   O04qX       1     -1.05    15.999
   27492      Ob       1     SIL   O04qY       1     -1.05    15.999
   27493      Ob       1     SIL   O04qZ       1     -1.05    15.999
   27494      Ob       1     SIL   O04qa       1     -1.05    15.999
   27495      Si       1     SIL   Si2QJ       1       2.1    28.086
   27496      Si       1     SIL   Si2QK       1       2.1    28.086
   27497      Si       1     SIL   Si2QL       1       2.1    28.086
   27498      Ob       1     SIL   O04qb       1     -1.05    15.999
   27499      Ob       1     SIL   O04qc       1     -1.05    15.999
   27500      Ob       1     SIL   O04qd       1     -1.05    15.999
   27501      Ob       1     SIL   O04qe       1     -1.05    15.999
   27502      Ob       1     SIL   O04qf       1     -1.05    15.999
   27503      Ob       1     SIL   O04qg       1     -1.05    15.999
   27504      Si       1     SIL   Si2QM       1       2.1    28.086
   27505      Si       1     SIL   Si2QN       1       2.1    28.086
   27506      Si       1     SIL   Si2QO       1       2.1    28.086
   27507      Ob       1     SIL   O04qh       1     -1.05    15.999
   27508      Ob       1     SIL   O04qi       1     -1.05    15.999
   27509      Ob       1     SIL   O04qj       1     -1.05    15.999
   27510      Ob       1     SIL   O04qk       1     -1.05    15.999
   27511      Ob       1     SIL   O04ql       1     -1.05    15.999
   27512      Ob       1     SIL   O04qm       1     -1.05    15.999
   27513      Si       1     SIL   Si2QP       1       2.1    28.086
   27514      Si       1     SIL   Si2QQ       1       2.1    28.086
   27515      Si       1     SIL   Si2QR       1       2.1    28.086
   27516      Ob       1     SIL   O04qn       1     -1.05    15.999
   27517      Ob       1     SIL   O04qo       1     -1.05    15.999
   27518      Ob       1     SIL   O04qp       1     -1.05    15.999
   27519      Ob       1     SIL   O04qq       1     -1.05    15.999
   27520      Ob       1     SIL   O04qr       1     -1.05    15.999
   27521      Ob       1     SIL   O04qs       1     -1.05    15.999
   27522      Si       1     SIL   Si2QS       1       2.1    28.086
   27523      Si       1     SIL   Si2QT       1       2.1    28.086
   27524      Si       1     SIL   Si2QU       1       2.1    28.086
   27525      Ob       1     SIL   O04qt       1     -1.05    15.999
   27526      Ob       1     SIL   O04qu       1     -1.05    15.999
   27527      Ob       1     SIL   O04qv       1     -1.05    15.999
   27528      Ob       1     SIL   O04qw       1     -1.05    15.999
   27529      Ob       1     SIL   O04qx       1     -1.05    15.999
   27530      Ob       1     SIL   O04qy       1     -1.05    15.999
   27531      Si       1     SIL   Si2QV       1       2.1    28.086
   27532      Si       1     SIL   Si2QW       1       2.1    28.086
   27533      Si       1     SIL   Si2QX       1       2.1    28.086
   27534      Ob       1     SIL   O04qz       1     -1.05    15.999
   27535      Ob       1     SIL   O04r0       1     -1.05    15.999
   27536      Ob       1     SIL   O04r1       1     -1.05    15.999
   27537      Ob       1     SIL   O04r2       1     -1.05    15.999
   27538      Ob       1     SIL   O04r3       1     -1.05    15.999
   27539      Ob       1     SIL   O04r4       1     -1.05    15.999
   27540      Si       1     SIL   Si2QY       1       2.1    28.086
   27541      Si       1     SIL   Si2QZ       1       2.1    28.086
   27542      Si       1     SIL   Si2Qa       1       2.1    28.086
   27543      Ob       1     SIL   O04r5       1     -1.05    15.999
   27544      Ob       1     SIL   O04r6       1     -1.05    15.999
   27545      Ob       1     SIL   O04r7       1     -1.05    15.999
   27546      Ob       1     SIL   O04r8       1     -1.05    15.999
   27547      Ob       1     SIL   O04r9       1     -1.05    15.999
   27548      Ob       1     SIL   O04rA       1     -1.05    15.999
   27549      Si       1     SIL   Si2Qb       1       2.1    28.086
   27550      Si       1     SIL   Si2Qc       1       2.1    28.086
   27551      Si       1     SIL   Si2Qd       1       2.1    28.086
   27552      Ob       1     SIL   O04rB       1     -1.05    15.999
   27553      Ob       1     SIL   O04rC       1     -1.05    15.999
   27554      Ob       1     SIL   O04rD       1     -1.05    15.999
   27555      Ob       1     SIL   O04rE       1     -1.05    15.999
   27556      Ob       1     SIL   O04rF       1     -1.05    15.999
   27557      Ob       1     SIL   O04rG       1     -1.05    15.999
   27558      Si       1     SIL   Si2Qe       1       2.1    28.086
   27559      Si       1     SIL   Si2Qf       1       2.1    28.086
   27560      Si       1     SIL   Si2Qg       1       2.1    28.086
   27561      Ob       1     SIL   O04rH       1     -1.05    15.999
   27562      Ob       1     SIL   O04rI       1     -1.05    15.999
   27563      Ob       1     SIL   O04rJ       1     -1.05    15.999
   27564      Ob       1     SIL   O04rK       1     -1.05    15.999
   27565      Ob       1     SIL   O04rL       1     -1.05    15.999
   27566      Ob       1     SIL   O04rM       1     -1.05    15.999
   27567      Si       1     SIL   Si2Qh       1       2.1    28.086
   27568      Si       1     SIL   Si2Qi       1       2.1    28.086
   27569      Si       1     SIL   Si2Qj       1       2.1    28.086
   27570      Ob       1     SIL   O04rN       1     -1.05    15.999
   27571      Ob       1     SIL   O04rO       1     -1.05    15.999
   27572      Ob       1     SIL   O04rP       1     -1.05    15.999
   27573      Ob       1     SIL   O04rQ       1     -1.05    15.999
   27574      Ob       1     SIL   O04rR       1     -1.05    15.999
   27575      Ob       1     SIL   O04rS       1     -1.05    15.999
   27576      Si       1     SIL   Si2Qk       1       2.1    28.086
   27577      Si       1     SIL   Si2Ql       1       2.1    28.086
   27578      Si       1     SIL   Si2Qm       1       2.1    28.086
   27579      Ob       1     SIL   O04rT       1     -1.05    15.999
   27580      Ob       1     SIL   O04rU       1     -1.05    15.999
   27581      Ob       1     SIL   O04rV       1     -1.05    15.999
   27582      Ob       1     SIL   O04rW       1     -1.05    15.999
   27583      Ob       1     SIL   O04rX       1     -1.05    15.999
   27584      Ob       1     SIL   O04rY       1     -1.05    15.999
   27585      Si       1     SIL   Si2Qn       1       2.1    28.086
   27586      Si       1     SIL   Si2Qo       1       2.1    28.086
   27587      Si       1     SIL   Si2Qp       1       2.1    28.086
   27588      Ob       1     SIL   O04rZ       1     -1.05    15.999
   27589      Ob       1     SIL   O04ra       1     -1.05    15.999
   27590      Ob       1     SIL   O04rb       1     -1.05    15.999
   27591      Ob       1     SIL   O04rc       1     -1.05    15.999
   27592      Ob       1     SIL   O04rd       1     -1.05    15.999
   27593      Ob       1     SIL   O04re       1     -1.05    15.999
   27594      Si       1     SIL   Si2Qq       1       2.1    28.086
   27595      Si       1     SIL   Si2Qr       1       2.1    28.086
   27596      Si       1     SIL   Si2Qs       1       2.1    28.086
   27597      Ob       1     SIL   O04rf       1     -1.05    15.999
   27598      Ob       1     SIL   O04rg       1     -1.05    15.999
   27599      Ob       1     SIL   O04rh       1     -1.05    15.999
   27600      Ob       1     SIL   O04ri       1     -1.05    15.999
   27601      Ob       1     SIL   O04rj       1     -1.05    15.999
   27602      Ob       1     SIL   O04rk       1     -1.05    15.999
   27603      Si       1     SIL   Si2Qt       1       2.1    28.086
   27604      Si       1     SIL   Si2Qu       1       2.1    28.086
   27605      Si       1     SIL   Si2Qv       1       2.1    28.086
   27606      Ob       1     SIL   O04rl       1     -1.05    15.999
   27607      Ob       1     SIL   O04rm       1     -1.05    15.999
   27608      Ob       1     SIL   O04rn       1     -1.05    15.999
   27609      Ob       1     SIL   O04ro       1     -1.05    15.999
   27610      Ob       1     SIL   O04rp       1     -1.05    15.999
   27611      Ob       1     SIL   O04rq       1     -1.05    15.999
   27612      Si       1     SIL   Si2Qw       1       2.1    28.086
   27613      Si       1     SIL   Si2Qx       1       2.1    28.086
   27614      Si       1     SIL   Si2Qy       1       2.1    28.086
   27615      Ob       1     SIL   O04rr       1     -1.05    15.999
   27616      Ob       1     SIL   O04rs       1     -1.05    15.999
   27617      Ob       1     SIL   O04rt       1     -1.05    15.999
   27618      Ob       1     SIL   O04ru       1     -1.05    15.999
   27619      Ob       1     SIL   O04rv       1     -1.05    15.999
   27620      Ob       1     SIL   O04rw       1     -1.05    15.999
   27621      Si       1     SIL   Si2Qz       1       2.1    28.086
   27622      Si       1     SIL   Si2R0       1       2.1    28.086
   27623      Si       1     SIL   Si2R1       1       2.1    28.086
   27624      Ob       1     SIL   O04rx       1     -1.05    15.999
   27625      Ob       1     SIL   O04ry       1     -1.05    15.999
   27626      Ob       1     SIL   O04rz       1     -1.05    15.999
   27627      Ob       1     SIL   O04s0       1     -1.05    15.999
   27628      Ob       1     SIL   O04s1       1     -1.05    15.999
   27629      Ob       1     SIL   O04s2       1     -1.05    15.999
   27630      Si       1     SIL   Si2R2       1       2.1    28.086
   27631      Si       1     SIL   Si2R3       1       2.1    28.086
   27632      Si       1     SIL   Si2R4       1       2.1    28.086
   27633      Ob       1     SIL   O04s3       1     -1.05    15.999
   27634      Ob       1     SIL   O04s4       1     -1.05    15.999
   27635      Ob       1     SIL   O04s5       1     -1.05    15.999
   27636      Ob       1     SIL   O04s6       1     -1.05    15.999
   27637      Ob       1     SIL   O04s7       1     -1.05    15.999
   27638      Ob       1     SIL   O04s8       1     -1.05    15.999
   27639      Si       1     SIL   Si2R5       1       2.1    28.086
   27640      Si       1     SIL   Si2R6       1       2.1    28.086
   27641      Si       1     SIL   Si2R7       1       2.1    28.086
   27642      Ob       1     SIL   O04s9       1     -1.05    15.999
   27643      Ob       1     SIL   O04sA       1     -1.05    15.999
   27644      Ob       1     SIL   O04sB       1     -1.05    15.999
   27645      Ob       1     SIL   O04sC       1     -1.05    15.999
   27646      Ob       1     SIL   O04sD       1     -1.05    15.999
   27647      Ob       1     SIL   O04sE       1     -1.05    15.999
   27648      Si       1     SIL   Si2R8       1       2.1    28.086
   27649      Si       1     SIL   Si2R9       1       2.1    28.086
   27650      Si       1     SIL   Si2RA       1       2.1    28.086
   27651      Ob       1     SIL   O04sF       1     -1.05    15.999
   27652      Ob       1     SIL   O04sG       1     -1.05    15.999
   27653      Ob       1     SIL   O04sH       1     -1.05    15.999
   27654      Ob       1     SIL   O04sI       1     -1.05    15.999
   27655      Ob       1     SIL   O04sJ       1     -1.05    15.999
   27656      Ob       1     SIL   O04sK       1     -1.05    15.999
   27657      Si       1     SIL   Si2RB       1       2.1    28.086
   27658      Si       1     SIL   Si2RC       1       2.1    28.086
   27659      Si       1     SIL   Si2RD       1       2.1    28.086
   27660      Ob       1     SIL   O04sL       1     -1.05    15.999
   27661      Ob       1     SIL   O04sM       1     -1.05    15.999
   27662      Ob       1     SIL   O04sN       1     -1.05    15.999
   27663      Ob       1     SIL   O04sO       1     -1.05    15.999
   27664      Ob       1     SIL   O04sP       1     -1.05    15.999
   27665      Ob       1     SIL   O04sQ       1     -1.05    15.999
   27666      Si       1     SIL   Si2RE       1       2.1    28.086
   27667      Si       1     SIL   Si2RF       1       2.1    28.086
   27668      Si       1     SIL   Si2RG       1       2.1    28.086
   27669      Ob       1     SIL   O04sR       1     -1.05    15.999
   27670      Ob       1     SIL   O04sS       1     -1.05    15.999
   27671      Ob       1     SIL   O04sT       1     -1.05    15.999
   27672      Ob       1     SIL   O04sU       1     -1.05    15.999
   27673      Ob       1     SIL   O04sV       1     -1.05    15.999
   27674      Ob       1     SIL   O04sW       1     -1.05    15.999
   27675      Si       1     SIL   Si2RH       1       2.1    28.086
   27676      Si       1     SIL   Si2RI       1       2.1    28.086
   27677      Si       1     SIL   Si2RJ       1       2.1    28.086
   27678      Ob       1     SIL   O04sX       1     -1.05    15.999
   27679      Ob       1     SIL   O04sY       1     -1.05    15.999
   27680      Ob       1     SIL   O04sZ       1     -1.05    15.999
   27681      Ob       1     SIL   O04sa       1     -1.05    15.999
   27682      Ob       1     SIL   O04sb       1     -1.05    15.999
   27683      Ob       1     SIL   O04sc       1     -1.05    15.999
   27684      Si       1     SIL   Si2RK       1       2.1    28.086
   27685      Si       1     SIL   Si2RL       1       2.1    28.086
   27686      Si       1     SIL   Si2RM       1       2.1    28.086
   27687      Ob       1     SIL   O04sd       1     -1.05    15.999
   27688       O       1     SIL   O04se       1    -0.525    15.999
   27689       O       1     SIL   O04sf       1    -0.525    15.999
   27690      Ob       1     SIL   O04sg       1     -1.05    15.999
   27691      Ob       1     SIL   O04sh       1     -1.05    15.999
   27692      Ob       1     SIL   O04si       1     -1.05    15.999
   27693      Si       1     SIL   Si2RN       1       2.1    28.086
   27694      Si       1     SIL   Si2RO       1       2.1    28.086
   27695      Si       1     SIL   Si2RP       1       2.1    28.086
   27696      Ob       1     SIL   O04sj       1     -1.05    15.999
   27697      Ob       1     SIL   O04sk       1     -1.05    15.999
   27698      Ob       1     SIL   O04sl       1     -1.05    15.999
   27699      Ob       1     SIL   O04sm       1     -1.05    15.999
   27700      Ob       1     SIL   O04sn       1     -1.05    15.999
   27701      Ob       1     SIL   O04so       1     -1.05    15.999
   27702      Si       1     SIL   Si2RQ       1       2.1    28.086
   27703      Si       1     SIL   Si2RR       1       2.1    28.086
   27704      Si       1     SIL   Si2RS       1       2.1    28.086
   27705      Ob       1     SIL   O04sp       1     -1.05    15.999
   27706      Ob       1     SIL   O04sq       1     -1.05    15.999
   27707      Ob       1     SIL   O04sr       1     -1.05    15.999
   27708      Ob       1     SIL   O04ss       1     -1.05    15.999
   27709      Ob       1     SIL   O04st       1     -1.05    15.999
   27710      Ob       1     SIL   O04su       1     -1.05    15.999
   27711      Si       1     SIL   Si2RT       1       2.1    28.086
   27712      Si       1     SIL   Si2RU       1       2.1    28.086
   27713      Si       1     SIL   Si2RV       1       2.1    28.086
   27714      Ob       1     SIL   O04sv       1     -1.05    15.999
   27715      Ob       1     SIL   O04sw       1     -1.05    15.999
   27716      Ob       1     SIL   O04sx       1     -1.05    15.999
   27717      Ob       1     SIL   O04sy       1     -1.05    15.999
   27718      Ob       1     SIL   O04sz       1     -1.05    15.999
   27719      Ob       1     SIL   O04t0       1     -1.05    15.999
   27720      Si       1     SIL   Si2RW       1       2.1    28.086
   27721      Si       1     SIL   Si2RX       1       2.1    28.086
   27722      Si       1     SIL   Si2RY       1       2.1    28.086
   27723      Ob       1     SIL   O04t1       1     -1.05    15.999
   27724      Ob       1     SIL   O04t2       1     -1.05    15.999
   27725      Ob       1     SIL   O04t3       1     -1.05    15.999
   27726      Ob       1     SIL   O04t4       1     -1.05    15.999
   27727      Ob       1     SIL   O04t5       1     -1.05    15.999
   27728      Ob       1     SIL   O04t6       1     -1.05    15.999
   27729      Si       1     SIL   Si2RZ       1       2.1    28.086
   27730      Si       1     SIL   Si2Ra       1       2.1    28.086
   27731      Si       1     SIL   Si2Rb       1       2.1    28.086
   27732      Ob       1     SIL   O04t7       1     -1.05    15.999
   27733      Ob       1     SIL   O04t8       1     -1.05    15.999
   27734      Ob       1     SIL   O04t9       1     -1.05    15.999
   27735      Ob       1     SIL   O04tA       1     -1.05    15.999
   27736      Ob       1     SIL   O04tB       1     -1.05    15.999
   27737      Ob       1     SIL   O04tC       1     -1.05    15.999
   27738      Si       1     SIL   Si2Rc       1       2.1    28.086
   27739      Si       1     SIL   Si2Rd       1       2.1    28.086
   27740      Si       1     SIL   Si2Re       1       2.1    28.086
   27741      Ob       1     SIL   O04tD       1     -1.05    15.999
   27742      Ob       1     SIL   O04tE       1     -1.05    15.999
   27743      Ob       1     SIL   O04tF       1     -1.05    15.999
   27744      Ob       1     SIL   O04tG       1     -1.05    15.999
   27745      Ob       1     SIL   O04tH       1     -1.05    15.999
   27746      Ob       1     SIL   O04tI       1     -1.05    15.999
   27747      Si       1     SIL   Si2Rf       1       2.1    28.086
   27748      Si       1     SIL   Si2Rg       1       2.1    28.086
   27749      Si       1     SIL   Si2Rh       1       2.1    28.086
   27750      Ob       1     SIL   O04tJ       1     -1.05    15.999
   27751      Ob       1     SIL   O04tK       1     -1.05    15.999
   27752      Ob       1     SIL   O04tL       1     -1.05    15.999
   27753      Ob       1     SIL   O04tM       1     -1.05    15.999
   27754      Ob       1     SIL   O04tN       1     -1.05    15.999
   27755      Ob       1     SIL   O04tO       1     -1.05    15.999
   27756      Si       1     SIL   Si2Ri       1       2.1    28.086
   27757      Si       1     SIL   Si2Rj       1       2.1    28.086
   27758      Si       1     SIL   Si2Rk       1       2.1    28.086
   27759      Ob       1     SIL   O04tP       1     -1.05    15.999
   27760      Ob       1     SIL   O04tQ       1     -1.05    15.999
   27761      Ob       1     SIL   O04tR       1     -1.05    15.999
   27762      Ob       1     SIL   O04tS       1     -1.05    15.999
   27763      Ob       1     SIL   O04tT       1     -1.05    15.999
   27764      Ob       1     SIL   O04tU       1     -1.05    15.999
   27765      Si       1     SIL   Si2Rl       1       2.1    28.086
   27766      Si       1     SIL   Si2Rm       1       2.1    28.086
   27767      Si       1     SIL   Si2Rn       1       2.1    28.086
   27768      Ob       1     SIL   O04tV       1     -1.05    15.999
   27769      Ob       1     SIL   O04tW       1     -1.05    15.999
   27770      Ob       1     SIL   O04tX       1     -1.05    15.999
   27771      Ob       1     SIL   O04tY       1     -1.05    15.999
   27772      Ob       1     SIL   O04tZ       1     -1.05    15.999
   27773      Ob       1     SIL   O04ta       1     -1.05    15.999
   27774      Si       1     SIL   Si2Ro       1       2.1    28.086
   27775      Si       1     SIL   Si2Rp       1       2.1    28.086
   27776      Si       1     SIL   Si2Rq       1       2.1    28.086
   27777      Ob       1     SIL   O04tb       1     -1.05    15.999
   27778      Ob       1     SIL   O04tc       1     -1.05    15.999
   27779      Ob       1     SIL   O04td       1     -1.05    15.999
   27780      Ob       1     SIL   O04te       1     -1.05    15.999
   27781      Ob       1     SIL   O04tf       1     -1.05    15.999
   27782      Ob       1     SIL   O04tg       1     -1.05    15.999
   27783      Si       1     SIL   Si2Rr       1       2.1    28.086
   27784      Si       1     SIL   Si2Rs       1       2.1    28.086
   27785      Si       1     SIL   Si2Rt       1       2.1    28.086
   27786      Ob       1     SIL   O04th       1     -1.05    15.999
   27787      Ob       1     SIL   O04ti       1     -1.05    15.999
   27788      Ob       1     SIL   O04tj       1     -1.05    15.999
   27789      Ob       1     SIL   O04tk       1     -1.05    15.999
   27790      Ob       1     SIL   O04tl       1     -1.05    15.999
   27791      Ob       1     SIL   O04tm       1     -1.05    15.999
   27792      Si       1     SIL   Si2Ru       1       2.1    28.086
   27793      Si       1     SIL   Si2Rv       1       2.1    28.086
   27794      Si       1     SIL   Si2Rw       1       2.1    28.086
   27795      Ob       1     SIL   O04tn       1     -1.05    15.999
   27796      Ob       1     SIL   O04to       1     -1.05    15.999
   27797      Ob       1     SIL   O04tp       1     -1.05    15.999
   27798      Ob       1     SIL   O04tq       1     -1.05    15.999
   27799      Ob       1     SIL   O04tr       1     -1.05    15.999
   27800      Ob       1     SIL   O04ts       1     -1.05    15.999
   27801      Si       1     SIL   Si2Rx       1       2.1    28.086
   27802      Si       1     SIL   Si2Ry       1       2.1    28.086
   27803      Si       1     SIL   Si2Rz       1       2.1    28.086
   27804      Ob       1     SIL   O04tt       1     -1.05    15.999
   27805      Ob       1     SIL   O04tu       1     -1.05    15.999
   27806      Ob       1     SIL   O04tv       1     -1.05    15.999
   27807      Ob       1     SIL   O04tw       1     -1.05    15.999
   27808      Ob       1     SIL   O04tx       1     -1.05    15.999
   27809      Ob       1     SIL   O04ty       1     -1.05    15.999
   27810      Si       1     SIL   Si2S0       1       2.1    28.086
   27811      Si       1     SIL   Si2S1       1       2.1    28.086
   27812      Si       1     SIL   Si2S2       1       2.1    28.086
   27813      Ob       1     SIL   O04tz       1     -1.05    15.999
   27814      Ob       1     SIL   O04u0       1     -1.05    15.999
   27815      Ob       1     SIL   O04u1       1     -1.05    15.999
   27816      Ob       1     SIL   O04u2       1     -1.05    15.999
   27817      Ob       1     SIL   O04u3       1     -1.05    15.999
   27818      Ob       1     SIL   O04u4       1     -1.05    15.999
   27819      Si       1     SIL   Si2S3       1       2.1    28.086
   27820      Si       1     SIL   Si2S4       1       2.1    28.086
   27821      Si       1     SIL   Si2S5       1       2.1    28.086
   27822      Ob       1     SIL   O04u5       1     -1.05    15.999
   27823      Ob       1     SIL   O04u6       1     -1.05    15.999
   27824      Ob       1     SIL   O04u7       1     -1.05    15.999
   27825      Ob       1     SIL   O04u8       1     -1.05    15.999
   27826      Ob       1     SIL   O04u9       1     -1.05    15.999
   27827      Ob       1     SIL   O04uA       1     -1.05    15.999
   27828      Si       1     SIL   Si2S6       1       2.1    28.086
   27829      Si       1     SIL   Si2S7       1       2.1    28.086
   27830      Si       1     SIL   Si2S8       1       2.1    28.086
   27831      Ob       1     SIL   O04uB       1     -1.05    15.999
   27832      Ob       1     SIL   O04uC       1     -1.05    15.999
   27833      Ob       1     SIL   O04uD       1     -1.05    15.999
   27834      Ob       1     SIL   O04uE       1     -1.05    15.999
   27835      Ob       1     SIL   O04uF       1     -1.05    15.999
   27836      Ob       1     SIL   O04uG       1     -1.05    15.999
   27837      Si       1     SIL   Si2S9       1       2.1    28.086
   27838      Si       1     SIL   Si2SA       1       2.1    28.086
   27839      Si       1     SIL   Si2SB       1       2.1    28.086
   27840      Ob       1     SIL   O04uH       1     -1.05    15.999
   27841      Ob       1     SIL   O04uI       1     -1.05    15.999
   27842      Ob       1     SIL   O04uJ       1     -1.05    15.999
   27843      Ob       1     SIL   O04uK       1     -1.05    15.999
   27844      Ob       1     SIL   O04uL       1     -1.05    15.999
   27845      Ob       1     SIL   O04uM       1     -1.05    15.999
   27846      Si       1     SIL   Si2SC       1       2.1    28.086
   27847      Si       1     SIL   Si2SD       1       2.1    28.086
   27848      Si       1     SIL   Si2SE       1       2.1    28.086
   27849      Ob       1     SIL   O04uN       1     -1.05    15.999
   27850      Ob       1     SIL   O04uO       1     -1.05    15.999
   27851      Ob       1     SIL   O04uP       1     -1.05    15.999
   27852      Ob       1     SIL   O04uQ       1     -1.05    15.999
   27853      Ob       1     SIL   O04uR       1     -1.05    15.999
   27854      Ob       1     SIL   O04uS       1     -1.05    15.999
   27855      Si       1     SIL   Si2SF       1       2.1    28.086
   27856      Si       1     SIL   Si2SG       1       2.1    28.086
   27857      Si       1     SIL   Si2SH       1       2.1    28.086
   27858      Ob       1     SIL   O04uT       1     -1.05    15.999
   27859      Ob       1     SIL   O04uU       1     -1.05    15.999
   27860      Ob       1     SIL   O04uV       1     -1.05    15.999
   27861      Ob       1     SIL   O04uW       1     -1.05    15.999
   27862      Ob       1     SIL   O04uX       1     -1.05    15.999
   27863      Ob       1     SIL   O04uY       1     -1.05    15.999
   27864      Si       1     SIL   Si2SI       1       2.1    28.086
   27865      Si       1     SIL   Si2SJ       1       2.1    28.086
   27866      Si       1     SIL   Si2SK       1       2.1    28.086
   27867      Ob       1     SIL   O04uZ       1     -1.05    15.999
   27868      Ob       1     SIL   O04ua       1     -1.05    15.999
   27869      Ob       1     SIL   O04ub       1     -1.05    15.999
   27870      Ob       1     SIL   O04uc       1     -1.05    15.999
   27871      Ob       1     SIL   O04ud       1     -1.05    15.999
   27872      Ob       1     SIL   O04ue       1     -1.05    15.999
   27873      Si       1     SIL   Si2SL       1       2.1    28.086
   27874      Si       1     SIL   Si2SM       1       2.1    28.086
   27875      Si       1     SIL   Si2SN       1       2.1    28.086
   27876      Ob       1     SIL   O04uf       1     -1.05    15.999
   27877      Ob       1     SIL   O04ug       1     -1.05    15.999
   27878      Ob       1     SIL   O04uh       1     -1.05    15.999
   27879      Ob       1     SIL   O04ui       1     -1.05    15.999
   27880      Ob       1     SIL   O04uj       1     -1.05    15.999
   27881      Ob       1     SIL   O04uk       1     -1.05    15.999
   27882      Si       1     SIL   Si2SO       1       2.1    28.086
   27883      Si       1     SIL   Si2SP       1       2.1    28.086
   27884      Si       1     SIL   Si2SQ       1       2.1    28.086
   27885      Ob       1     SIL   O04ul       1     -1.05    15.999
   27886      Ob       1     SIL   O04um       1     -1.05    15.999
   27887      Ob       1     SIL   O04un       1     -1.05    15.999
   27888      Ob       1     SIL   O04uo       1     -1.05    15.999
   27889      Ob       1     SIL   O04up       1     -1.05    15.999
   27890      Ob       1     SIL   O04uq       1     -1.05    15.999
   27891      Si       1     SIL   Si2SR       1       2.1    28.086
   27892      Si       1     SIL   Si2SS       1       2.1    28.086
   27893      Si       1     SIL   Si2ST       1       2.1    28.086
   27894      Ob       1     SIL   O04ur       1     -1.05    15.999
   27895       O       1     SIL   O04us       1    -0.525    15.999
   27896       O       1     SIL   O04ut       1    -0.525    15.999
   27897      Ob       1     SIL   O04uu       1     -1.05    15.999
   27898      Ob       1     SIL   O04uv       1     -1.05    15.999
   27899      Ob       1     SIL   O04uw       1     -1.05    15.999
   27900      Si       1     SIL   Si2SU       1       2.1    28.086
   27901      Si       1     SIL   Si2SV       1       2.1    28.086
   27902      Si       1     SIL   Si2SW       1       2.1    28.086
   27903      Ob       1     SIL   O04ux       1     -1.05    15.999
   27904      Ob       1     SIL   O04uy       1     -1.05    15.999
   27905      Ob       1     SIL   O04uz       1     -1.05    15.999
   27906      Ob       1     SIL   O04v0       1     -1.05    15.999
   27907      Ob       1     SIL   O04v1       1     -1.05    15.999
   27908      Ob       1     SIL   O04v2       1     -1.05    15.999
   27909      Si       1     SIL   Si2SX       1       2.1    28.086
   27910      Si       1     SIL   Si2SY       1       2.1    28.086
   27911      Si       1     SIL   Si2SZ       1       2.1    28.086
   27912      Ob       1     SIL   O04v3       1     -1.05    15.999
   27913      Ob       1     SIL   O04v4       1     -1.05    15.999
   27914      Ob       1     SIL   O04v5       1     -1.05    15.999
   27915      Ob       1     SIL   O04v6       1     -1.05    15.999
   27916      Ob       1     SIL   O04v7       1     -1.05    15.999
   27917      Ob       1     SIL   O04v8       1     -1.05    15.999
   27918      Si       1     SIL   Si2Sa       1       2.1    28.086
   27919      Si       1     SIL   Si2Sb       1       2.1    28.086
   27920      Si       1     SIL   Si2Sc       1       2.1    28.086
   27921      Ob       1     SIL   O04v9       1     -1.05    15.999
   27922      Ob       1     SIL   O04vA       1     -1.05    15.999
   27923      Ob       1     SIL   O04vB       1     -1.05    15.999
   27924      Ob       1     SIL   O04vC       1     -1.05    15.999
   27925      Ob       1     SIL   O04vD       1     -1.05    15.999
   27926      Ob       1     SIL   O04vE       1     -1.05    15.999
   27927      Si       1     SIL   Si2Sd       1       2.1    28.086
   27928      Si       1     SIL   Si2Se       1       2.1    28.086
   27929      Si       1     SIL   Si2Sf       1       2.1    28.086
   27930      Ob       1     SIL   O04vF       1     -1.05    15.999
   27931      Ob       1     SIL   O04vG       1     -1.05    15.999
   27932      Ob       1     SIL   O04vH       1     -1.05    15.999
   27933      Ob       1     SIL   O04vI       1     -1.05    15.999
   27934      Ob       1     SIL   O04vJ       1     -1.05    15.999
   27935      Ob       1     SIL   O04vK       1     -1.05    15.999
   27936      Si       1     SIL   Si2Sg       1       2.1    28.086
   27937      Si       1     SIL   Si2Sh       1       2.1    28.086
   27938      Si       1     SIL   Si2Si       1       2.1    28.086
   27939      Ob       1     SIL   O04vL       1     -1.05    15.999
   27940      Ob       1     SIL   O04vM       1     -1.05    15.999
   27941      Ob       1     SIL   O04vN       1     -1.05    15.999
   27942      Ob       1     SIL   O04vO       1     -1.05    15.999
   27943      Ob       1     SIL   O04vP       1     -1.05    15.999
   27944      Ob       1     SIL   O04vQ       1     -1.05    15.999
   27945      Si       1     SIL   Si2Sj       1       2.1    28.086
   27946      Si       1     SIL   Si2Sk       1       2.1    28.086
   27947      Si       1     SIL   Si2Sl       1       2.1    28.086
   27948      Ob       1     SIL   O04vR       1     -1.05    15.999
   27949      Ob       1     SIL   O04vS       1     -1.05    15.999
   27950      Ob       1     SIL   O04vT       1     -1.05    15.999
   27951      Ob       1     SIL   O04vU       1     -1.05    15.999
   27952      Ob       1     SIL   O04vV       1     -1.05    15.999
   27953      Ob       1     SIL   O04vW       1     -1.05    15.999
   27954      Si       1     SIL   Si2Sm       1       2.1    28.086
   27955      Si       1     SIL   Si2Sn       1       2.1    28.086
   27956      Si       1     SIL   Si2So       1       2.1    28.086
   27957      Ob       1     SIL   O04vX       1     -1.05    15.999
   27958      Ob       1     SIL   O04vY       1     -1.05    15.999
   27959      Ob       1     SIL   O04vZ       1     -1.05    15.999
   27960      Ob       1     SIL   O04va       1     -1.05    15.999
   27961      Ob       1     SIL   O04vb       1     -1.05    15.999
   27962      Ob       1     SIL   O04vc       1     -1.05    15.999
   27963      Si       1     SIL   Si2Sp       1       2.1    28.086
   27964      Si       1     SIL   Si2Sq       1       2.1    28.086
   27965      Si       1     SIL   Si2Sr       1       2.1    28.086
   27966      Ob       1     SIL   O04vd       1     -1.05    15.999
   27967      Ob       1     SIL   O04ve       1     -1.05    15.999
   27968      Ob       1     SIL   O04vf       1     -1.05    15.999
   27969      Ob       1     SIL   O04vg       1     -1.05    15.999
   27970      Ob       1     SIL   O04vh       1     -1.05    15.999
   27971      Ob       1     SIL   O04vi       1     -1.05    15.999
   27972      Si       1     SIL   Si2Ss       1       2.1    28.086
   27973      Si       1     SIL   Si2St       1       2.1    28.086
   27974      Si       1     SIL   Si2Su       1       2.1    28.086
   27975      Ob       1     SIL   O04vj       1     -1.05    15.999
   27976      Ob       1     SIL   O04vk       1     -1.05    15.999
   27977      Ob       1     SIL   O04vl       1     -1.05    15.999
   27978      Ob       1     SIL   O04vm       1     -1.05    15.999
   27979      Ob       1     SIL   O04vn       1     -1.05    15.999
   27980      Ob       1     SIL   O04vo       1     -1.05    15.999
   27981      Si       1     SIL   Si2Sv       1       2.1    28.086
   27982      Si       1     SIL   Si2Sw       1       2.1    28.086
   27983      Si       1     SIL   Si2Sx       1       2.1    28.086
   27984      Ob       1     SIL   O04vp       1     -1.05    15.999
   27985      Ob       1     SIL   O04vq       1     -1.05    15.999
   27986      Ob       1     SIL   O04vr       1     -1.05    15.999
   27987      Ob       1     SIL   O04vs       1     -1.05    15.999
   27988      Ob       1     SIL   O04vt       1     -1.05    15.999
   27989      Ob       1     SIL   O04vu       1     -1.05    15.999
   27990      Si       1     SIL   Si2Sy       1       2.1    28.086
   27991      Si       1     SIL   Si2Sz       1       2.1    28.086
   27992      Si       1     SIL   Si2T0       1       2.1    28.086
   27993      Ob       1     SIL   O04vv       1     -1.05    15.999
   27994      Ob       1     SIL   O04vw       1     -1.05    15.999
   27995      Ob       1     SIL   O04vx       1     -1.05    15.999
   27996      Ob       1     SIL   O04vy       1     -1.05    15.999
   27997      Ob       1     SIL   O04vz       1     -1.05    15.999
   27998      Ob       1     SIL   O04w0       1     -1.05    15.999
   27999      Si       1     SIL   Si2T1       1       2.1    28.086
   28000      Si       1     SIL   Si2T2       1       2.1    28.086
   28001      Si       1     SIL   Si2T3       1       2.1    28.086
   28002      Ob       1     SIL   O04w1       1     -1.05    15.999
   28003      Ob       1     SIL   O04w2       1     -1.05    15.999
   28004      Ob       1     SIL   O04w3       1     -1.05    15.999
   28005      Ob       1     SIL   O04w4       1     -1.05    15.999
   28006      Ob       1     SIL   O04w5       1     -1.05    15.999
   28007      Ob       1     SIL   O04w6       1     -1.05    15.999
   28008      Si       1     SIL   Si2T4       1       2.1    28.086
   28009      Si       1     SIL   Si2T5       1       2.1    28.086
   28010      Si       1     SIL   Si2T6       1       2.1    28.086
   28011      Ob       1     SIL   O04w7       1     -1.05    15.999
   28012      Ob       1     SIL   O04w8       1     -1.05    15.999
   28013      Ob       1     SIL   O04w9       1     -1.05    15.999
   28014      Ob       1     SIL   O04wA       1     -1.05    15.999
   28015      Ob       1     SIL   O04wB       1     -1.05    15.999
   28016      Ob       1     SIL   O04wC       1     -1.05    15.999
   28017      Si       1     SIL   Si2T7       1       2.1    28.086
   28018      Si       1     SIL   Si2T8       1       2.1    28.086
   28019      Si       1     SIL   Si2T9       1       2.1    28.086
   28020      Ob       1     SIL   O04wD       1     -1.05    15.999
   28021      Ob       1     SIL   O04wE       1     -1.05    15.999
   28022      Ob       1     SIL   O04wF       1     -1.05    15.999
   28023      Ob       1     SIL   O04wG       1     -1.05    15.999
   28024      Ob       1     SIL   O04wH       1     -1.05    15.999
   28025      Ob       1     SIL   O04wI       1     -1.05    15.999
   28026      Si       1     SIL   Si2TA       1       2.1    28.086
   28027      Si       1     SIL   Si2TB       1       2.1    28.086
   28028      Si       1     SIL   Si2TC       1       2.1    28.086
   28029      Ob       1     SIL   O04wJ       1     -1.05    15.999
   28030      Ob       1     SIL   O04wK       1     -1.05    15.999
   28031      Ob       1     SIL   O04wL       1     -1.05    15.999
   28032      Ob       1     SIL   O04wM       1     -1.05    15.999
   28033      Ob       1     SIL   O04wN       1     -1.05    15.999
   28034      Ob       1     SIL   O04wO       1     -1.05    15.999
   28035      Si       1     SIL   Si2TD       1       2.1    28.086
   28036      Si       1     SIL   Si2TE       1       2.1    28.086
   28037      Si       1     SIL   Si2TF       1       2.1    28.086
   28038      Ob       1     SIL   O04wP       1     -1.05    15.999
   28039      Ob       1     SIL   O04wQ       1     -1.05    15.999
   28040      Ob       1     SIL   O04wR       1     -1.05    15.999
   28041      Ob       1     SIL   O04wS       1     -1.05    15.999
   28042      Ob       1     SIL   O04wT       1     -1.05    15.999
   28043      Ob       1     SIL   O04wU       1     -1.05    15.999
   28044      Si       1     SIL   Si2TG       1       2.1    28.086
   28045      Si       1     SIL   Si2TH       1       2.1    28.086
   28046      Si       1     SIL   Si2TI       1       2.1    28.086
   28047      Ob       1     SIL   O04wV       1     -1.05    15.999
   28048      Ob       1     SIL   O04wW       1     -1.05    15.999
   28049      Ob       1     SIL   O04wX       1     -1.05    15.999
   28050      Ob       1     SIL   O04wY       1     -1.05    15.999
   28051      Ob       1     SIL   O04wZ       1     -1.05    15.999
   28052      Ob       1     SIL   O04wa       1     -1.05    15.999
   28053      Si       1     SIL   Si2TJ       1       2.1    28.086
   28054      Si       1     SIL   Si2TK       1       2.1    28.086
   28055      Si       1     SIL   Si2TL       1       2.1    28.086
   28056      Ob       1     SIL   O04wb       1     -1.05    15.999
   28057      Ob       1     SIL   O04wc       1     -1.05    15.999
   28058      Ob       1     SIL   O04wd       1     -1.05    15.999
   28059      Ob       1     SIL   O04we       1     -1.05    15.999
   28060      Ob       1     SIL   O04wf       1     -1.05    15.999
   28061      Ob       1     SIL   O04wg       1     -1.05    15.999
   28062      Si       1     SIL   Si2TM       1       2.1    28.086
   28063      Si       1     SIL   Si2TN       1       2.1    28.086
   28064      Si       1     SIL   Si2TO       1       2.1    28.086
   28065      Ob       1     SIL   O04wh       1     -1.05    15.999
   28066      Ob       1     SIL   O04wi       1     -1.05    15.999
   28067      Ob       1     SIL   O04wj       1     -1.05    15.999
   28068      Ob       1     SIL   O04wk       1     -1.05    15.999
   28069      Ob       1     SIL   O04wl       1     -1.05    15.999
   28070      Ob       1     SIL   O04wm       1     -1.05    15.999
   28071      Si       1     SIL   Si2TP       1       2.1    28.086
   28072      Si       1     SIL   Si2TQ       1       2.1    28.086
   28073      Si       1     SIL   Si2TR       1       2.1    28.086
   28074      Ob       1     SIL   O04wn       1     -1.05    15.999
   28075      Ob       1     SIL   O04wo       1     -1.05    15.999
   28076      Ob       1     SIL   O04wp       1     -1.05    15.999
   28077      Ob       1     SIL   O04wq       1     -1.05    15.999
   28078      Ob       1     SIL   O04wr       1     -1.05    15.999
   28079      Ob       1     SIL   O04ws       1     -1.05    15.999
   28080      Si       1     SIL   Si2TS       1       2.1    28.086
   28081      Si       1     SIL   Si2TT       1       2.1    28.086
   28082      Si       1     SIL   Si2TU       1       2.1    28.086
   28083      Ob       1     SIL   O04wt       1     -1.05    15.999
   28084      Ob       1     SIL   O04wu       1     -1.05    15.999
   28085      Ob       1     SIL   O04wv       1     -1.05    15.999
   28086      Ob       1     SIL   O04ww       1     -1.05    15.999
   28087      Ob       1     SIL   O04wx       1     -1.05    15.999
   28088      Ob       1     SIL   O04wy       1     -1.05    15.999
   28089      Si       1     SIL   Si2TV       1       2.1    28.086
   28090      Si       1     SIL   Si2TW       1       2.1    28.086
   28091      Si       1     SIL   Si2TX       1       2.1    28.086
   28092      Ob       1     SIL   O04wz       1     -1.05    15.999
   28093      Ob       1     SIL   O04x0       1     -1.05    15.999
   28094      Ob       1     SIL   O04x1       1     -1.05    15.999
   28095      Ob       1     SIL   O04x2       1     -1.05    15.999
   28096      Ob       1     SIL   O04x3       1     -1.05    15.999
   28097      Ob       1     SIL   O04x4       1     -1.05    15.999
   28098      Si       1     SIL   Si2TY       1       2.1    28.086
   28099      Si       1     SIL   Si2TZ       1       2.1    28.086
   28100      Si       1     SIL   Si2Ta       1       2.1    28.086
   28101      Ob       1     SIL   O04x5       1     -1.05    15.999
   28102       O       1     SIL   O04x6       1    -0.525    15.999
   28103       O       1     SIL   O04x7       1    -0.525    15.999
   28104      Ob       1     SIL   O04x8       1     -1.05    15.999
   28105      Ob       1     SIL   O04x9       1     -1.05    15.999
   28106      Ob       1     SIL   O04xA       1     -1.05    15.999
   28107      Si       1     SIL   Si2Tb       1       2.1    28.086
   28108      Si       1     SIL   Si2Tc       1       2.1    28.086
   28109      Si       1     SIL   Si2Td       1       2.1    28.086
   28110      Ob       1     SIL   O04xB       1     -1.05    15.999
   28111      Ob       1     SIL   O04xC       1     -1.05    15.999
   28112      Ob       1     SIL   O04xD       1     -1.05    15.999
   28113      Ob       1     SIL   O04xE       1     -1.05    15.999
   28114      Ob       1     SIL   O04xF       1     -1.05    15.999
   28115      Ob       1     SIL   O04xG       1     -1.05    15.999
   28116      Si       1     SIL   Si2Te       1       2.1    28.086
   28117      Si       1     SIL   Si2Tf       1       2.1    28.086
   28118      Si       1     SIL   Si2Tg       1       2.1    28.086
   28119      Ob       1     SIL   O04xH       1     -1.05    15.999
   28120      Ob       1     SIL   O04xI       1     -1.05    15.999
   28121      Ob       1     SIL   O04xJ       1     -1.05    15.999
   28122      Ob       1     SIL   O04xK       1     -1.05    15.999
   28123      Ob       1     SIL   O04xL       1     -1.05    15.999
   28124      Ob       1     SIL   O04xM       1     -1.05    15.999
   28125      Si       1     SIL   Si2Th       1       2.1    28.086
   28126      Si       1     SIL   Si2Ti       1       2.1    28.086
   28127      Si       1     SIL   Si2Tj       1       2.1    28.086
   28128      Ob       1     SIL   O04xN       1     -1.05    15.999
   28129      Ob       1     SIL   O04xO       1     -1.05    15.999
   28130      Ob       1     SIL   O04xP       1     -1.05    15.999
   28131      Ob       1     SIL   O04xQ       1     -1.05    15.999
   28132      Ob       1     SIL   O04xR       1     -1.05    15.999
   28133      Ob       1     SIL   O04xS       1     -1.05    15.999
   28134      Si       1     SIL   Si2Tk       1       2.1    28.086
   28135      Si       1     SIL   Si2Tl       1       2.1    28.086
   28136      Si       1     SIL   Si2Tm       1       2.1    28.086
   28137      Ob       1     SIL   O04xT       1     -1.05    15.999
   28138      Ob       1     SIL   O04xU       1     -1.05    15.999
   28139      Ob       1     SIL   O04xV       1     -1.05    15.999
   28140      Ob       1     SIL   O04xW       1     -1.05    15.999
   28141      Ob       1     SIL   O04xX       1     -1.05    15.999
   28142      Ob       1     SIL   O04xY       1     -1.05    15.999
   28143      Si       1     SIL   Si2Tn       1       2.1    28.086
   28144      Si       1     SIL   Si2To       1       2.1    28.086
   28145      Si       1     SIL   Si2Tp       1       2.1    28.086
   28146      Ob       1     SIL   O04xZ       1     -1.05    15.999
   28147      Ob       1     SIL   O04xa       1     -1.05    15.999
   28148      Ob       1     SIL   O04xb       1     -1.05    15.999
   28149      Ob       1     SIL   O04xc       1     -1.05    15.999
   28150      Ob       1     SIL   O04xd       1     -1.05    15.999
   28151      Ob       1     SIL   O04xe       1     -1.05    15.999
   28152      Si       1     SIL   Si2Tq       1       2.1    28.086
   28153      Si       1     SIL   Si2Tr       1       2.1    28.086
   28154      Si       1     SIL   Si2Ts       1       2.1    28.086
   28155      Ob       1     SIL   O04xf       1     -1.05    15.999
   28156      Ob       1     SIL   O04xg       1     -1.05    15.999
   28157      Ob       1     SIL   O04xh       1     -1.05    15.999
   28158      Ob       1     SIL   O04xi       1     -1.05    15.999
   28159      Ob       1     SIL   O04xj       1     -1.05    15.999
   28160      Ob       1     SIL   O04xk       1     -1.05    15.999
   28161      Si       1     SIL   Si2Tt       1       2.1    28.086
   28162      Si       1     SIL   Si2Tu       1       2.1    28.086
   28163      Si       1     SIL   Si2Tv       1       2.1    28.086
   28164      Ob       1     SIL   O04xl       1     -1.05    15.999
   28165      Ob       1     SIL   O04xm       1     -1.05    15.999
   28166      Ob       1     SIL   O04xn       1     -1.05    15.999
   28167      Ob       1     SIL   O04xo       1     -1.05    15.999
   28168      Ob       1     SIL   O04xp       1     -1.05    15.999
   28169      Ob       1     SIL   O04xq       1     -1.05    15.999
   28170      Si       1     SIL   Si2Tw       1       2.1    28.086
   28171      Si       1     SIL   Si2Tx       1       2.1    28.086
   28172      Si       1     SIL   Si2Ty       1       2.1    28.086
   28173      Ob       1     SIL   O04xr       1     -1.05    15.999
   28174      Ob       1     SIL   O04xs       1     -1.05    15.999
   28175      Ob       1     SIL   O04xt       1     -1.05    15.999
   28176      Ob       1     SIL   O04xu       1     -1.05    15.999
   28177      Ob       1     SIL   O04xv       1     -1.05    15.999
   28178      Ob       1     SIL   O04xw       1     -1.05    15.999
   28179      Si       1     SIL   Si2Tz       1       2.1    28.086
   28180      Si       1     SIL   Si2U0       1       2.1    28.086
   28181      Si       1     SIL   Si2U1       1       2.1    28.086
   28182      Ob       1     SIL   O04xx       1     -1.05    15.999
   28183      Ob       1     SIL   O04xy       1     -1.05    15.999
   28184      Ob       1     SIL   O04xz       1     -1.05    15.999
   28185      Ob       1     SIL   O04y0       1     -1.05    15.999
   28186      Ob       1     SIL   O04y1       1     -1.05    15.999
   28187      Ob       1     SIL   O04y2       1     -1.05    15.999
   28188      Si       1     SIL   Si2U2       1       2.1    28.086
   28189      Si       1     SIL   Si2U3       1       2.1    28.086
   28190      Si       1     SIL   Si2U4       1       2.1    28.086
   28191      Ob       1     SIL   O04y3       1     -1.05    15.999
   28192      Ob       1     SIL   O04y4       1     -1.05    15.999
   28193      Ob       1     SIL   O04y5       1     -1.05    15.999
   28194      Ob       1     SIL   O04y6       1     -1.05    15.999
   28195      Ob       1     SIL   O04y7       1     -1.05    15.999
   28196      Ob       1     SIL   O04y8       1     -1.05    15.999
   28197      Si       1     SIL   Si2U5       1       2.1    28.086
   28198      Si       1     SIL   Si2U6       1       2.1    28.086
   28199      Si       1     SIL   Si2U7       1       2.1    28.086
   28200      Ob       1     SIL   O04y9       1     -1.05    15.999
   28201      Ob       1     SIL   O04yA       1     -1.05    15.999
   28202      Ob       1     SIL   O04yB       1     -1.05    15.999
   28203      Ob       1     SIL   O04yC       1     -1.05    15.999
   28204      Ob       1     SIL   O04yD       1     -1.05    15.999
   28205      Ob       1     SIL   O04yE       1     -1.05    15.999
   28206      Si       1     SIL   Si2U8       1       2.1    28.086
   28207      Si       1     SIL   Si2U9       1       2.1    28.086
   28208      Si       1     SIL   Si2UA       1       2.1    28.086
   28209      Ob       1     SIL   O04yF       1     -1.05    15.999
   28210      Ob       1     SIL   O04yG       1     -1.05    15.999
   28211      Ob       1     SIL   O04yH       1     -1.05    15.999
   28212      Ob       1     SIL   O04yI       1     -1.05    15.999
   28213      Ob       1     SIL   O04yJ       1     -1.05    15.999
   28214      Ob       1     SIL   O04yK       1     -1.05    15.999
   28215      Si       1     SIL   Si2UB       1       2.1    28.086
   28216      Si       1     SIL   Si2UC       1       2.1    28.086
   28217      Si       1     SIL   Si2UD       1       2.1    28.086
   28218      Ob       1     SIL   O04yL       1     -1.05    15.999
   28219      Ob       1     SIL   O04yM       1     -1.05    15.999
   28220      Ob       1     SIL   O04yN       1     -1.05    15.999
   28221      Ob       1     SIL   O04yO       1     -1.05    15.999
   28222      Ob       1     SIL   O04yP       1     -1.05    15.999
   28223      Ob       1     SIL   O04yQ       1     -1.05    15.999
   28224      Si       1     SIL   Si2UE       1       2.1    28.086
   28225      Si       1     SIL   Si2UF       1       2.1    28.086
   28226      Si       1     SIL   Si2UG       1       2.1    28.086
   28227      Ob       1     SIL   O04yR       1     -1.05    15.999
   28228      Ob       1     SIL   O04yS       1     -1.05    15.999
   28229      Ob       1     SIL   O04yT       1     -1.05    15.999
   28230      Ob       1     SIL   O04yU       1     -1.05    15.999
   28231      Ob       1     SIL   O04yV       1     -1.05    15.999
   28232      Ob       1     SIL   O04yW       1     -1.05    15.999
   28233      Si       1     SIL   Si2UH       1       2.1    28.086
   28234      Si       1     SIL   Si2UI       1       2.1    28.086
   28235      Si       1     SIL   Si2UJ       1       2.1    28.086
   28236      Ob       1     SIL   O04yX       1     -1.05    15.999
   28237      Ob       1     SIL   O04yY       1     -1.05    15.999
   28238      Ob       1     SIL   O04yZ       1     -1.05    15.999
   28239      Ob       1     SIL   O04ya       1     -1.05    15.999
   28240      Ob       1     SIL   O04yb       1     -1.05    15.999
   28241      Ob       1     SIL   O04yc       1     -1.05    15.999
   28242      Si       1     SIL   Si2UK       1       2.1    28.086
   28243      Si       1     SIL   Si2UL       1       2.1    28.086
   28244      Si       1     SIL   Si2UM       1       2.1    28.086
   28245      Ob       1     SIL   O04yd       1     -1.05    15.999
   28246      Ob       1     SIL   O04ye       1     -1.05    15.999
   28247      Ob       1     SIL   O04yf       1     -1.05    15.999
   28248      Ob       1     SIL   O04yg       1     -1.05    15.999
   28249      Ob       1     SIL   O04yh       1     -1.05    15.999
   28250      Ob       1     SIL   O04yi       1     -1.05    15.999
   28251      Si       1     SIL   Si2UN       1       2.1    28.086
   28252      Si       1     SIL   Si2UO       1       2.1    28.086
   28253      Si       1     SIL   Si2UP       1       2.1    28.086
   28254      Ob       1     SIL   O04yj       1     -1.05    15.999
   28255      Ob       1     SIL   O04yk       1     -1.05    15.999
   28256      Ob       1     SIL   O04yl       1     -1.05    15.999
   28257      Ob       1     SIL   O04ym       1     -1.05    15.999
   28258      Ob       1     SIL   O04yn       1     -1.05    15.999
   28259      Ob       1     SIL   O04yo       1     -1.05    15.999
   28260      Si       1     SIL   Si2UQ       1       2.1    28.086
   28261      Si       1     SIL   Si2UR       1       2.1    28.086
   28262      Si       1     SIL   Si2US       1       2.1    28.086
   28263      Ob       1     SIL   O04yp       1     -1.05    15.999
   28264      Ob       1     SIL   O04yq       1     -1.05    15.999
   28265      Ob       1     SIL   O04yr       1     -1.05    15.999
   28266      Ob       1     SIL   O04ys       1     -1.05    15.999
   28267      Ob       1     SIL   O04yt       1     -1.05    15.999
   28268      Ob       1     SIL   O04yu       1     -1.05    15.999
   28269      Si       1     SIL   Si2UT       1       2.1    28.086
   28270      Si       1     SIL   Si2UU       1       2.1    28.086
   28271      Si       1     SIL   Si2UV       1       2.1    28.086
   28272      Ob       1     SIL   O04yv       1     -1.05    15.999
   28273      Ob       1     SIL   O04yw       1     -1.05    15.999
   28274      Ob       1     SIL   O04yx       1     -1.05    15.999
   28275      Ob       1     SIL   O04yy       1     -1.05    15.999
   28276      Ob       1     SIL   O04yz       1     -1.05    15.999
   28277      Ob       1     SIL   O04z0       1     -1.05    15.999
   28278      Si       1     SIL   Si2UW       1       2.1    28.086
   28279      Si       1     SIL   Si2UX       1       2.1    28.086
   28280      Si       1     SIL   Si2UY       1       2.1    28.086
   28281      Ob       1     SIL   O04z1       1     -1.05    15.999
   28282      Ob       1     SIL   O04z2       1     -1.05    15.999
   28283      Ob       1     SIL   O04z3       1     -1.05    15.999
   28284      Ob       1     SIL   O04z4       1     -1.05    15.999
   28285      Ob       1     SIL   O04z5       1     -1.05    15.999
   28286      Ob       1     SIL   O04z6       1     -1.05    15.999
   28287      Si       1     SIL   Si2UZ       1       2.1    28.086
   28288      Si       1     SIL   Si2Ua       1       2.1    28.086
   28289      Si       1     SIL   Si2Ub       1       2.1    28.086
   28290      Ob       1     SIL   O04z7       1     -1.05    15.999
   28291      Ob       1     SIL   O04z8       1     -1.05    15.999
   28292      Ob       1     SIL   O04z9       1     -1.05    15.999
   28293      Ob       1     SIL   O04zA       1     -1.05    15.999
   28294      Ob       1     SIL   O04zB       1     -1.05    15.999
   28295      Ob       1     SIL   O04zC       1     -1.05    15.999
   28296      Si       1     SIL   Si2Uc       1       2.1    28.086
   28297      Si       1     SIL   Si2Ud       1       2.1    28.086
   28298      Si       1     SIL   Si2Ue       1       2.1    28.086
   28299      Ob       1     SIL   O04zD       1     -1.05    15.999
   28300      Ob       1     SIL   O04zE       1     -1.05    15.999
   28301      Ob       1     SIL   O04zF       1     -1.05    15.999
   28302      Ob       1     SIL   O04zG       1     -1.05    15.999
   28303      Ob       1     SIL   O04zH       1     -1.05    15.999
   28304      Ob       1     SIL   O04zI       1     -1.05    15.999
   28305      Si       1     SIL   Si2Uf       1       2.1    28.086
   28306      Si       1     SIL   Si2Ug       1       2.1    28.086
   28307      Si       1     SIL   Si2Uh       1       2.1    28.086
   28308      Ob       1     SIL   O04zJ       1     -1.05    15.999
   28309       O       1     SIL   O04zK       1    -0.525    15.999
   28310       O       1     SIL   O04zL       1    -0.525    15.999
   28311      Ob       1     SIL   O04zM       1     -1.05    15.999
   28312      Ob       1     SIL   O04zN       1     -1.05    15.999
   28313      Ob       1     SIL   O04zO       1     -1.05    15.999
   28314      Si       1     SIL   Si2Ui       1       2.1    28.086
   28315      Si       1     SIL   Si2Uj       1       2.1    28.086
   28316      Si       1     SIL   Si2Uk       1       2.1    28.086
   28317      Ob       1     SIL   O04zP       1     -1.05    15.999
   28318      Ob       1     SIL   O04zQ       1     -1.05    15.999
   28319      Ob       1     SIL   O04zR       1     -1.05    15.999
   28320      Ob       1     SIL   O04zS       1     -1.05    15.999
   28321      Ob       1     SIL   O04zT       1     -1.05    15.999
   28322      Ob       1     SIL   O04zU       1     -1.05    15.999
   28323      Si       1     SIL   Si2Ul       1       2.1    28.086
   28324      Si       1     SIL   Si2Um       1       2.1    28.086
   28325      Si       1     SIL   Si2Un       1       2.1    28.086
   28326      Ob       1     SIL   O04zV       1     -1.05    15.999
   28327      Ob       1     SIL   O04zW       1     -1.05    15.999
   28328      Ob       1     SIL   O04zX       1     -1.05    15.999
   28329      Ob       1     SIL   O04zY       1     -1.05    15.999
   28330      Ob       1     SIL   O04zZ       1     -1.05    15.999
   28331      Ob       1     SIL   O04za       1     -1.05    15.999
   28332      Si       1     SIL   Si2Uo       1       2.1    28.086
   28333      Si       1     SIL   Si2Up       1       2.1    28.086
   28334      Si       1     SIL   Si2Uq       1       2.1    28.086
   28335      Ob       1     SIL   O04zb       1     -1.05    15.999
   28336      Ob       1     SIL   O04zc       1     -1.05    15.999
   28337      Ob       1     SIL   O04zd       1     -1.05    15.999
   28338      Ob       1     SIL   O04ze       1     -1.05    15.999
   28339      Ob       1     SIL   O04zf       1     -1.05    15.999
   28340      Ob       1     SIL   O04zg       1     -1.05    15.999
   28341      Si       1     SIL   Si2Ur       1       2.1    28.086
   28342      Si       1     SIL   Si2Us       1       2.1    28.086
   28343      Si       1     SIL   Si2Ut       1       2.1    28.086
   28344      Ob       1     SIL   O04zh       1     -1.05    15.999
   28345      Ob       1     SIL   O04zi       1     -1.05    15.999
   28346      Ob       1     SIL   O04zj       1     -1.05    15.999
   28347      Ob       1     SIL   O04zk       1     -1.05    15.999
   28348      Ob       1     SIL   O04zl       1     -1.05    15.999
   28349      Ob       1     SIL   O04zm       1     -1.05    15.999
   28350      Si       1     SIL   Si2Uu       1       2.1    28.086
   28351      Si       1     SIL   Si2Uv       1       2.1    28.086
   28352      Si       1     SIL   Si2Uw       1       2.1    28.086
   28353      Ob       1     SIL   O04zn       1     -1.05    15.999
   28354      Ob       1     SIL   O04zo       1     -1.05    15.999
   28355      Ob       1     SIL   O04zp       1     -1.05    15.999
   28356      Ob       1     SIL   O04zq       1     -1.05    15.999
   28357      Ob       1     SIL   O04zr       1     -1.05    15.999
   28358      Ob       1     SIL   O04zs       1     -1.05    15.999
   28359      Si       1     SIL   Si2Ux       1       2.1    28.086
   28360      Si       1     SIL   Si2Uy       1       2.1    28.086
   28361      Si       1     SIL   Si2Uz       1       2.1    28.086
   28362      Ob       1     SIL   O04zt       1     -1.05    15.999
   28363      Ob       1     SIL   O04zu       1     -1.05    15.999
   28364      Ob       1     SIL   O04zv       1     -1.05    15.999
   28365      Ob       1     SIL   O04zw       1     -1.05    15.999
   28366      Ob       1     SIL   O04zx       1     -1.05    15.999
   28367      Ob       1     SIL   O04zy       1     -1.05    15.999
   28368      Si       1     SIL   Si2V0       1       2.1    28.086
   28369      Si       1     SIL   Si2V1       1       2.1    28.086
   28370      Si       1     SIL   Si2V2       1       2.1    28.086
   28371      Ob       1     SIL   O04zz       1     -1.05    15.999
   28372      Ob       1     SIL   O0500       1     -1.05    15.999
   28373      Ob       1     SIL   O0501       1     -1.05    15.999
   28374      Ob       1     SIL   O0502       1     -1.05    15.999
   28375      Ob       1     SIL   O0503       1     -1.05    15.999
   28376      Ob       1     SIL   O0504       1     -1.05    15.999
   28377      Si       1     SIL   Si2V3       1       2.1    28.086
   28378      Si       1     SIL   Si2V4       1       2.1    28.086
   28379      Si       1     SIL   Si2V5       1       2.1    28.086
   28380      Ob       1     SIL   O0505       1     -1.05    15.999
   28381      Ob       1     SIL   O0506       1     -1.05    15.999
   28382      Ob       1     SIL   O0507       1     -1.05    15.999
   28383      Ob       1     SIL   O0508       1     -1.05    15.999
   28384      Ob       1     SIL   O0509       1     -1.05    15.999
   28385      Ob       1     SIL   O050A       1     -1.05    15.999
   28386      Si       1     SIL   Si2V6       1       2.1    28.086
   28387      Si       1     SIL   Si2V7       1       2.1    28.086
   28388      Si       1     SIL   Si2V8       1       2.1    28.086
   28389      Ob       1     SIL   O050B       1     -1.05    15.999
   28390      Ob       1     SIL   O050C       1     -1.05    15.999
   28391      Ob       1     SIL   O050D       1     -1.05    15.999
   28392      Ob       1     SIL   O050E       1     -1.05    15.999
   28393      Ob       1     SIL   O050F       1     -1.05    15.999
   28394      Ob       1     SIL   O050G       1     -1.05    15.999
   28395      Si       1     SIL   Si2V9       1       2.1    28.086
   28396      Si       1     SIL   Si2VA       1       2.1    28.086
   28397      Si       1     SIL   Si2VB       1       2.1    28.086
   28398      Ob       1     SIL   O050H       1     -1.05    15.999
   28399      Ob       1     SIL   O050I       1     -1.05    15.999
   28400      Ob       1     SIL   O050J       1     -1.05    15.999
   28401      Ob       1     SIL   O050K       1     -1.05    15.999
   28402      Ob       1     SIL   O050L       1     -1.05    15.999
   28403      Ob       1     SIL   O050M       1     -1.05    15.999
   28404      Si       1     SIL   Si2VC       1       2.1    28.086
   28405      Si       1     SIL   Si2VD       1       2.1    28.086
   28406      Si       1     SIL   Si2VE       1       2.1    28.086
   28407      Ob       1     SIL   O050N       1     -1.05    15.999
   28408      Ob       1     SIL   O050O       1     -1.05    15.999
   28409      Ob       1     SIL   O050P       1     -1.05    15.999
   28410      Ob       1     SIL   O050Q       1     -1.05    15.999
   28411      Ob       1     SIL   O050R       1     -1.05    15.999
   28412      Ob       1     SIL   O050S       1     -1.05    15.999
   28413      Si       1     SIL   Si2VF       1       2.1    28.086
   28414      Si       1     SIL   Si2VG       1       2.1    28.086
   28415      Si       1     SIL   Si2VH       1       2.1    28.086
   28416      Ob       1     SIL   O050T       1     -1.05    15.999
   28417      Ob       1     SIL   O050U       1     -1.05    15.999
   28418      Ob       1     SIL   O050V       1     -1.05    15.999
   28419      Ob       1     SIL   O050W       1     -1.05    15.999
   28420      Ob       1     SIL   O050X       1     -1.05    15.999
   28421      Ob       1     SIL   O050Y       1     -1.05    15.999
   28422      Si       1     SIL   Si2VI       1       2.1    28.086
   28423      Si       1     SIL   Si2VJ       1       2.1    28.086
   28424      Si       1     SIL   Si2VK       1       2.1    28.086
   28425      Ob       1     SIL   O050Z       1     -1.05    15.999
   28426      Ob       1     SIL   O050a       1     -1.05    15.999
   28427      Ob       1     SIL   O050b       1     -1.05    15.999
   28428      Ob       1     SIL   O050c       1     -1.05    15.999
   28429      Ob       1     SIL   O050d       1     -1.05    15.999
   28430      Ob       1     SIL   O050e       1     -1.05    15.999
   28431      Si       1     SIL   Si2VL       1       2.1    28.086
   28432      Si       1     SIL   Si2VM       1       2.1    28.086
   28433      Si       1     SIL   Si2VN       1       2.1    28.086
   28434      Ob       1     SIL   O050f       1     -1.05    15.999
   28435      Ob       1     SIL   O050g       1     -1.05    15.999
   28436      Ob       1     SIL   O050h       1     -1.05    15.999
   28437      Ob       1     SIL   O050i       1     -1.05    15.999
   28438      Ob       1     SIL   O050j       1     -1.05    15.999
   28439      Ob       1     SIL   O050k       1     -1.05    15.999
   28440      Si       1     SIL   Si2VO       1       2.1    28.086
   28441      Si       1     SIL   Si2VP       1       2.1    28.086
   28442      Si       1     SIL   Si2VQ       1       2.1    28.086
   28443      Ob       1     SIL   O050l       1     -1.05    15.999
   28444      Ob       1     SIL   O050m       1     -1.05    15.999
   28445      Ob       1     SIL   O050n       1     -1.05    15.999
   28446      Ob       1     SIL   O050o       1     -1.05    15.999
   28447      Ob       1     SIL   O050p       1     -1.05    15.999
   28448      Ob       1     SIL   O050q       1     -1.05    15.999
   28449      Si       1     SIL   Si2VR       1       2.1    28.086
   28450      Si       1     SIL   Si2VS       1       2.1    28.086
   28451      Si       1     SIL   Si2VT       1       2.1    28.086
   28452      Ob       1     SIL   O050r       1     -1.05    15.999
   28453      Ob       1     SIL   O050s       1     -1.05    15.999
   28454      Ob       1     SIL   O050t       1     -1.05    15.999
   28455      Ob       1     SIL   O050u       1     -1.05    15.999
   28456      Ob       1     SIL   O050v       1     -1.05    15.999
   28457      Ob       1     SIL   O050w       1     -1.05    15.999
   28458      Si       1     SIL   Si2VU       1       2.1    28.086
   28459      Si       1     SIL   Si2VV       1       2.1    28.086
   28460      Si       1     SIL   Si2VW       1       2.1    28.086
   28461      Ob       1     SIL   O050x       1     -1.05    15.999
   28462      Ob       1     SIL   O050y       1     -1.05    15.999
   28463      Ob       1     SIL   O050z       1     -1.05    15.999
   28464      Ob       1     SIL   O0510       1     -1.05    15.999
   28465      Ob       1     SIL   O0511       1     -1.05    15.999
   28466      Ob       1     SIL   O0512       1     -1.05    15.999
   28467      Si       1     SIL   Si2VX       1       2.1    28.086
   28468      Si       1     SIL   Si2VY       1       2.1    28.086
   28469      Si       1     SIL   Si2VZ       1       2.1    28.086
   28470      Ob       1     SIL   O0513       1     -1.05    15.999
   28471      Ob       1     SIL   O0514       1     -1.05    15.999
   28472      Ob       1     SIL   O0515       1     -1.05    15.999
   28473      Ob       1     SIL   O0516       1     -1.05    15.999
   28474      Ob       1     SIL   O0517       1     -1.05    15.999
   28475      Ob       1     SIL   O0518       1     -1.05    15.999
   28476      Si       1     SIL   Si2Va       1       2.1    28.086
   28477      Si       1     SIL   Si2Vb       1       2.1    28.086
   28478      Si       1     SIL   Si2Vc       1       2.1    28.086
   28479      Ob       1     SIL   O0519       1     -1.05    15.999
   28480      Ob       1     SIL   O051A       1     -1.05    15.999
   28481      Ob       1     SIL   O051B       1     -1.05    15.999
   28482      Ob       1     SIL   O051C       1     -1.05    15.999
   28483      Ob       1     SIL   O051D       1     -1.05    15.999
   28484      Ob       1     SIL   O051E       1     -1.05    15.999
   28485      Si       1     SIL   Si2Vd       1       2.1    28.086
   28486      Si       1     SIL   Si2Ve       1       2.1    28.086
   28487      Si       1     SIL   Si2Vf       1       2.1    28.086
   28488      Ob       1     SIL   O051F       1     -1.05    15.999
   28489      Ob       1     SIL   O051G       1     -1.05    15.999
   28490      Ob       1     SIL   O051H       1     -1.05    15.999
   28491      Ob       1     SIL   O051I       1     -1.05    15.999
   28492      Ob       1     SIL   O051J       1     -1.05    15.999
   28493      Ob       1     SIL   O051K       1     -1.05    15.999
   28494      Si       1     SIL   Si2Vg       1       2.1    28.086
   28495      Si       1     SIL   Si2Vh       1       2.1    28.086
   28496      Si       1     SIL   Si2Vi       1       2.1    28.086
   28497      Ob       1     SIL   O051L       1     -1.05    15.999
   28498      Ob       1     SIL   O051M       1     -1.05    15.999
   28499      Ob       1     SIL   O051N       1     -1.05    15.999
   28500      Ob       1     SIL   O051O       1     -1.05    15.999
   28501      Ob       1     SIL   O051P       1     -1.05    15.999
   28502      Ob       1     SIL   O051Q       1     -1.05    15.999
   28503      Si       1     SIL   Si2Vj       1       2.1    28.086
   28504      Si       1     SIL   Si2Vk       1       2.1    28.086
   28505      Si       1     SIL   Si2Vl       1       2.1    28.086
   28506      Ob       1     SIL   O051R       1     -1.05    15.999
   28507      Ob       1     SIL   O051S       1     -1.05    15.999
   28508      Ob       1     SIL   O051T       1     -1.05    15.999
   28509      Ob       1     SIL   O051U       1     -1.05    15.999
   28510      Ob       1     SIL   O051V       1     -1.05    15.999
   28511      Ob       1     SIL   O051W       1     -1.05    15.999
   28512      Si       1     SIL   Si2Vm       1       2.1    28.086
   28513      Si       1     SIL   Si2Vn       1       2.1    28.086
   28514      Si       1     SIL   Si2Vo       1       2.1    28.086
   28515      Ob       1     SIL   O051X       1     -1.05    15.999
   28516       O       1     SIL   O051Y       1    -0.525    15.999
   28517       O       1     SIL   O051Z       1    -0.525    15.999
   28518      Ob       1     SIL   O051a       1     -1.05    15.999
   28519      Ob       1     SIL   O051b       1     -1.05    15.999
   28520      Ob       1     SIL   O051c       1     -1.05    15.999
   28521       H       1     SIL   H0000       1     0.425     1.008
   28522       H       1     SIL   H0001       1     0.425     1.008
   28523       H       1     SIL   H0002       1     0.425     1.008
   28524       H       1     SIL   H0003       1     0.425     1.008
   28525       H       1     SIL   H0004       1     0.425     1.008
   28526       H       1     SIL   H0005       1     0.425     1.008
   28527       H       1     SIL   H0006       1     0.425     1.008
   28528       H       1     SIL   H0007       1     0.425     1.008
   28529       H       1     SIL   H0008       1     0.425     1.008
   28530       H       1     SIL   H0009       1     0.425     1.008
   28531       H       1     SIL   H000A       1     0.425     1.008
   28532       H       1     SIL   H000B       1     0.425     1.008
   28533       H       1     SIL   H000C       1     0.425     1.008
   28534       H       1     SIL   H000D       1     0.425     1.008
   28535       H       1     SIL   H000E       1     0.425     1.008
   28536       H       1     SIL   H000F       1     0.425     1.008
   28537       H       1     SIL   H000G       1     0.425     1.008
   28538       H       1     SIL   H000H       1     0.425     1.008
   28539       H       1     SIL   H000I       1     0.425     1.008
   28540       H       1     SIL   H000J       1     0.425     1.008
   28541       H       1     SIL   H000K       1     0.425     1.008
   28542       H       1     SIL   H000L       1     0.425     1.008
   28543       H       1     SIL   H000M       1     0.425     1.008
   28544       H       1     SIL   H000N       1     0.425     1.008
   28545       H       1     SIL   H000O       1     0.425     1.008
   28546       H       1     SIL   H000P       1     0.425     1.008
   28547       H       1     SIL   H000Q       1     0.425     1.008
   28548       H       1     SIL   H000R       1     0.425     1.008
   28549       H       1     SIL   H000S       1     0.425     1.008
   28550       H       1     SIL   H000T       1     0.425     1.008
   28551       H       1     SIL   H000U       1     0.425     1.008
   28552       H       1     SIL   H000V       1     0.425     1.008
   28553       H       1     SIL   H000W       1     0.425     1.008
   28554       H       1     SIL   H000X       1     0.425     1.008
   28555       H       1     SIL   H000Y       1     0.425     1.008
   28556       H       1     SIL   H000Z       1     0.425     1.008
   28557       H       1     SIL   H000a       1     0.425     1.008
   28558       H       1     SIL   H000b       1     0.425     1.008
   28559       H       1     SIL   H000c       1     0.425     1.008
   28560       H       1     SIL   H000d       1     0.425     1.008
   28561       H       1     SIL   H000e       1     0.425     1.008
   28562       H       1     SIL   H000f       1     0.425     1.008
   28563       H       1     SIL   H000g       1     0.425     1.008
   28564       H       1     SIL   H000h       1     0.425     1.008
   28565       H       1     SIL   H000i       1     0.425     1.008
   28566       H       1     SIL   H000j       1     0.425     1.008
   28567       H       1     SIL   H000k       1     0.425     1.008
   28568       H       1     SIL   H000l       1     0.425     1.008
   28569       H       1     SIL   H000m       1     0.425     1.008
   28570       H       1     SIL   H000n       1     0.425     1.008
   28571       H       1     SIL   H000o       1     0.425     1.008
   28572       H       1     SIL   H000p       1     0.425     1.008
   28573       H       1     SIL   H000q       1     0.425     1.008
   28574       H       1     SIL   H000r       1     0.425     1.008
   28575       H       1     SIL   H000s       1     0.425     1.008
   28576       H       1     SIL   H000t       1     0.425     1.008
   28577       H       1     SIL   H000u       1     0.425     1.008
   28578       H       1     SIL   H000v       1     0.425     1.008
   28579       H       1     SIL   H000w       1     0.425     1.008
   28580       H       1     SIL   H000x       1     0.425     1.008
   28581       H       1     SIL   H000y       1     0.425     1.008
   28582       H       1     SIL   H000z       1     0.425     1.008
   28583       H       1     SIL   H0010       1     0.425     1.008
   28584       H       1     SIL   H0011       1     0.425     1.008
   28585       H       1     SIL   H0012       1     0.425     1.008
   28586       H       1     SIL   H0013       1     0.425     1.008
   28587       H       1     SIL   H0014       1     0.425     1.008
   28588       H       1     SIL   H0015       1     0.425     1.008
   28589       H       1     SIL   H0016       1     0.425     1.008
   28590       H       1     SIL   H0017       1     0.425     1.008
   28591       H       1     SIL   H0018       1     0.425     1.008
   28592       H       1     SIL   H0019       1     0.425     1.008
   28593       H       1     SIL   H001A       1     0.425     1.008
   28594       H       1     SIL   H001B       1     0.425     1.008
   28595       H       1     SIL   H001C       1     0.425     1.008
   28596       H       1     SIL   H001D       1     0.425     1.008
   28597       H       1     SIL   H001E       1     0.425     1.008
   28598       H       1     SIL   H001F       1     0.425     1.008
   28599       H       1     SIL   H001G       1     0.425     1.008
   28600       H       1     SIL   H001H       1     0.425     1.008
   28601       H       1     SIL   H001I       1     0.425     1.008
   28602       H       1     SIL   H001J       1     0.425     1.008
   28603       H       1     SIL   H001K       1     0.425     1.008
   28604       H       1     SIL   H001L       1     0.425     1.008
   28605       H       1     SIL   H001M       1     0.425     1.008
   28606       H       1     SIL   H001N       1     0.425     1.008
   28607       H       1     SIL   H001O       1     0.425     1.008
   28608       H       1     SIL   H001P       1     0.425     1.008
   28609       H       1     SIL   H001Q       1     0.425     1.008
   28610       H       1     SIL   H001R       1     0.425     1.008
   28611       H       1     SIL   H001S       1     0.425     1.008
   28612       H       1     SIL   H001T       1     0.425     1.008
   28613       H       1     SIL   H001U       1     0.425     1.008
   28614       H       1     SIL   H001V       1     0.425     1.008
   28615       H       1     SIL   H001W       1     0.425     1.008
   28616       H       1     SIL   H001X       1     0.425     1.008
   28617       H       1     SIL   H001Y       1     0.425     1.008
   28618       H       1     SIL   H001Z       1     0.425     1.008
   28619       H       1     SIL   H001a       1     0.425     1.008
   28620       H       1     SIL   H001b       1     0.425     1.008
   28621       H       1     SIL   H001c       1     0.425     1.008
   28622       H       1     SIL   H001d       1     0.425     1.008
   28623       H       1     SIL   H001e       1     0.425     1.008
   28624       H       1     SIL   H001f       1     0.425     1.008
   28625       H       1     SIL   H001g       1     0.425     1.008
   28626       H       1     SIL   H001h       1     0.425     1.008
   28627       H       1     SIL   H001i       1     0.425     1.008
   28628       H       1     SIL   H001j       1     0.425     1.008
   28629       H       1     SIL   H001k       1     0.425     1.008
   28630       H       1     SIL   H001l       1     0.425     1.008
   28631       H       1     SIL   H001m       1     0.425     1.008
   28632       H       1     SIL   H001n       1     0.425     1.008
   28633       H       1     SIL   H001o       1     0.425     1.008
   28634       H       1     SIL   H001p       1     0.425     1.008
   28635       H       1     SIL   H001q       1     0.425     1.008
   28636       H       1     SIL   H001r       1     0.425     1.008
   28637       H       1     SIL   H001s       1     0.425     1.008
   28638       H       1     SIL   H001t       1     0.425     1.008
   28639       H       1     SIL   H001u       1     0.425     1.008
   28640       H       1     SIL   H001v       1     0.425     1.008
   28641       H       1     SIL   H001w       1     0.425     1.008
   28642       H       1     SIL   H001x       1     0.425     1.008
   28643       H       1     SIL   H001y       1     0.425     1.008
   28644       H       1     SIL   H001z       1     0.425     1.008
   28645       H       1     SIL   H0020       1     0.425     1.008
   28646       H       1     SIL   H0021       1     0.425     1.008
   28647       H       1     SIL   H0022       1     0.425     1.008
   28648       H       1     SIL   H0023       1     0.425     1.008
   28649       H       1     SIL   H0024       1     0.425     1.008
   28650       H       1     SIL   H0025       1     0.425     1.008
   28651       H       1     SIL   H0026       1     0.425     1.008
   28652       H       1     SIL   H0027       1     0.425     1.008
   28653       H       1     SIL   H0028       1     0.425     1.008
   28654       H       1     SIL   H0029       1     0.425     1.008
   28655       H       1     SIL   H002A       1     0.425     1.008
   28656       H       1     SIL   H002B       1     0.425     1.008
   28657       H       1     SIL   H002C       1     0.425     1.008
   28658       H       1     SIL   H002D       1     0.425     1.008
   28659       H       1     SIL   H002E       1     0.425     1.008
   28660       H       1     SIL   H002F       1     0.425     1.008
   28661       H       1     SIL   H002G       1     0.425     1.008
   28662       H       1     SIL   H002H       1     0.425     1.008
   28663       H       1     SIL   H002I       1     0.425     1.008
   28664       H       1     SIL   H002J       1     0.425     1.008
   28665       H       1     SIL   H002K       1     0.425     1.008
   28666       H       1     SIL   H002L       1     0.425     1.008
   28667       H       1     SIL   H002M       1     0.425     1.008
   28668       H       1     SIL   H002N       1     0.425     1.008
   28669       H       1     SIL   H002O       1     0.425     1.008
   28670       H       1     SIL   H002P       1     0.425     1.008
   28671       H       1     SIL   H002Q       1     0.425     1.008
   28672       H       1     SIL   H002R       1     0.425     1.008
   28673       H       1     SIL   H002S       1     0.425     1.008
   28674       H       1     SIL   H002T       1     0.425     1.008
   28675       H       1     SIL   H002U       1     0.425     1.008
   28676       H       1     SIL   H002V       1     0.425     1.008
   28677       H       1     SIL   H002W       1     0.425     1.008
   28678       H       1     SIL   H002X       1     0.425     1.008
   28679       H       1     SIL   H002Y       1     0.425     1.008
   28680       H       1     SIL   H002Z       1     0.425     1.008
   28681       H       1     SIL   H002a       1     0.425     1.008
   28682       H       1     SIL   H002b       1     0.425     1.008
   28683       H       1     SIL   H002c       1     0.425     1.008
   28684       H       1     SIL   H002d       1     0.425     1.008
   28685       H       1     SIL   H002e       1     0.425     1.008
   28686       H       1     SIL   H002f       1     0.425     1.008
   28687       H       1     SIL   H002g       1     0.425     1.008
   28688       H       1     SIL   H002h       1     0.425     1.008
   28689       H       1     SIL   H002i       1     0.425     1.008
   28690       H       1     SIL   H002j       1     0.425     1.008
   28691       H       1     SIL   H002k       1     0.425     1.008
   28692       H       1     SIL   H002l       1     0.425     1.008
   28693       H       1     SIL   H002m       1     0.425     1.008
   28694       H       1     SIL   H002n       1     0.425     1.008
   28695       H       1     SIL   H002o       1     0.425     1.008
   28696       H       1     SIL   H002p       1     0.425     1.008
   28697       H       1     SIL   H002q       1     0.425     1.008
   28698       H       1     SIL   H002r       1     0.425     1.008
   28699       H       1     SIL   H002s       1     0.425     1.008
   28700       H       1     SIL   H002t       1     0.425     1.008
   28701       H       1     SIL   H002u       1     0.425     1.008
   28702       H       1     SIL   H002v       1     0.425     1.008
   28703       H       1     SIL   H002w       1     0.425     1.008
   28704       H       1     SIL   H002x       1     0.425     1.008
   28705       H       1     SIL   H002y       1     0.425     1.008
   28706       H       1     SIL   H002z       1     0.425     1.008
   28707       H       1     SIL   H0030       1     0.425     1.008
   28708       H       1     SIL   H0031       1     0.425     1.008
   28709       H       1     SIL   H0032       1     0.425     1.008
   28710       H       1     SIL   H0033       1     0.425     1.008
   28711       H       1     SIL   H0034       1     0.425     1.008
   28712       H       1     SIL   H0035       1     0.425     1.008
   28713       H       1     SIL   H0036       1     0.425     1.008
   28714       H       1     SIL   H0037       1     0.425     1.008
   28715       H       1     SIL   H0038       1     0.425     1.008
   28716       H       1     SIL   H0039       1     0.425     1.008
   28717       H       1     SIL   H003A       1     0.425     1.008
   28718       H       1     SIL   H003B       1     0.425     1.008
   28719       H       1     SIL   H003C       1     0.425     1.008
   28720       H       1     SIL   H003D       1     0.425     1.008
   28721       H       1     SIL   H003E       1     0.425     1.008
   28722       H       1     SIL   H003F       1     0.425     1.008
   28723       H       1     SIL   H003G       1     0.425     1.008
   28724       H       1     SIL   H003H       1     0.425     1.008
   28725       H       1     SIL   H003I       1     0.425     1.008
   28726       H       1     SIL   H003J       1     0.425     1.008
   28727       H       1     SIL   H003K       1     0.425     1.008
   28728       H       1     SIL   H003L       1     0.425     1.008
   28729       H       1     SIL   H003M       1     0.425     1.008
   28730       H       1     SIL   H003N       1     0.425     1.008
   28731       H       1     SIL   H003O       1     0.425     1.008
   28732       H       1     SIL   H003P       1     0.425     1.008
   28733       H       1     SIL   H003Q       1     0.425     1.008
   28734       H       1     SIL   H003R       1     0.425     1.008
   28735       H       1     SIL   H003S       1     0.425     1.008
   28736       H       1     SIL   H003T       1     0.425     1.008
   28737       H       1     SIL   H003U       1     0.425     1.008
   28738       H       1     SIL   H003V       1     0.425     1.008
   28739       H       1     SIL   H003W       1     0.425     1.008
   28740       H       1     SIL   H003X       1     0.425     1.008
   28741       H       1     SIL   H003Y       1     0.425     1.008
   28742       H       1     SIL   H003Z       1     0.425     1.008
   28743       H       1     SIL   H003a       1     0.425     1.008
   28744       H       1     SIL   H003b       1     0.425     1.008
   28745       H       1     SIL   H003c       1     0.425     1.008
   28746       H       1     SIL   H003d       1     0.425     1.008
   28747       H       1     SIL   H003e       1     0.425     1.008
   28748       H       1     SIL   H003f       1     0.425     1.008
   28749       H       1     SIL   H003g       1     0.425     1.008
   28750       H       1     SIL   H003h       1     0.425     1.008
   28751       H       1     SIL   H003i       1     0.425     1.008
   28752       H       1     SIL   H003j       1     0.425     1.008
   28753       H       1     SIL   H003k       1     0.425     1.008
   28754       H       1     SIL   H003l       1     0.425     1.008
   28755       H       1     SIL   H003m       1     0.425     1.008
   28756       H       1     SIL   H003n       1     0.425     1.008
   28757       H       1     SIL   H003o       1     0.425     1.008
   28758       H       1     SIL   H003p       1     0.425     1.008
   28759       H       1     SIL   H003q       1     0.425     1.008
   28760       H       1     SIL   H003r       1     0.425     1.008
   28761       H       1     SIL   H003s       1     0.425     1.008
   28762       H       1     SIL   H003t       1     0.425     1.008
   28763       H       1     SIL   H003u       1     0.425     1.008
   28764       H       1     SIL   H003v       1     0.425     1.008
   28765       H       1     SIL   H003w       1     0.425     1.008
   28766       H       1     SIL   H003x       1     0.425     1.008
   28767       H       1     SIL   H003y       1     0.425     1.008
   28768       H       1     SIL   H003z       1     0.425     1.008
   28769       H       1     SIL   H0040       1     0.425     1.008
   28770       H       1     SIL   H0041       1     0.425     1.008
   28771       H       1     SIL   H0042       1     0.425     1.008
   28772       H       1     SIL   H0043       1     0.425     1.008
   28773       H       1     SIL   H0044       1     0.425     1.008
   28774       H       1     SIL   H0045       1     0.425     1.008
   28775       H       1     SIL   H0046       1     0.425     1.008
   28776       H       1     SIL   H0047       1     0.425     1.008
   28777       H       1     SIL   H0048       1     0.425     1.008
   28778       H       1     SIL   H0049       1     0.425     1.008
   28779       H       1     SIL   H004A       1     0.425     1.008
   28780       H       1     SIL   H004B       1     0.425     1.008
   28781       H       1     SIL   H004C       1     0.425     1.008
   28782       H       1     SIL   H004D       1     0.425     1.008
   28783       H       1     SIL   H004E       1     0.425     1.008
   28784       H       1     SIL   H004F       1     0.425     1.008
   28785       H       1     SIL   H004G       1     0.425     1.008
   28786       H       1     SIL   H004H       1     0.425     1.008
   28787       H       1     SIL   H004I       1     0.425     1.008
   28788       H       1     SIL   H004J       1     0.425     1.008
   28789       H       1     SIL   H004K       1     0.425     1.008
   28790       H       1     SIL   H004L       1     0.425     1.008
   28791       H       1     SIL   H004M       1     0.425     1.008
   28792       H       1     SIL   H004N       1     0.425     1.008
   28793       H       1     SIL   H004O       1     0.425     1.008
   28794       H       1     SIL   H004P       1     0.425     1.008
   28795       H       1     SIL   H004Q       1     0.425     1.008
   28796       H       1     SIL   H004R       1     0.425     1.008
   28797       H       1     SIL   H004S       1     0.425     1.008
   28798       H       1     SIL   H004T       1     0.425     1.008
   28799       H       1     SIL   H004U       1     0.425     1.008
   28800       H       1     SIL   H004V       1     0.425     1.008
   28801       H       1     SIL   H004W       1     0.425     1.008
   28802       H       1     SIL   H004X       1     0.425     1.008
   28803       H       1     SIL   H004Y       1     0.425     1.008
   28804       H       1     SIL   H004Z       1     0.425     1.008
   28805       H       1     SIL   H004a       1     0.425     1.008
   28806       H       1     SIL   H004b       1     0.425     1.008
   28807       H       1     SIL   H004c       1     0.425     1.008
   28808       H       1     SIL   H004d       1     0.425     1.008
   28809       H       1     SIL   H004e       1     0.425     1.008
   28810       H       1     SIL   H004f       1     0.425     1.008
   28811       H       1     SIL   H004g       1     0.425     1.008
   28812       H       1     SIL   H004h       1     0.425     1.008
   28813       H       1     SIL   H004i       1     0.425     1.008
   28814       H       1     SIL   H004j       1     0.425     1.008
   28815       H       1     SIL   H004k       1     0.425     1.008
   28816       H       1     SIL   H004l       1     0.425     1.008
   28817       H       1     SIL   H004m       1     0.425     1.008
   28818       H       1     SIL   H004n       1     0.425     1.008
   28819       H       1     SIL   H004o       1     0.425     1.008
   28820       H       1     SIL   H004p       1     0.425     1.008
   28821       H       1     SIL   H004q       1     0.425     1.008
   28822       H       1     SIL   H004r       1     0.425     1.008
   28823       H       1     SIL   H004s       1     0.425     1.008
   28824       H       1     SIL   H004t       1     0.425     1.008
   28825       H       1     SIL   H004u       1     0.425     1.008
   28826       H       1     SIL   H004v       1     0.425     1.008
   28827       H       1     SIL   H004w       1     0.425     1.008
   28828       H       1     SIL   H004x       1     0.425     1.008
   28829       H       1     SIL   H004y       1     0.425     1.008
   28830       H       1     SIL   H004z       1     0.425     1.008
   28831       H       1     SIL   H0050       1     0.425     1.008
   28832       H       1     SIL   H0051       1     0.425     1.008
   28833       H       1     SIL   H0052       1     0.425     1.008
   28834       H       1     SIL   H0053       1     0.425     1.008
   28835       H       1     SIL   H0054       1     0.425     1.008
   28836       H       1     SIL   H0055       1     0.425     1.008
   28837       H       1     SIL   H0056       1     0.425     1.008
   28838       H       1     SIL   H0057       1     0.425     1.008
   28839       H       1     SIL   H0058       1     0.425     1.008
   28840       H       1     SIL   H0059       1     0.425     1.008
   28841       H       1     SIL   H005A       1     0.425     1.008
   28842       H       1     SIL   H005B       1     0.425     1.008
   28843       H       1     SIL   H005C       1     0.425     1.008
   28844       H       1     SIL   H005D       1     0.425     1.008
   28845       H       1     SIL   H005E       1     0.425     1.008
   28846       H       1     SIL   H005F       1     0.425     1.008
   28847       H       1     SIL   H005G       1     0.425     1.008
   28848       H       1     SIL   H005H       1     0.425     1.008
   28849       H       1     SIL   H005I       1     0.425     1.008
   28850       H       1     SIL   H005J       1     0.425     1.008
   28851       H       1     SIL   H005K       1     0.425     1.008
   28852       H       1     SIL   H005L       1     0.425     1.008
   28853       H       1     SIL   H005M       1     0.425     1.008
   28854       H       1     SIL   H005N       1     0.425     1.008
   28855       H       1     SIL   H005O       1     0.425     1.008
   28856       H       1     SIL   H005P       1     0.425     1.008
   28857       H       1     SIL   H005Q       1     0.425     1.008
   28858       H       1     SIL   H005R       1     0.425     1.008
   28859       H       1     SIL   H005S       1     0.425     1.008
   28860       H       1     SIL   H005T       1     0.425     1.008
   28861       H       1     SIL   H005U       1     0.425     1.008
   28862       H       1     SIL   H005V       1     0.425     1.008
   28863       H       1     SIL   H005W       1     0.425     1.008
   28864       H       1     SIL   H005X       1     0.425     1.008
   28865       H       1     SIL   H005Y       1     0.425     1.008
   28866       H       1     SIL   H005Z       1     0.425     1.008
   28867       H       1     SIL   H005a       1     0.425     1.008
   28868       H       1     SIL   H005b       1     0.425     1.008
   28869       H       1     SIL   H005c       1     0.425     1.008
   28870       H       1     SIL   H005d       1     0.425     1.008
   28871       H       1     SIL   H005e       1     0.425     1.008
   28872       H       1     SIL   H005f       1     0.425     1.008
   28873       H       1     SIL   H005g       1     0.425     1.008
   28874       H       1     SIL   H005h       1     0.425     1.008
   28875       H       1     SIL   H005i       1     0.425     1.008
   28876       H       1     SIL   H005j       1     0.425     1.008
   28877       H       1     SIL   H005k       1     0.425     1.008
   28878       H       1     SIL   H005l       1     0.425     1.008
   28879       H       1     SIL   H005m       1     0.425     1.008
   28880       H       1     SIL   H005n       1     0.425     1.008
   28881       H       1     SIL   H005o       1     0.425     1.008
   28882       H       1     SIL   H005p       1     0.425     1.008
   28883       H       1     SIL   H005q       1     0.425     1.008
   28884       H       1     SIL   H005r       1     0.425     1.008
   28885       H       1     SIL   H005s       1     0.425     1.008
   28886       H       1     SIL   H005t       1     0.425     1.008
   28887       H       1     SIL   H005u       1     0.425     1.008
   28888       H       1     SIL   H005v       1     0.425     1.008
   28889       H       1     SIL   H005w       1     0.425     1.008
   28890       H       1     SIL   H005x       1     0.425     1.008
   28891       H       1     SIL   H005y       1     0.425     1.008
   28892       H       1     SIL   H005z       1     0.425     1.008
   28893       H       1     SIL   H0060       1     0.425     1.008
   28894       H       1     SIL   H0061       1     0.425     1.008
   28895       H       1     SIL   H0062       1     0.425     1.008
   28896       H       1     SIL   H0063       1     0.425     1.008
   28897       H       1     SIL   H0064       1     0.425     1.008
   28898       H       1     SIL   H0065       1     0.425     1.008
   28899       H       1     SIL   H0066       1     0.425     1.008
   28900       H       1     SIL   H0067       1     0.425     1.008
   28901       H       1     SIL   H0068       1     0.425     1.008
   28902       H       1     SIL   H0069       1     0.425     1.008
   28903       H       1     SIL   H006A       1     0.425     1.008
   28904       H       1     SIL   H006B       1     0.425     1.008
   28905       H       1     SIL   H006C       1     0.425     1.008
   28906       H       1     SIL   H006D       1     0.425     1.008
   28907       H       1     SIL   H006E       1     0.425     1.008
   28908       H       1     SIL   H006F       1     0.425     1.008
   28909       H       1     SIL   H006G       1     0.425     1.008
   28910       H       1     SIL   H006H       1     0.425     1.008
   28911       H       1     SIL   H006I       1     0.425     1.008
   28912       H       1     SIL   H006J       1     0.425     1.008
   28913       H       1     SIL   H006K       1     0.425     1.008
   28914       H       1     SIL   H006L       1     0.425     1.008
   28915       H       1     SIL   H006M       1     0.425     1.008
   28916       H       1     SIL   H006N       1     0.425     1.008
   28917       H       1     SIL   H006O       1     0.425     1.008
   28918       H       1     SIL   H006P       1     0.425     1.008
   28919       H       1     SIL   H006Q       1     0.425     1.008
   28920       H       1     SIL   H006R       1     0.425     1.008
   28921       H       1     SIL   H006S       1     0.425     1.008
   28922       H       1     SIL   H006T       1     0.425     1.008
   28923       H       1     SIL   H006U       1     0.425     1.008
   28924       H       1     SIL   H006V       1     0.425     1.008
   28925       H       1     SIL   H006W       1     0.425     1.008
   28926       H       1     SIL   H006X       1     0.425     1.008
   28927       H       1     SIL   H006Y       1     0.425     1.008
   28928       H       1     SIL   H006Z       1     0.425     1.008
   28929       H       1     SIL   H006a       1     0.425     1.008
   28930       H       1     SIL   H006b       1     0.425     1.008
   28931       H       1     SIL   H006c       1     0.425     1.008
   28932       H       1     SIL   H006d       1     0.425     1.008
   28933       H       1     SIL   H006e       1     0.425     1.008
   28934       H       1     SIL   H006f       1     0.425     1.008
   28935       H       1     SIL   H006g       1     0.425     1.008
   28936       H       1     SIL   H006h       1     0.425     1.008
   28937       H       1     SIL   H006i       1     0.425     1.008
   28938       H       1     SIL   H006j       1     0.425     1.008
   28939       H       1     SIL   H006k       1     0.425     1.008
   28940       H       1     SIL   H006l       1     0.425     1.008
   28941       H       1     SIL   H006m       1     0.425     1.008
   28942       H       1     SIL   H006n       1     0.425     1.008
   28943       H       1     SIL   H006o       1     0.425     1.008
   28944       H       1     SIL   H006p       1     0.425     1.008
   28945       H       1     SIL   H006q       1     0.425     1.008
   28946       H       1     SIL   H006r       1     0.425     1.008
   28947       H       1     SIL   H006s       1     0.425     1.008
   28948       H       1     SIL   H006t       1     0.425     1.008
   28949       H       1     SIL   H006u       1     0.425     1.008
   28950       H       1     SIL   H006v       1     0.425     1.008
   28951       H       1     SIL   H006w       1     0.425     1.008
   28952       H       1     SIL   H006x       1     0.425     1.008
   28953       H       1     SIL   H006y       1     0.425     1.008
   28954       H       1     SIL   H006z       1     0.425     1.008
   28955       H       1     SIL   H0070       1     0.425     1.008
   28956       H       1     SIL   H0071       1     0.425     1.008
   28957       H       1     SIL   H0072       1     0.425     1.008
   28958       H       1     SIL   H0073       1     0.425     1.008
   28959       H       1     SIL   H0074       1     0.425     1.008
   28960       H       1     SIL   H0075       1     0.425     1.008
   28961       H       1     SIL   H0076       1     0.425     1.008
   28962       H       1     SIL   H0077       1     0.425     1.008
   28963       H       1     SIL   H0078       1     0.425     1.008
   28964       H       1     SIL   H0079       1     0.425     1.008
   28965       H       1     SIL   H007A       1     0.425     1.008
   28966       H       1     SIL   H007B       1     0.425     1.008
   28967       H       1     SIL   H007C       1     0.425     1.008
   28968       H       1     SIL   H007D       1     0.425     1.008
   28969       H       1     SIL   H007E       1     0.425     1.008
   28970       H       1     SIL   H007F       1     0.425     1.008
   28971       H       1     SIL   H007G       1     0.425     1.008
   28972       H       1     SIL   H007H       1     0.425     1.008
   28973       H       1     SIL   H007I       1     0.425     1.008
   28974       H       1     SIL   H007J       1     0.425     1.008
   28975       H       1     SIL   H007K       1     0.425     1.008
   28976       H       1     SIL   H007L       1     0.425     1.008
   28977       H       1     SIL   H007M       1     0.425     1.008
   28978       H       1     SIL   H007N       1     0.425     1.008
   28979       H       1     SIL   H007O       1     0.425     1.008
   28980       H       1     SIL   H007P       1     0.425     1.008
   28981       H       1     SIL   H007Q       1     0.425     1.008
   28982       H       1     SIL   H007R       1     0.425     1.008
   28983       H       1     SIL   H007S       1     0.425     1.008
   28984       H       1     SIL   H007T       1     0.425     1.008
   28985       H       1     SIL   H007U       1     0.425     1.008
   28986       H       1     SIL   H007V       1     0.425     1.008
   28987       H       1     SIL   H007W       1     0.425     1.008
   28988       H       1     SIL   H007X       1     0.425     1.008
   28989       H       1     SIL   H007Y       1     0.425     1.008
   28990       H       1     SIL   H007Z       1     0.425     1.008
   28991       H       1     SIL   H007a       1     0.425     1.008
   28992       H       1     SIL   H007b       1     0.425     1.008
   28993       H       1     SIL   H007c       1     0.425     1.008
   28994       H       1     SIL   H007d       1     0.425     1.008
   28995       H       1     SIL   H007e       1     0.425     1.008
   28996       H       1     SIL   H007f       1     0.425     1.008
   28997       H       1     SIL   H007g       1     0.425     1.008
   28998       H       1     SIL   H007h       1     0.425     1.008
   28999       H       1     SIL   H007i       1     0.425     1.008
   29000       H       1     SIL   H007j       1     0.425     1.008
   29001       H       1     SIL   H007k       1     0.425     1.008
   29002       H       1     SIL   H007l       1     0.425     1.008
   29003       H       1     SIL   H007m       1     0.425     1.008
   29004       H       1     SIL   H007n       1     0.425     1.008
   29005       H       1     SIL   H007o       1     0.425     1.008
   29006       H       1     SIL   H007p       1     0.425     1.008
   29007       H       1     SIL   H007q       1     0.425     1.008
   29008       H       1     SIL   H007r       1     0.425     1.008
   29009       H       1     SIL   H007s       1     0.425     1.008
   29010       H       1     SIL   H007t       1     0.425     1.008
   29011       H       1     SIL   H007u       1     0.425     1.008
   29012       H       1     SIL   H007v       1     0.425     1.008
   29013       H       1     SIL   H007w       1     0.425     1.008
   29014       H       1     SIL   H007x       1     0.425     1.008
   29015       H       1     SIL   H007y       1     0.425     1.008
   29016       H       1     SIL   H007z       1     0.425     1.008
   29017       H       1     SIL   H0080       1     0.425     1.008
   29018       H       1     SIL   H0081       1     0.425     1.008
   29019       H       1     SIL   H0082       1     0.425     1.008
   29020       H       1     SIL   H0083       1     0.425     1.008
   29021       H       1     SIL   H0084       1     0.425     1.008
   29022       H       1     SIL   H0085       1     0.425     1.008
   29023       H       1     SIL   H0086       1     0.425     1.008
   29024       H       1     SIL   H0087       1     0.425     1.008
   29025       H       1     SIL   H0088       1     0.425     1.008
   29026       H       1     SIL   H0089       1     0.425     1.008
   29027       H       1     SIL   H008A       1     0.425     1.008
   29028       H       1     SIL   H008B       1     0.425     1.008
   29029       H       1     SIL   H008C       1     0.425     1.008
   29030       H       1     SIL   H008D       1     0.425     1.008
   29031       H       1     SIL   H008E       1     0.425     1.008
   29032       H       1     SIL   H008F       1     0.425     1.008
   29033       H       1     SIL   H008G       1     0.425     1.008
   29034       H       1     SIL   H008H       1     0.425     1.008
   29035       H       1     SIL   H008I       1     0.425     1.008
   29036       H       1     SIL   H008J       1     0.425     1.008
   29037       H       1     SIL   H008K       1     0.425     1.008
   29038       H       1     SIL   H008L       1     0.425     1.008
   29039       H       1     SIL   H008M       1     0.425     1.008
   29040       H       1     SIL   H008N       1     0.425     1.008
   29041       H       1     SIL   H008O       1     0.425     1.008
   29042       H       1     SIL   H008P       1     0.425     1.008
   29043       H       1     SIL   H008Q       1     0.425     1.008
   29044       H       1     SIL   H008R       1     0.425     1.008
   29045       H       1     SIL   H008S       1     0.425     1.008
   29046       H       1     SIL   H008T       1     0.425     1.008
   29047       H       1     SIL   H008U       1     0.425     1.008
   29048       H       1     SIL   H008V       1     0.425     1.008
   29049       H       1     SIL   H008W       1     0.425     1.008
   29050       H       1     SIL   H008X       1     0.425     1.008
   29051       H       1     SIL   H008Y       1     0.425     1.008
   29052       H       1     SIL   H008Z       1     0.425     1.008
   29053       H       1     SIL   H008a       1     0.425     1.008
   29054       H       1     SIL   H008b       1     0.425     1.008
   29055       H       1     SIL   H008c       1     0.425     1.008
   29056       H       1     SIL   H008d       1     0.425     1.008
   29057       H       1     SIL   H008e       1     0.425     1.008
   29058       H       1     SIL   H008f       1     0.425     1.008
   29059       H       1     SIL   H008g       1     0.425     1.008
   29060       H       1     SIL   H008h       1     0.425     1.008
   29061       H       1     SIL   H008i       1     0.425     1.008
   29062       H       1     SIL   H008j       1     0.425     1.008
   29063       H       1     SIL   H008k       1     0.425     1.008
   29064       H       1     SIL   H008l       1     0.425     1.008
   29065       H       1     SIL   H008m       1     0.425     1.008
   29066       H       1     SIL   H008n       1     0.425     1.008
   29067       H       1     SIL   H008o       1     0.425     1.008
   29068       H       1     SIL   H008p       1     0.425     1.008
   29069       H       1     SIL   H008q       1     0.425     1.008
   29070       H       1     SIL   H008r       1     0.425     1.008
   29071       H       1     SIL   H008s       1     0.425     1.008
   29072       H       1     SIL   H008t       1     0.425     1.008
   29073       H       1     SIL   H008u       1     0.425     1.008
   29074       H       1     SIL   H008v       1     0.425     1.008
   29075       H       1     SIL   H008w       1     0.425     1.008
   29076       H       1     SIL   H008x       1     0.425     1.008
   29077       H       1     SIL   H008y       1     0.425     1.008
   29078       H       1     SIL   H008z       1     0.425     1.008
   29079       H       1     SIL   H0090       1     0.425     1.008
   29080       H       1     SIL   H0091       1     0.425     1.008
   29081       H       1     SIL   H0092       1     0.425     1.008
   29082       H       1     SIL   H0093       1     0.425     1.008
   29083       H       1     SIL   H0094       1     0.425     1.008
   29084       H       1     SIL   H0095       1     0.425     1.008
   29085       H       1     SIL   H0096       1     0.425     1.008
   29086       H       1     SIL   H0097       1     0.425     1.008
   29087       H       1     SIL   H0098       1     0.425     1.008
   29088       H       1     SIL   H0099       1     0.425     1.008
   29089       H       1     SIL   H009A       1     0.425     1.008
   29090       H       1     SIL   H009B       1     0.425     1.008
   29091       H       1     SIL   H009C       1     0.425     1.008
   29092       H       1     SIL   H009D       1     0.425     1.008
   29093       H       1     SIL   H009E       1     0.425     1.008
   29094       H       1     SIL   H009F       1     0.425     1.008
   29095       H       1     SIL   H009G       1     0.425     1.008
   29096       H       1     SIL   H009H       1     0.425     1.008
   29097       H       1     SIL   H009I       1     0.425     1.008
   29098       H       1     SIL   H009J       1     0.425     1.008
   29099       H       1     SIL   H009K       1     0.425     1.008
   29100       H       1     SIL   H009L       1     0.425     1.008
   29101       H       1     SIL   H009M       1     0.425     1.008
   29102       H       1     SIL   H009N       1     0.425     1.008
   29103       H       1     SIL   H009O       1     0.425     1.008
   29104       H       1     SIL   H009P       1     0.425     1.008
   29105       H       1     SIL   H009Q       1     0.425     1.008
   29106       H       1     SIL   H009R       1     0.425     1.008
   29107       H       1     SIL   H009S       1     0.425     1.008
   29108       H       1     SIL   H009T       1     0.425     1.008
   29109       H       1     SIL   H009U       1     0.425     1.008
   29110       H       1     SIL   H009V       1     0.425     1.008
   29111       H       1     SIL   H009W       1     0.425     1.008
   29112       H       1     SIL   H009X       1     0.425     1.008
   29113       H       1     SIL   H009Y       1     0.425     1.008
   29114       H       1     SIL   H009Z       1     0.425     1.008
   29115       H       1     SIL   H009a       1     0.425     1.008
   29116       H       1     SIL   H009b       1     0.425     1.008
   29117       H       1     SIL   H009c       1     0.425     1.008
   29118       H       1     SIL   H009d       1     0.425     1.008
   29119       H       1     SIL   H009e       1     0.425     1.008
   29120       H       1     SIL   H009f       1     0.425     1.008
   29121       H       1     SIL   H009g       1     0.425     1.008
   29122       H       1     SIL   H009h       1     0.425     1.008
   29123       H       1     SIL   H009i       1     0.425     1.008
   29124       H       1     SIL   H009j       1     0.425     1.008
   29125       H       1     SIL   H009k       1     0.425     1.008
   29126       H       1     SIL   H009l       1     0.425     1.008
   29127       H       1     SIL   H009m       1     0.425     1.008
   29128       H       1     SIL   H009n       1     0.425     1.008
   29129       H       1     SIL   H009o       1     0.425     1.008
   29130       H       1     SIL   H009p       1     0.425     1.008
   29131       H       1     SIL   H009q       1     0.425     1.008
   29132       H       1     SIL   H009r       1     0.425     1.008
   29133       H       1     SIL   H009s       1     0.425     1.008
   29134       H       1     SIL   H009t       1     0.425     1.008
   29135       H       1     SIL   H009u       1     0.425     1.008
   29136       H       1     SIL   H009v       1     0.425     1.008
   29137       H       1     SIL   H009w       1     0.425     1.008
   29138       H       1     SIL   H009x       1     0.425     1.008
   29139       H       1     SIL   H009y       1     0.425     1.008
   29140       H       1     SIL   H009z       1     0.425     1.008
   29141       H       1     SIL   H00A0       1     0.425     1.008
   29142       H       1     SIL   H00A1       1     0.425     1.008
   29143       H       1     SIL   H00A2       1     0.425     1.008
   29144       H       1     SIL   H00A3       1     0.425     1.008
   29145       H       1     SIL   H00A4       1     0.425     1.008
   29146       H       1     SIL   H00A5       1     0.425     1.008
   29147       H       1     SIL   H00A6       1     0.425     1.008
   29148       H       1     SIL   H00A7       1     0.425     1.008
   29149       H       1     SIL   H00A8       1     0.425     1.008
   29150       H       1     SIL   H00A9       1     0.425     1.008
   29151       H       1     SIL   H00AA       1     0.425     1.008
   29152       H       1     SIL   H00AB       1     0.425     1.008
   29153       H       1     SIL   H00AC       1     0.425     1.008
   29154       H       1     SIL   H00AD       1     0.425     1.008
   29155       H       1     SIL   H00AE       1     0.425     1.008
   29156       H       1     SIL   H00AF       1     0.425     1.008
   29157       H       1     SIL   H00AG       1     0.425     1.008
   29158       H       1     SIL   H00AH       1     0.425     1.008
   29159       H       1     SIL   H00AI       1     0.425     1.008
   29160       H       1     SIL   H00AJ       1     0.425     1.008
   29161       H       1     SIL   H00AK       1     0.425     1.008
   29162       H       1     SIL   H00AL       1     0.425     1.008
   29163       H       1     SIL   H00AM       1     0.425     1.008
   29164       H       1     SIL   H00AN       1     0.425     1.008
   29165       H       1     SIL   H00AO       1     0.425     1.008
   29166       H       1     SIL   H00AP       1     0.425     1.008
   29167       H       1     SIL   H00AQ       1     0.425     1.008
   29168       H       1     SIL   H00AR       1     0.425     1.008
   29169       H       1     SIL   H00AS       1     0.425     1.008
   29170       H       1     SIL   H00AT       1     0.425     1.008
   29171       H       1     SIL   H00AU       1     0.425     1.008
   29172       H       1     SIL   H00AV       1     0.425     1.008
   29173       H       1     SIL   H00AW       1     0.425     1.008
   29174       H       1     SIL   H00AX       1     0.425     1.008
   29175       H       1     SIL   H00AY       1     0.425     1.008
   29176       H       1     SIL   H00AZ       1     0.425     1.008
   29177       H       1     SIL   H00Aa       1     0.425     1.008
   29178       H       1     SIL   H00Ab       1     0.425     1.008
   29179       H       1     SIL   H00Ac       1     0.425     1.008
   29180       H       1     SIL   H00Ad       1     0.425     1.008
   29181       H       1     SIL   H00Ae       1     0.425     1.008
   29182       H       1     SIL   H00Af       1     0.425     1.008
   29183       H       1     SIL   H00Ag       1     0.425     1.008
   29184       H       1     SIL   H00Ah       1     0.425     1.008
   29185       H       1     SIL   H00Ai       1     0.425     1.008
   29186       H       1     SIL   H00Aj       1     0.425     1.008
   29187       H       1     SIL   H00Ak       1     0.425     1.008
   29188       H       1     SIL   H00Al       1     0.425     1.008
   29189       H       1     SIL   H00Am       1     0.425     1.008
   29190       H       1     SIL   H00An       1     0.425     1.008
   29191       H       1     SIL   H00Ao       1     0.425     1.008
   29192       H       1     SIL   H00Ap       1     0.425     1.008
   29193       H       1     SIL   H00Aq       1     0.425     1.008
   29194       H       1     SIL   H00Ar       1     0.425     1.008
   29195       H       1     SIL   H00As       1     0.425     1.008
   29196       H       1     SIL   H00At       1     0.425     1.008
   29197       H       1     SIL   H00Au       1     0.425     1.008
   29198       H       1     SIL   H00Av       1     0.425     1.008
   29199       H       1     SIL   H00Aw       1     0.425     1.008
   29200       H       1     SIL   H00Ax       1     0.425     1.008
   29201       H       1     SIL   H00Ay       1     0.425     1.008
   29202       H       1     SIL   H00Az       1     0.425     1.008
   29203       H       1     SIL   H00B0       1     0.425     1.008
   29204       H       1     SIL   H00B1       1     0.425     1.008
   29205       H       1     SIL   H00B2       1     0.425     1.008
   29206       H       1     SIL   H00B3       1     0.425     1.008
   29207       H       1     SIL   H00B4       1     0.425     1.008
   29208       H       1     SIL   H00B5       1     0.425     1.008
   29209       H       1     SIL   H00B6       1     0.425     1.008
   29210       H       1     SIL   H00B7       1     0.425     1.008
   29211       H       1     SIL   H00B8       1     0.425     1.008
   29212       H       1     SIL   H00B9       1     0.425     1.008
   29213       H       1     SIL   H00BA       1     0.425     1.008
   29214       H       1     SIL   H00BB       1     0.425     1.008
   29215       H       1     SIL   H00BC       1     0.425     1.008
   29216       H       1     SIL   H00BD       1     0.425     1.008
   29217       H       1     SIL   H00BE       1     0.425     1.008
   29218       H       1     SIL   H00BF       1     0.425     1.008
   29219       H       1     SIL   H00BG       1     0.425     1.008
   29220       H       1     SIL   H00BH       1     0.425     1.008
   29221       H       1     SIL   H00BI       1     0.425     1.008
   29222       H       1     SIL   H00BJ       1     0.425     1.008
   29223       H       1     SIL   H00BK       1     0.425     1.008
   29224       H       1     SIL   H00BL       1     0.425     1.008
   29225       H       1     SIL   H00BM       1     0.425     1.008
   29226       H       1     SIL   H00BN       1     0.425     1.008
   29227       H       1     SIL   H00BO       1     0.425     1.008
   29228       H       1     SIL   H00BP       1     0.425     1.008
   29229       H       1     SIL   H00BQ       1     0.425     1.008
   29230       H       1     SIL   H00BR       1     0.425     1.008
   29231       H       1     SIL   H00BS       1     0.425     1.008
   29232       H       1     SIL   H00BT       1     0.425     1.008
   29233       H       1     SIL   H00BU       1     0.425     1.008
   29234       H       1     SIL   H00BV       1     0.425     1.008
   29235       H       1     SIL   H00BW       1     0.425     1.008
   29236       H       1     SIL   H00BX       1     0.425     1.008
   29237       H       1     SIL   H00BY       1     0.425     1.008
   29238       H       1     SIL   H00BZ       1     0.425     1.008
   29239       H       1     SIL   H00Ba       1     0.425     1.008
   29240       H       1     SIL   H00Bb       1     0.425     1.008
   29241       H       1     SIL   H00Bc       1     0.425     1.008
   29242       H       1     SIL   H00Bd       1     0.425     1.008
   29243       H       1     SIL   H00Be       1     0.425     1.008
   29244       H       1     SIL   H00Bf       1     0.425     1.008
   29245       H       1     SIL   H00Bg       1     0.425     1.008
   29246       H       1     SIL   H00Bh       1     0.425     1.008
   29247       H       1     SIL   H00Bi       1     0.425     1.008
   29248       H       1     SIL   H00Bj       1     0.425     1.008
   29249       H       1     SIL   H00Bk       1     0.425     1.008
   29250       H       1     SIL   H00Bl       1     0.425     1.008
   29251       H       1     SIL   H00Bm       1     0.425     1.008
   29252       H       1     SIL   H00Bn       1     0.425     1.008
   29253       H       1     SIL   H00Bo       1     0.425     1.008
   29254       H       1     SIL   H00Bp       1     0.425     1.008
   29255       H       1     SIL   H00Bq       1     0.425     1.008
   29256       H       1     SIL   H00Br       1     0.425     1.008
   29257       H       1     SIL   H00Bs       1     0.425     1.008
   29258       H       1     SIL   H00Bt       1     0.425     1.008
   29259       H       1     SIL   H00Bu       1     0.425     1.008
   29260       H       1     SIL   H00Bv       1     0.425     1.008
   29261       H       1     SIL   H00Bw       1     0.425     1.008
   29262       H       1     SIL   H00Bx       1     0.425     1.008
   29263       H       1     SIL   H00By       1     0.425     1.008
   29264       H       1     SIL   H00Bz       1     0.425     1.008
   29265       H       1     SIL   H00C0       1     0.425     1.008
   29266       H       1     SIL   H00C1       1     0.425     1.008
   29267       H       1     SIL   H00C2       1     0.425     1.008
   29268       H       1     SIL   H00C3       1     0.425     1.008
   29269       H       1     SIL   H00C4       1     0.425     1.008
   29270       H       1     SIL   H00C5       1     0.425     1.008
   29271       H       1     SIL   H00C6       1     0.425     1.008
   29272       H       1     SIL   H00C7       1     0.425     1.008
   29273       H       1     SIL   H00C8       1     0.425     1.008
   29274       H       1     SIL   H00C9       1     0.425     1.008
   29275       H       1     SIL   H00CA       1     0.425     1.008
   29276       H       1     SIL   H00CB       1     0.425     1.008
   29277       H       1     SIL   H00CC       1     0.425     1.008
   29278       H       1     SIL   H00CD       1     0.425     1.008
   29279       H       1     SIL   H00CE       1     0.425     1.008
   29280       H       1     SIL   H00CF       1     0.425     1.008
   29281       H       1     SIL   H00CG       1     0.425     1.008
   29282       H       1     SIL   H00CH       1     0.425     1.008
   29283       H       1     SIL   H00CI       1     0.425     1.008
   29284       H       1     SIL   H00CJ       1     0.425     1.008
   29285       H       1     SIL   H00CK       1     0.425     1.008
   29286       H       1     SIL   H00CL       1     0.425     1.008
   29287       H       1     SIL   H00CM       1     0.425     1.008
   29288       H       1     SIL   H00CN       1     0.425     1.008
   29289       H       1     SIL   H00CO       1     0.425     1.008
   29290       H       1     SIL   H00CP       1     0.425     1.008
   29291       H       1     SIL   H00CQ       1     0.425     1.008
   29292       H       1     SIL   H00CR       1     0.425     1.008
   29293       H       1     SIL   H00CS       1     0.425     1.008
   29294       H       1     SIL   H00CT       1     0.425     1.008
   29295       H       1     SIL   H00CU       1     0.425     1.008
   29296       H       1     SIL   H00CV       1     0.425     1.008
   29297       H       1     SIL   H00CW       1     0.425     1.008
   29298       H       1     SIL   H00CX       1     0.425     1.008
   29299       H       1     SIL   H00CY       1     0.425     1.008
   29300       H       1     SIL   H00CZ       1     0.425     1.008
   29301       H       1     SIL   H00Ca       1     0.425     1.008
   29302       H       1     SIL   H00Cb       1     0.425     1.008
   29303       H       1     SIL   H00Cc       1     0.425     1.008
   29304       H       1     SIL   H00Cd       1     0.425     1.008
   29305       H       1     SIL   H00Ce       1     0.425     1.008
   29306       H       1     SIL   H00Cf       1     0.425     1.008
   29307       H       1     SIL   H00Cg       1     0.425     1.008
   29308       H       1     SIL   H00Ch       1     0.425     1.008
   29309       H       1     SIL   H00Ci       1     0.425     1.008
   29310       H       1     SIL   H00Cj       1     0.425     1.008
   29311       H       1     SIL   H00Ck       1     0.425     1.008
   29312       H       1     SIL   H00Cl       1     0.425     1.008
   29313       H       1     SIL   H00Cm       1     0.425     1.008
   29314       H       1     SIL   H00Cn       1     0.425     1.008
   29315       H       1     SIL   H00Co       1     0.425     1.008
   29316       H       1     SIL   H00Cp       1     0.425     1.008
   29317       H       1     SIL   H00Cq       1     0.425     1.008
   29318       H       1     SIL   H00Cr       1     0.425     1.008
   29319       H       1     SIL   H00Cs       1     0.425     1.008
   29320       H       1     SIL   H00Ct       1     0.425     1.008
   29321       H       1     SIL   H00Cu       1     0.425     1.008
   29322       H       1     SIL   H00Cv       1     0.425     1.008
   29323       H       1     SIL   H00Cw       1     0.425     1.008
   29324       H       1     SIL   H00Cx       1     0.425     1.008
   29325       H       1     SIL   H00Cy       1     0.425     1.008
   29326       H       1     SIL   H00Cz       1     0.425     1.008
   29327       H       1     SIL   H00D0       1     0.425     1.008
   29328       H       1     SIL   H00D1       1     0.425     1.008
   29329       H       1     SIL   H00D2       1     0.425     1.008
   29330       H       1     SIL   H00D3       1     0.425     1.008
   29331       H       1     SIL   H00D4       1     0.425     1.008
   29332       H       1     SIL   H00D5       1     0.425     1.008
   29333       H       1     SIL   H00D6       1     0.425     1.008
   29334       H       1     SIL   H00D7       1     0.425     1.008
   29335       H       1     SIL   H00D8       1     0.425     1.008
   29336       H       1     SIL   H00D9       1     0.425     1.008
   29337       H       1     SIL   H00DA       1     0.425     1.008
   29338       H       1     SIL   H00DB       1     0.425     1.008
   29339       H       1     SIL   H00DC       1     0.425     1.008
   29340       H       1     SIL   H00DD       1     0.425     1.008
   29341       H       1     SIL   H00DE       1     0.425     1.008
   29342       H       1     SIL   H00DF       1     0.425     1.008
   29343       H       1     SIL   H00DG       1     0.425     1.008
   29344       H       1     SIL   H00DH       1     0.425     1.008
   29345       H       1     SIL   H00DI       1     0.425     1.008
   29346       H       1     SIL   H00DJ       1     0.425     1.008
   29347       H       1     SIL   H00DK       1     0.425     1.008
   29348       H       1     SIL   H00DL       1     0.425     1.008
   29349       H       1     SIL   H00DM       1     0.425     1.008
   29350       H       1     SIL   H00DN       1     0.425     1.008
   29351       H       1     SIL   H00DO       1     0.425     1.008
   29352       H       1     SIL   H00DP       1     0.425     1.008
   29353       H       1     SIL   H00DQ       1     0.425     1.008
   29354       H       1     SIL   H00DR       1     0.425     1.008
   29355       H       1     SIL   H00DS       1     0.425     1.008
   29356       H       1     SIL   H00DT       1     0.425     1.008
   29357       H       1     SIL   H00DU       1     0.425     1.008
   29358       H       1     SIL   H00DV       1     0.425     1.008
   29359       H       1     SIL   H00DW       1     0.425     1.008
   29360       H       1     SIL   H00DX       1     0.425     1.008
   29361       H       1     SIL   H00DY       1     0.425     1.008
   29362       H       1     SIL   H00DZ       1     0.425     1.008
   29363       H       1     SIL   H00Da       1     0.425     1.008
   29364       H       1     SIL   H00Db       1     0.425     1.008
   29365       H       1     SIL   H00Dc       1     0.425     1.008
   29366       H       1     SIL   H00Dd       1     0.425     1.008
   29367       H       1     SIL   H00De       1     0.425     1.008
   29368       H       1     SIL   H00Df       1     0.425     1.008
   29369       H       1     SIL   H00Dg       1     0.425     1.008
   29370       H       1     SIL   H00Dh       1     0.425     1.008
   29371       H       1     SIL   H00Di       1     0.425     1.008
   29372       H       1     SIL   H00Dj       1     0.425     1.008
   29373       H       1     SIL   H00Dk       1     0.425     1.008
   29374       H       1     SIL   H00Dl       1     0.425     1.008
   29375       H       1     SIL   H00Dm       1     0.425     1.008
   29376       H       1     SIL   H00Dn       1     0.425     1.008
   29377       H       1     SIL   H00Do       1     0.425     1.008
   29378       H       1     SIL   H00Dp       1     0.425     1.008
   29379       H       1     SIL   H00Dq       1     0.425     1.008
   29380       H       1     SIL   H00Dr       1     0.425     1.008
   29381       H       1     SIL   H00Ds       1     0.425     1.008
   29382       H       1     SIL   H00Dt       1     0.425     1.008
   29383       H       1     SIL   H00Du       1     0.425     1.008
   29384       H       1     SIL   H00Dv       1     0.425     1.008
   29385       H       1     SIL   H00Dw       1     0.425     1.008
   29386       H       1     SIL   H00Dx       1     0.425     1.008
   29387       H       1     SIL   H00Dy       1     0.425     1.008
   29388       H       1     SIL   H00Dz       1     0.425     1.008
   29389       H       1     SIL   H00E0       1     0.425     1.008
   29390       H       1     SIL   H00E1       1     0.425     1.008
   29391       H       1     SIL   H00E2       1     0.425     1.008
   29392       H       1     SIL   H00E3       1     0.425     1.008
   29393       H       1     SIL   H00E4       1     0.425     1.008
   29394       H       1     SIL   H00E5       1     0.425     1.008
   29395       H       1     SIL   H00E6       1     0.425     1.008
   29396       H       1     SIL   H00E7       1     0.425     1.008
   29397       H       1     SIL   H00E8       1     0.425     1.008
   29398       H       1     SIL   H00E9       1     0.425     1.008
   29399       H       1     SIL   H00EA       1     0.425     1.008
   29400       H       1     SIL   H00EB       1     0.425     1.008
   29401       H       1     SIL   H00EC       1     0.425     1.008
   29402       H       1     SIL   H00ED       1     0.425     1.008
   29403       H       1     SIL   H00EE       1     0.425     1.008
   29404       H       1     SIL   H00EF       1     0.425     1.008
   29405       H       1     SIL   H00EG       1     0.425     1.008
   29406       H       1     SIL   H00EH       1     0.425     1.008
   29407       H       1     SIL   H00EI       1     0.425     1.008
   29408       H       1     SIL   H00EJ       1     0.425     1.008
   29409       H       1     SIL   H00EK       1     0.425     1.008
   29410       H       1     SIL   H00EL       1     0.425     1.008
   29411       H       1     SIL   H00EM       1     0.425     1.008
   29412       H       1     SIL   H00EN       1     0.425     1.008
   29413       H       1     SIL   H00EO       1     0.425     1.008
   29414       H       1     SIL   H00EP       1     0.425     1.008
   29415       H       1     SIL   H00EQ       1     0.425     1.008
   29416       H       1     SIL   H00ER       1     0.425     1.008
   29417       H       1     SIL   H00ES       1     0.425     1.008
   29418       H       1     SIL   H00ET       1     0.425     1.008
   29419       H       1     SIL   H00EU       1     0.425     1.008
   29420       H       1     SIL   H00EV       1     0.425     1.008
   29421       H       1     SIL   H00EW       1     0.425     1.008
   29422       H       1     SIL   H00EX       1     0.425     1.008
   29423       H       1     SIL   H00EY       1     0.425     1.008
   29424       H       1     SIL   H00EZ       1     0.425     1.008
   29425       H       1     SIL   H00Ea       1     0.425     1.008
   29426       H       1     SIL   H00Eb       1     0.425     1.008
   29427       H       1     SIL   H00Ec       1     0.425     1.008
   29428       H       1     SIL   H00Ed       1     0.425     1.008
   29429       H       1     SIL   H00Ee       1     0.425     1.008
   29430       H       1     SIL   H00Ef       1     0.425     1.008
   29431       H       1     SIL   H00Eg       1     0.425     1.008
   29432       H       1     SIL   H00Eh       1     0.425     1.008
   29433       H       1     SIL   H00Ei       1     0.425     1.008
   29434       H       1     SIL   H00Ej       1     0.425     1.008
   29435       H       1     SIL   H00Ek       1     0.425     1.008
   29436       H       1     SIL   H00El       1     0.425     1.008
   29437       H       1     SIL   H00Em       1     0.425     1.008
   29438       H       1     SIL   H00En       1     0.425     1.008
   29439       H       1     SIL   H00Eo       1     0.425     1.008
   29440       H       1     SIL   H00Ep       1     0.425     1.008


[ bonds ]
;      i       j    func      b0
       5   29200       1
       6   28556       1
      13   29386       1
      14   28533       1
      21   29047       1
      22   28736       1
      29   29135       1
      30   28773       1
      37   29365       1
      38   28979       1
      45   29355       1
      46   28943       1
      53   29243       1
      54   28910       1
      61   29046       1
      62   28722       1
      69   29069       1
      70   28578       1
      77   29335       1
      78   28600       1
      85   29093       1
      86   28792       1
      93   29235       1
      94   28812       1
     101   28993       1
     102   28864       1
     109   29391       1
     110   28839       1
     117   29209       1
     118   28694       1
     125   29266       1
     126   28683       1
     133   29433       1
     134   28780       1
     141   29193       1
     142   28629       1
     149   29274       1
     150   28655       1
     157   29189       1
     158   28729       1
     165   29024       1
     166   28884       1
     173   29199       1
     174   28634       1
     181   29125       1
     182   28698       1
     189   29178       1
     190   28922       1
     197   29437       1
     198   28692       1
     205   28984       1
     206   28929       1
     213   29010       1
     214   28543       1
     221   29016       1
     222   28746       1
     229   29247       1
     230   28681       1
     237   29268       1
     238   28801       1
     245   29418       1
     246   28572       1
     253   29021       1
     254   28574       1
     261   29222       1
     262   28849       1
     269   29118       1
     270   28642       1
     277   29385       1
     278   28740       1
     285   29251       1
     286   28731       1
     293   29179       1
     294   28974       1
     301   29263       1
     302   28745       1
     309   29110       1
     310   28710       1
     317   29373       1
     318   28678       1
     325   29147       1
     326   28639       1
     333   29307       1
     334   28762       1
     341   29410       1
     342   28895       1
     349   29124       1
     350   28605       1
     357   29424       1
     358   28564       1
     365   29319       1
     366   28554       1
     373   29195       1
     374   28713       1
     381   29141       1
     382   28544       1
     389   29121       1
     390   28972       1
     397   29004       1
     398   28886       1
     405   29366       1
     406   28682       1
     413   29257       1
     414   28706       1
     421   29280       1
     422   28702       1
     429   29126       1
     430   28968       1
     437   29033       1
     438   28797       1
     445   29352       1
     446   28551       1
     453   29252       1
     454   28763       1
     461   29184       1
     462   28623       1
     469   29313       1
     470   28944       1
     477   29035       1
     478   28962       1
     485   29216       1
     486   28726       1
     493   29097       1
     494   28938       1
     501   29246       1
     502   28594       1
     509   29397       1
     510   28939       1
     517   29153       1
     518   28824       1
     525   28997       1
     526   28676       1
     533   29305       1
     534   28727       1
     541   29267       1
     542   28909       1
     549   29242       1
     550   28961       1
     557   29173       1
     558   28626       1
     565   29341       1
     566   28742       1
     573   29089       1
     574   28771       1
     581   29277       1
     582   28845       1
     589   29428       1
     590   28844       1
     597   29217       1
     598   28804       1
     605   29165       1
     606   28830       1
     613   29422       1
     614   28721       1
     621   29294       1
     622   28719       1
     629   29020       1
     630   28842       1
     637   29272       1
     638   28826       1
     645   29281       1
     646   28896       1
     653   29233       1
     654   28755       1
     661   29405       1
     662   28959       1
     669   29134       1
     670   28861       1
     677   29360       1
     678   28862       1
     685   29336       1
     686   28618       1
     693   29027       1
     694   28609       1
     701   29380       1
     702   28675       1
     709   29398       1
     710   28807       1
     717   29112       1
     718   28667       1
     725   29066       1
     726   28697       1
     733   29012       1
     734   28673       1
     741   29420       1
     742   28805       1
     749   29042       1
     750   28971       1
     757   29207       1
     758   28904       1
     765   29149       1
     766   28767       1
     773   29084       1
     774   28934       1
     781   29379       1
     782   28766       1
     789   29013       1
     790   28831       1
     797   29070       1
     798   28878       1
     805   29221       1
     806   28652       1
     813   29007       1
     814   28699       1
     821   28981       1
     822   28828       1
     829   29114       1
     830   28679       1
     837   29354       1
     838   28802       1
     845   29026       1
     846   28823       1
     853   29111       1
     854   28653       1
     861   29190       1
     862   28978       1
     869   29072       1
     870   28855       1
     877   29094       1
     878   28687       1
     885   29052       1
     886   28776       1
     893   29330       1
     894   28952       1
     901   29172       1
     902   28850       1
     909   29218       1
     910   28859       1
     917   29392       1
     918   28975       1
     925   29413       1
     926   28890       1
     933   29308       1
     934   28872       1
     941   29337       1
     942   28624       1
     949   29389       1
     950   28700       1
     957   29271       1
     958   28820       1
     965   29361       1
     966   28948       1
     973   29182       1
     974   28588       1
     981   29425       1
     982   28663       1
     989   29239       1
     990   28704       1
     997   29095       1
     998   28597       1
    1005   29080       1
    1006   28913       1
    1013   29384       1
    1014   28741       1
    1021   29367       1
    1022   28876       1
    1029   29403       1
    1030   28563       1
    1037   29219       1
    1038   28881       1
    1045   29349       1
    1046   28787       1
    1053   29108       1
    1054   28782       1
    1061   29060       1
    1062   28867       1
    1069   29048       1
    1070   28947       1
    1077   29350       1
    1078   28916       1
    1085   28991       1
    1086   28854       1
    1093   29127       1
    1094   28761       1
    1101   29237       1
    1102   28619       1
    1109   29315       1
    1110   28772       1
    1117   29402       1
    1118   28549       1
    1125   29166       1
    1126   28636       1
    1133   29212       1
    1134   28733       1
    1141   29194       1
    1142   28965       1
    1149   29414       1
    1150   28748       1
    1157   29327       1
    1158   28798       1
    1165   29399       1
    1166   28757       1
    1173   29086       1
    1174   28891       1
    1181   29369       1
    1182   28528       1
    1189   29091       1
    1190   28724       1
    1197   29202       1
    1198   28739       1
    1205   29213       1
    1206   28847       1
    1213   28983       1
    1214   28764       1
    1221   29284       1
    1222   28709       1
    1229   29317       1
    1230   28902       1
    1237   29181       1
    1238   28892       1
    1245   29038       1
    1246   28806       1
    1253   29188       1
    1254   28590       1
    1261   29039       1
    1262   28822       1
    1269   29346       1
    1270   28688       1
    1277   29421       1
    1278   28657       1
    1285   29264       1
    1286   28790       1
    1293   29290       1
    1294   28969       1
    1301   29104       1
    1302   28911       1
    1309   29298       1
    1310   28964       1
    1317   29259       1
    1318   28664       1
    1325   29119       1
    1326   28942       1
    1333   29085       1
    1334   28670       1
    1341   29130       1
    1342   28835       1
    1349   29187       1
    1350   28569       1
    1357   29161       1
    1358   28840       1
    1365   29244       1
    1366   28584       1
    1373   29438       1
    1374   28725       1
    1381   29291       1
    1382   28701       1
    1389   29082       1
    1390   28794       1
    1397   29419       1
    1398   28758       1
    1405   28989       1
    1406   28768       1
    1413   29362       1
    1414   28779       1
    1421   29279       1
    1422   28555       1
    1429   29055       1
    1430   28625       1
    1437   29394       1
    1438   28714       1
    1445   29098       1
    1446   28620       1
    1453   29171       1
    1454   28632       1
    1461   29056       1
    1462   28808       1
    1469   29008       1
    1470   28690       1
    1477   29176       1
    1478   28606       1
    1485   29129       1
    1486   28928       1
    1493   29090       1
    1494   28612       1
    1501   29150       1
    1502   28703       1
    1509   29250       1
    1510   28567       1
    1517   29133       1
    1518   28769       1
    1525   29408       1
    1526   28774       1
    1533   29198       1
    1534   28853       1
    1541   29374       1
    1542   28737       1
    1549   29353       1
    1550   28654       1
    1557   29034       1
    1558   28863       1
    1565   29328       1
    1566   28603       1
    1573   29300       1
    1574   28917       1
    1581   29191       1
    1582   28860       1
    1589   29249       1
    1590   28836       1
    1597   29102       1
    1598   28883       1
    1605   29396       1
    1606   28582       1
    1613   29142       1
    1614   28666       1
    1621   29022       1
    1622   28583       1
    1629   29225       1
    1630   28537       1
    1637   29054       1
    1638   28882       1
    1645   29381       1
    1646   28796       1
    1653   29427       1
    1654   28575       1
    1661   29003       1
    1662   28602       1
    1669   29224       1
    1670   28814       1
    1677   29105       1
    1678   28940       1
    1685   29030       1
    1686   28545       1
    1693   29116       1
    1694   28858       1
    1701   29368       1
    1702   28750       1
    1709   29183       1
    1710   28693       1
    1717   29157       1
    1718   28661       1
    1725   29248       1
    1726   28627       1
    1733   29387       1
    1734   28644       1
    1741   29376       1
    1742   28749       1
    1749   29323       1
    1750   28524       1
    1757   29175       1
    1758   28621       1
    1765   29231       1
    1766   28809       1
    1773   29309       1
    1774   28973       1
    1781   29301       1
    1782   28568       1
    1789   29432       1
    1790   28976       1
    1797   29203       1
    1798   28552       1
    1805   29120       1
    1806   28662       1
    1813   29230       1
    1814   28650       1
    1821   29322       1
    1822   28734       1
    1829   29174       1
    1830   28616       1
    1837   29383       1
    1838   28930       1
    1845   29167       1
    1846   28906       1
    1853   29025       1
    1854   28980       1
    1861   29088       1
    1862   28953       1
    1869   29326       1
    1870   28660       1
    1877   29028       1
    1878   28557       1
    1885   29431       1
    1886   28977       1
    1893   29040       1
    1894   28799       1
    1901   29185       1
    1902   28587       1
    1909   29214       1
    1910   28898       1
    1917   29292       1
    1918   28649       1
    1925   29205       1
    1926   28553       1
    1933   29302       1
    1934   28538       1
    1941   29015       1
    1942   28770       1
    1949   29234       1
    1950   28743       1
    1957   29270       1
    1958   28604       1
    1965   29051       1
    1966   28638       1
    1973   29067       1
    1974   28791       1
    1981   28990       1
    1982   28789       1
    1989   29032       1
    1990   28816       1
    1997   29075       1
    1998   28559       1
    2005   29325       1
    2006   28607       1
    2013   29081       1
    2014   28547       1
    2021   29358       1
    2022   28957       1
    2029   28986       1
    2030   28949       1
    2037   29356       1
    2038   28800       1
    2045   29256       1
    2046   28954       1
    2053   29269       1
    2054   28712       1
    2061   29002       1
    2062   28912       1
    2069   29122       1
    2070   28866       1
    2077   29388       1
    2078   28834       1
    2085   29037       1
    2086   28870       1
    2093   29320       1
    2094   28614       1
    2101   29331       1
    2102   28899       1
    2109   29017       1
    2110   28756       1
    2117   29400       1
    2118   28592       1
    2125   29236       1
    2126   28715       1
    2133   29208       1
    2134   28966       1
    2141   29370       1
    2142   28951       1
    2149   29342       1
    2150   28865       1
    2157   29311       1
    2158   28907       1
    2165   29306       1
    2166   28759       1
    2173   29096       1
    2174   28615       1
    2181   29099       1
    2182   28958       1
    2189   29338       1
    2190   28558       1
    2197   29347       1
    2198   28795       1
    2205   29220       1
    2206   28829       1
    2213   29050       1
    2214   28753       1
    2221   29059       1
    2222   28718       1
    2229   29087       1
    2230   28671       1
    2237   29158       1
    2238   28963       1
    2245   29241       1
    2246   28945       1
    2253   29197       1
    2254   28918       1
    2261   29371       1
    2262   28593       1
    2269   29382       1
    2270   28935       1
    2277   29063       1
    2278   28838       1
    2285   29344       1
    2286   28788       1
    2293   29215       1
    2294   28751       1
    2301   29226       1
    2302   28915       1
    2309   29107       1
    2310   28677       1
    2317   29103       1
    2318   28933       1
    2325   29005       1
    2326   28889       1
    2333   29278       1
    2334   28535       1
    2341   29297       1
    2342   28640       1
    2349   29436       1
    2350   28811       1
    2357   29321       1
    2358   28874       1
    2365   29115       1
    2366   28565       1
    2373   29076       1
    2374   28960       1
    2381   29155       1
    2382   28843       1
    2389   29238       1
    2390   28527       1
    2397   29077       1
    2398   28562       1
    2405   29058       1
    2406   28970       1
    2413   29145       1
    2414   28684       1
    2421   29144       1
    2422   28937       1
    2429   29211       1
    2430   28888       1
    2437   29299       1
    2438   28880       1
    2445   29333       1
    2446   28591       1
    2453   29006       1
    2454   28541       1
    2461   29136       1
    2462   28735       1
    2469   29160       1
    2470   28841       1
    2477   28998       1
    2478   28732       1
    2485   29261       1
    2486   28610       1
    2493   29289       1
    2494   28539       1
    2501   29334       1
    2502   28924       1
    2509   29332       1
    2510   28817       1
    2517   28988       1
    2518   28833       1
    2525   29031       1
    2526   28781       1
    2533   29364       1
    2534   28879       1
    2541   29254       1
    2542   28723       1
    2549   29404       1
    2550   28595       1
    2557   29340       1
    2558   28560       1
    2565   29018       1
    2566   28534       1
    2573   29146       1
    2574   28622       1
    2581   29154       1
    2582   28941       1
    2589   29101       1
    2590   28871       1
    2597   29079       1
    2598   28786       1
    2605   29375       1
    2606   28531       1
    2613   29415       1
    2614   28803       1
    2621   29434       1
    2622   28608       1
    2629   29343       1
    2630   28887       1
    2637   29260       1
    2638   28827       1
    2645   29378       1
    2646   28900       1
    2653   29011       1
    2654   28825       1
    2661   28995       1
    2662   28566       1
    2669   29062       1
    2670   28601       1
    2677   29406       1
    2678   28630       1
    2685   29417       1
    2686   28530       1
    2693   29377       1
    2694   28689       1
    2701   29092       1
    2702   28611       1
    2709   29073       1
    2710   28571       1
    2717   29180       1
    2718   28596       1
    2725   29265       1
    2726   28894       1
    2733   29204       1
    2734   28738       1
    2741   29258       1
    2742   28778       1
    2749   29071       1
    2750   28696       1
    2757   29169       1
    2758   28936       1
    2765   29276       1
    2766   28784       1
    2773   29295       1
    2774   28637       1
    2781   29210       1
    2782   28868       1
    2789   29310       1
    2790   28613       1
    2797   29439       1
    2798   28589       1
    2805   29227       1
    2806   28651       1
    2813   29229       1
    2814   28747       1
    2821   29029       1
    2822   28793       1
    2829   29083       1
    2830   28540       1
    2837   29283       1
    2838   28658       1
    2845   29314       1
    2846   28927       1
    2853   29061       1
    2854   28873       1
    2861   29156       1
    2862   28777       1
    2869   29138       1
    2870   28821       1
    2877   29078       1
    2878   28905       1
    2885   29286       1
    2886   28923       1
    2893   29351       1
    2894   28946       1
    2901   29285       1
    2902   28920       1
    2909   28996       1
    2910   28852       1
    2917   29148       1
    2918   28925       1
    2925   29065       1
    2926   28628       1
    2933   28999       1
    2934   28645       1
    2941   29359       1
    2942   28599       1
    2949   29411       1
    2950   28669       1
    2957   29228       1
    2958   28846       1
    2965   29253       1
    2966   28685       1
    2973   29416       1
    2974   28875       1
    2981   29393       1
    2982   28885       1
    2989   29345       1
    2990   28903       1
    2997   29440       1
    2998   28646       1
    3005   29348       1
    3006   28532       1
    3013   29000       1
    3014   28967       1
    3021   29132       1
    3022   28785       1
    3029   29023       1
    3030   28580       1
    3037   29262       1
    3038   28708       1
    3045   29100       1
    3046   28711       1
    3053   29409       1
    3054   28815       1
    3061   28987       1
    3062   28716       1
    3069   29282       1
    3070   28617       1
    3077   29430       1
    3078   28576       1
    3085   29170       1
    3086   28521       1
    3093   29395       1
    3094   28633       1
    3101   29113       1
    3102   28901       1
    3109   29329       1
    3110   28837       1
    3117   29128       1
    3118   28641       1
    3125   29151       1
    3126   28550       1
    3133   29390       1
    3134   28526       1
    3141   29412       1
    3142   28857       1
    3149   29043       1
    3150   28919       1
    3157   29255       1
    3158   28955       1
    3165   29232       1
    3166   28760       1
    3173   28992       1
    3174   28570       1
    3181   29131       1
    3182   28851       1
    3189   29168       1
    3190   28561       1
    3197   29339       1
    3198   28775       1
    3205   29049       1
    3206   28783       1
    3213   29106       1
    3214   28674       1
    3221   29435       1
    3222   28536       1
    3229   29401       1
    3230   28877       1
    3237   29363       1
    3238   28656       1
    3245   29041       1
    3246   28577       1
    3253   29163       1
    3254   28832       1
    3261   29196       1
    3262   28908       1
    3269   29287       1
    3270   28542       1
    3277   28982       1
    3278   28926       1
    3285   29372       1
    3286   28956       1
    3293   29275       1
    3294   28897       1
    3301   29192       1
    3302   28819       1
    3309   29009       1
    3310   28705       1
    3317   29303       1
    3318   28522       1
    3325   29273       1
    3326   28648       1
    3333   29324       1
    3334   28856       1
    3341   29201       1
    3342   28744       1
    3349   29140       1
    3350   28586       1
    3357   29123       1
    3358   28647       1
    3365   29137       1
    3366   28765       1
    3373   28994       1
    3374   28754       1
    3381   29143       1
    3382   28848       1
    3389   29304       1
    3390   28695       1
    3397   29044       1
    3398   28728       1
    3405   29053       1
    3406   28573       1
    3413   29117       1
    3414   28720       1
    3421   29045       1
    3422   28581       1
    3429   29109       1
    3430   28579       1
    3437   29293       1
    3438   28869       1
    3445   29223       1
    3446   28810       1
    3453   29014       1
    3454   28523       1
    3461   29407       1
    3462   28680       1
    3469   29057       1
    3470   28752       1
    3477   29162       1
    3478   28585       1
    3485   29074       1
    3486   28717       1
    3493   28985       1
    3494   28730       1
    3501   29316       1
    3502   28525       1
    3509   29152       1
    3510   28921       1
    3517   29068       1
    3518   28635       1
    3525   29001       1
    3526   28598       1
    3533   29177       1
    3534   28665       1
    3541   29164       1
    3542   28686       1
    3549   29206       1
    3550   28818       1
    3557   29423       1
    3558   28893       1
    3565   29426       1
    3566   28548       1
    3573   29312       1
    3574   28643       1
    3581   29357       1
    3582   28672       1
    3589   29318       1
    3590   28950       1
    3597   29240       1
    3598   28529       1
    3605   29064       1
    3606   28914       1
    3613   29429       1
    3614   28659       1
    3621   29296       1
    3622   28931       1
    3629   29245       1
    3630   28546       1
    3637   29186       1
    3638   28932       1
    3645   29159       1
    3646   28813       1
    3653   29288       1
    3654   28631       1
    3661   29019       1
    3662   28691       1
    3669   29036       1
    3670   28668       1
    3677   29139       1
    3678   28707       1


