Generated with MDTraj, t= 0.0
 34694
    1MUSC K0001    1   9.752   0.815   0.845
    1MUSC K0002    2   0.123   0.362   0.845
    1MUSC Al001    3   0.042   0.526   0.343
    1MUSC Al002    4   0.035   0.831   0.344
    1MUSC Al003    5   0.387   0.526   3.355
    1MUSC Al004    6   0.211   0.831   1.346
    1MUSC Al005    7   0.302   0.074   0.343
    1MUSC Al006    8   0.296   0.379   0.344
    1MUSC Al007    9   0.127   0.074   3.355
    1MUSC Al008   10   9.840   0.379   1.346
    1MUSC Si001   11   0.218   0.841   3.621
    1MUSC Si002   12   9.749   0.517   1.080
    1MUSC Si003   13   0.211   0.841   0.077
    1MUSC Si004   14   0.386   0.517   0.610
    1MUSC Si005   15   9.847   0.686   0.077
    1MUSC Si006   16   0.119   0.672   0.610
    1MUSC Si007   17   0.471   0.686   3.620
    1MUSC Si008   18   0.127   0.672   1.081
    1MUSC Si009   19   0.478   0.389   3.621
    1MUSC Si00A   20   0.120   0.064   1.080
    1MUSC Si00B   21   9.840   0.389   0.077
    1MUSC Si00C   22   0.126   0.064   0.610
    1MUSC Si00D   23   0.218   0.233   0.077
    1MUSC Si00E   24   0.379   0.219   0.610
    1MUSC Si00F   25   0.211   0.233   3.620
    1MUSC Si00G   26   9.756   0.219   1.081
    1MUSC O0001   27   9.870   0.675   0.236
    1MUSC O0002   28   0.097   0.683   0.451
    1MUSC O0003   29   0.449   0.675   3.461
    1MUSC O0004   30   0.149   0.683   1.240
    1MUSC O0005   31   0.236   0.495   3.453
    1MUSC O0006   32   9.731   0.863   1.248
    1MUSC O0007   33   0.193   0.495   0.245
    1MUSC O0008   34   0.404   0.863   0.442
    1MUSC O0009   35   0.096   0.744   3.672
    1MUSC O000A   36   9.871   0.614   1.029
    1MUSC O000B   37   0.333   0.744   0.025
    1MUSC O000C   38   0.264   0.614   0.662
    1MUSC O000D   39   0.074   0.781   0.006
    1MUSC O000E   40   0.003   0.577   0.681
    1MUSC O000F   41   0.355   0.781   3.692
    1MUSC O000G   42   0.243   0.577   1.009
    1MUSC O000H   43   9.864   0.537   0.006
    1MUSC O000I   44   0.103   0.821   0.681
    1MUSC O000J   45   0.455   0.537   3.691
    1MUSC O000K   46   0.143   0.821   1.010
    1MUSC O000L   47   0.236   0.853   3.461
    1MUSC O000M   48   9.731   0.505   1.240
    1MUSC O000N   49   0.193   0.853   0.236
    1MUSC O000O   50   0.405   0.505   0.451
    1MUSC O000P   51   0.240   0.222   0.236
    1MUSC O000Q   52   0.357   0.230   0.451
    1MUSC O000R   53   0.189   0.222   3.461
    1MUSC O000S   54   9.778   0.230   1.240
    1MUSC O000T   55   0.496   0.042   3.453
    1MUSC O000U   56   0.102   0.410   1.248
    1MUSC O000V   57   9.822   0.042   0.245
    1MUSC O000W   58   0.144   0.410   0.442
    1MUSC O000X   59   0.356   0.291   3.672
    1MUSC O000Y   60   0.242   0.162   1.029
    1MUSC O000Z   61   0.073   0.291   0.025
    1MUSC O000a   62   0.004   0.162   0.662
    1MUSC O000b   63   0.334   0.328   0.006
    1MUSC O000c   64   0.263   0.125   0.681
    1MUSC O000d   65   0.095   0.328   3.692
    1MUSC O000e   66   9.872   0.125   1.009
    1MUSC O000f   67   0.234   0.084   0.006
    1MUSC O000g   68   0.363   0.368   0.681
    1MUSC O000h   69   0.195   0.084   3.691
    1MUSC O000i   70   9.772   0.368   1.010
    1MUSC O000j   71   0.496   0.400   3.461
    1MUSC O000k   72   0.102   0.052   1.240
    1MUSC O000l   73   9.822   0.400   0.236
    1MUSC O000m   74   0.144   0.052   0.451
    1MUSC K0003   75   0.031   0.543   1.849
    1MUSC K0004   76   9.569   0.815   2.852
    1MUSC K0005   77   9.661   0.090   1.849
    1MUSC K0006   78   9.829   0.362   2.852
    1MUSC Al009   79   9.748   0.526   2.350
    1MUSC Al00A   80   9.742   0.831   2.351
    1MUSC Al00B   81   0.204   0.526   1.348
    1MUSC Al00C   82   0.028   0.831   3.353
    1MUSC Al00D   83   0.119   0.074   2.350
    1MUSC Al00E   84   0.113   0.379   2.351
    1MUSC Al00F   85   9.833   0.074   1.348
    1MUSC Al00G   86   9.657   0.379   3.353
    1MUSC Si00H   87   0.035   0.841   1.614
    1MUSC Si00I   88   9.566   0.517   3.087
    1MUSC Si00J   89   0.028   0.841   2.084
    1MUSC Si00K   90   0.203   0.517   2.617
    1MUSC Si00L   91   9.664   0.686   2.084
    1MUSC Si00M   92   9.825   0.672   2.617
    1MUSC Si00N   93   0.288   0.686   1.613
    1MUSC Si00O   94   9.833   0.672   3.088
    1MUSC Si00P   95   0.295   0.389   1.614
    1MUSC Si00Q   96   9.826   0.064   3.087
    1MUSC Si00R   97   9.657   0.389   2.084
    1MUSC Si00S   98   9.832   0.064   2.617
    1MUSC Si00T   99   0.035   0.233   2.084
    1MUSC Si00U  100   0.196   0.219   2.617
    1MUSC Si00V  101   0.028   0.233   1.613
    1MUSC Si00W  102   9.573   0.219   3.088
    1MUSC O000n  103   9.687   0.675   2.243
    1MUSC O000o  104   9.803   0.683   2.458
    1MUSC O000p  105   0.266   0.675   1.454
    1MUSC O000q  106   9.855   0.683   3.247
    1MUSC O000r  107   0.053   0.495   1.446
    1MUSC O000s  108   9.548   0.863   3.255
    1MUSC O000t  109   0.010   0.495   2.252
    1MUSC O000u  110   0.221   0.863   2.449
    1MUSC O000v  111   9.802   0.744   1.665
    1MUSC O000w  112   9.688   0.614   3.036
    1MUSC O000x  113   0.150   0.744   2.032
    1MUSC O000y  114   0.081   0.614   2.669
    1MUSC O000z  115   9.780   0.781   2.013
    1MUSC O0010  116   9.709   0.577   2.688
    1MUSC O0011  117   0.172   0.781   1.685
    1MUSC O0012  118   0.060   0.577   3.016
    1MUSC O0013  119   9.681   0.537   2.013
    1MUSC O0014  120   9.809   0.821   2.688
    1MUSC O0015  121   0.272   0.537   1.684
    1MUSC O0016  122   9.849   0.821   3.017
    1MUSC O0017  123   0.053   0.853   1.454
    1MUSC O0018  124   9.548   0.505   3.247
    1MUSC O0019  125   0.010   0.853   2.243
    1MUSC O001A  126   0.222   0.505   2.458
    1MUSC O001B  127   0.057   0.222   2.243
    1MUSC O001C  128   0.174   0.230   2.458
    1MUSC O001D  129   0.006   0.222   1.454
    1MUSC O001E  130   9.595   0.230   3.247
    1MUSC O001F  131   0.313   0.042   1.446
    1MUSC O001G  132   9.808   0.410   3.255
    1MUSC O001H  133   9.639   0.042   2.252
    1MUSC O001I  134   9.850   0.410   2.449
    1MUSC O001J  135   0.173   0.291   1.665
    1MUSC O001K  136   0.059   0.162   3.036
    1MUSC O001L  137   9.779   0.291   2.032
    1MUSC O001M  138   9.710   0.162   2.669
    1MUSC O001N  139   0.151   0.328   2.013
    1MUSC O001O  140   0.080   0.125   2.688
    1MUSC O001P  141   9.801   0.328   1.685
    1MUSC O001Q  142   9.689   0.125   3.016
    1MUSC O001R  143   0.051   0.084   2.013
    1MUSC O001S  144   0.180   0.368   2.688
    1MUSC O001T  145   0.012   0.084   1.684
    1MUSC O001U  146   9.589   0.368   3.017
    1MUSC O001V  147   0.313   0.400   1.454
    1MUSC O001W  148   9.808   0.052   3.247
    1MUSC O001X  149   9.639   0.400   2.243
    1MUSC O001Y  150   9.851   0.052   2.458
    1MUSC K0007  151   9.752   1.720   0.845
    1MUSC K0008  152   0.123   1.268   0.845
    1MUSC Al00H  153   0.042   1.432   0.343
    1MUSC Al00I  154   0.035   1.737   0.344
    1MUSC Al00J  155   0.387   1.432   3.355
    1MUSC Al00K  156   0.211   1.737   1.346
    1MUSC Al00L  157   0.302   0.979   0.343
    1MUSC Al00M  158   0.296   1.284   0.344
    1MUSC Al00N  159   0.127   0.979   3.355
    1MUSC Al00O  160   9.840   1.284   1.346
    1MUSC Si00X  161   0.218   1.747   3.621
    1MUSC Si00Y  162   9.749   1.422   1.080
    1MUSC Si00Z  163   0.211   1.747   0.077
    1MUSC Si00a  164   0.386   1.422   0.610
    1MUSC Si00b  165   9.847   1.591   0.077
    1MUSC Si00c  166   0.119   1.577   0.610
    1MUSC Si00d  167   0.471   1.591   3.620
    1MUSC Si00e  168   0.127   1.577   1.081
    1MUSC Si00f  169   0.478   1.294   3.621
    1MUSC Si00g  170   0.120   0.969   1.080
    1MUSC Si00h  171   9.840   1.294   0.077
    1MUSC Si00i  172   0.126   0.969   0.610
    1MUSC Si00j  173   0.218   1.139   0.077
    1MUSC Si00k  174   0.379   1.124   0.610
    1MUSC Si00l  175   0.211   1.139   3.620
    1MUSC Si00m  176   9.756   1.124   1.081
    1MUSC O001Z  177   9.870   1.580   0.236
    1MUSC O001a  178   0.097   1.588   0.451
    1MUSC O001b  179   0.449   1.580   3.461
    1MUSC O001c  180   0.149   1.588   1.240
    1MUSC O001d  181   0.236   1.400   3.453
    1MUSC O001e  182   9.731   1.768   1.248
    1MUSC O001f  183   0.193   1.400   0.245
    1MUSC O001g  184   0.404   1.768   0.442
    1MUSC O001h  185   0.096   1.649   3.672
    1MUSC O001i  186   9.871   1.520   1.029
    1MUSC O001j  187   0.333   1.649   0.025
    1MUSC O001k  188   0.264   1.520   0.662
    1MUSC O001l  189   0.074   1.686   0.006
    1MUSC O001m  190   0.003   1.483   0.681
    1MUSC O001n  191   0.355   1.686   3.692
    1MUSC O001o  192   0.243   1.483   1.009
    1MUSC O001p  193   9.864   1.442   0.006
    1MUSC O001q  194   0.103   1.726   0.681
    1MUSC O001r  195   0.455   1.442   3.691
    1MUSC O001s  196   0.143   1.726   1.010
    1MUSC O001t  197   0.236   1.758   3.461
    1MUSC O001u  198   9.731   1.410   1.240
    1MUSC O001v  199   0.193   1.758   0.236
    1MUSC O001w  200   0.405   1.410   0.451
    1MUSC O001x  201   0.240   1.127   0.236
    1MUSC O001y  202   0.357   1.136   0.451
    1MUSC O001z  203   0.189   1.127   3.461
    1MUSC O0020  204   9.778   1.136   1.240
    1MUSC O0021  205   0.496   0.948   3.453
    1MUSC O0022  206   0.102   1.316   1.248
    1MUSC O0023  207   9.822   0.948   0.245
    1MUSC O0024  208   0.144   1.316   0.442
    1MUSC O0025  209   0.356   1.196   3.672
    1MUSC O0026  210   0.242   1.067   1.029
    1MUSC O0027  211   0.073   1.196   0.025
    1MUSC O0028  212   0.004   1.067   0.662
    1MUSC O0029  213   0.334   1.233   0.006
    1MUSC O002A  214   0.263   1.030   0.681
    1MUSC O002B  215   0.095   1.233   3.692
    1MUSC O002C  216   9.872   1.030   1.009
    1MUSC O002D  217   0.234   0.990   0.006
    1MUSC O002E  218   0.363   1.274   0.681
    1MUSC O002F  219   0.195   0.990   3.691
    1MUSC O002G  220   9.772   1.274   1.010
    1MUSC O002H  221   0.496   1.306   3.461
    1MUSC O002I  222   0.102   0.958   1.240
    1MUSC O002J  223   9.822   1.306   0.236
    1MUSC O002K  224   0.144   0.958   0.451
    1MUSC K0009  225   0.031   1.448   1.849
    1MUSC K000A  226   9.569   1.720   2.852
    1MUSC K000B  227   9.661   0.996   1.849
    1MUSC K000C  228   9.829   1.268   2.852
    1MUSC Al00P  229   9.748   1.432   2.350
    1MUSC Al00Q  230   9.742   1.737   2.351
    1MUSC Al00R  231   0.204   1.432   1.348
    1MUSC Al00S  232   0.028   1.737   3.353
    1MUSC Al00T  233   0.119   0.979   2.350
    1MUSC Al00U  234   0.113   1.284   2.351
    1MUSC Al00V  235   9.833   0.979   1.348
    1MUSC Al00W  236   9.657   1.284   3.353
    1MUSC Si00n  237   0.035   1.747   1.614
    1MUSC Si00o  238   9.566   1.422   3.087
    1MUSC Si00p  239   0.028   1.747   2.084
    1MUSC Si00q  240   0.203   1.422   2.617
    1MUSC Si00r  241   9.664   1.591   2.084
    1MUSC Si00s  242   9.825   1.577   2.617
    1MUSC Si00t  243   0.288   1.591   1.613
    1MUSC Si00u  244   9.833   1.577   3.088
    1MUSC Si00v  245   0.295   1.294   1.614
    1MUSC Si00w  246   9.826   0.969   3.087
    1MUSC Si00x  247   9.657   1.294   2.084
    1MUSC Si00y  248   9.832   0.969   2.617
    1MUSC Si00z  249   0.035   1.139   2.084
    1MUSC Si010  250   0.196   1.124   2.617
    1MUSC Si011  251   0.028   1.139   1.613
    1MUSC Si012  252   9.573   1.124   3.088
    1MUSC O002L  253   9.687   1.580   2.243
    1MUSC O002M  254   9.803   1.588   2.458
    1MUSC O002N  255   0.266   1.580   1.454
    1MUSC O002O  256   9.855   1.588   3.247
    1MUSC O002P  257   0.053   1.400   1.446
    1MUSC O002Q  258   9.548   1.768   3.255
    1MUSC O002R  259   0.010   1.400   2.252
    1MUSC O002S  260   0.221   1.768   2.449
    1MUSC O002T  261   9.802   1.649   1.665
    1MUSC O002U  262   9.688   1.520   3.036
    1MUSC O002V  263   0.150   1.649   2.032
    1MUSC O002W  264   0.081   1.520   2.669
    1MUSC O002X  265   9.780   1.686   2.013
    1MUSC O002Y  266   9.709   1.483   2.688
    1MUSC O002Z  267   0.172   1.686   1.685
    1MUSC O002a  268   0.060   1.483   3.016
    1MUSC O002b  269   9.681   1.442   2.013
    1MUSC O002c  270   9.809   1.726   2.688
    1MUSC O002d  271   0.272   1.442   1.684
    1MUSC O002e  272   9.849   1.726   3.017
    1MUSC O002f  273   0.053   1.758   1.454
    1MUSC O002g  274   9.548   1.410   3.247
    1MUSC O002h  275   0.010   1.758   2.243
    1MUSC O002i  276   0.222   1.410   2.458
    1MUSC O002j  277   0.057   1.127   2.243
    1MUSC O002k  278   0.174   1.136   2.458
    1MUSC O002l  279   0.006   1.127   1.454
    1MUSC O002m  280   9.595   1.136   3.247
    1MUSC O002n  281   0.313   0.948   1.446
    1MUSC O002o  282   9.808   1.316   3.255
    1MUSC O002p  283   9.639   0.948   2.252
    1MUSC O002q  284   9.850   1.316   2.449
    1MUSC O002r  285   0.173   1.196   1.665
    1MUSC O002s  286   0.059   1.067   3.036
    1MUSC O002t  287   9.779   1.196   2.032
    1MUSC O002u  288   9.710   1.067   2.669
    1MUSC O002v  289   0.151   1.233   2.013
    1MUSC O002w  290   0.080   1.030   2.688
    1MUSC O002x  291   9.801   1.233   1.685
    1MUSC O002y  292   9.689   1.030   3.016
    1MUSC O002z  293   0.051   0.990   2.013
    1MUSC O0030  294   0.180   1.274   2.688
    1MUSC O0031  295   0.012   0.990   1.684
    1MUSC O0032  296   9.589   1.274   3.017
    1MUSC O0033  297   0.313   1.306   1.454
    1MUSC O0034  298   9.808   0.958   3.247
    1MUSC O0035  299   9.639   1.306   2.243
    1MUSC O0036  300   9.851   0.958   2.458
    1MUSC K000D  301   9.752   2.626   0.845
    1MUSC K000E  302   0.123   2.173   0.845
    1MUSC Al00X  303   0.042   2.337   0.343
    1MUSC Al00Y  304   0.035   2.642   0.344
    1MUSC Al00Z  305   0.387   2.337   3.355
    1MUSC Al00a  306   0.211   2.642   1.346
    1MUSC Al00b  307   0.302   1.884   0.343
    1MUSC Al00c  308   0.296   2.189   0.344
    1MUSC Al00d  309   0.127   1.884   3.355
    1MUSC Al00e  310   9.840   2.189   1.346
    1MUSC Si013  311   0.218   2.652   3.621
    1MUSC Si014  312   9.749   2.327   1.080
    1MUSC Si015  313   0.211   2.652   0.077
    1MUSC Si016  314   0.386   2.327   0.610
    1MUSC Si017  315   9.847   2.497   0.077
    1MUSC Si018  316   0.119   2.482   0.610
    1MUSC Si019  317   0.471   2.497   3.620
    1MUSC Si01A  318   0.127   2.482   1.081
    1MUSC Si01B  319   0.478   2.199   3.621
    1MUSC Si01C  320   0.120   1.874   1.080
    1MUSC Si01D  321   9.840   2.199   0.077
    1MUSC Si01E  322   0.126   1.874   0.610
    1MUSC Si01F  323   0.218   2.044   0.077
    1MUSC Si01G  324   0.379   2.030   0.610
    1MUSC Si01H  325   0.211   2.044   3.620
    1MUSC Si01I  326   9.756   2.030   1.081
    1MUSC O0037  327   9.870   2.485   0.236
    1MUSC O0038  328   0.097   2.494   0.451
    1MUSC O0039  329   0.449   2.485   3.461
    1MUSC O003A  330   0.149   2.494   1.240
    1MUSC O003B  331   0.236   2.305   3.453
    1MUSC O003C  332   9.731   2.674   1.248
    1MUSC O003D  333   0.193   2.305   0.245
    1MUSC O003E  334   0.404   2.674   0.442
    1MUSC O003F  335   0.096   2.554   3.672
    1MUSC O003G  336   9.871   2.425   1.029
    1MUSC O003H  337   0.333   2.554   0.025
    1MUSC O003I  338   0.264   2.425   0.662
    1MUSC O003J  339   0.074   2.591   0.006
    1MUSC O003K  340   0.003   2.388   0.681
    1MUSC O003L  341   0.355   2.591   3.692
    1MUSC O003M  342   0.243   2.388   1.009
    1MUSC O003N  343   9.864   2.347   0.006
    1MUSC O003O  344   0.103   2.632   0.681
    1MUSC O003P  345   0.455   2.347   3.691
    1MUSC O003Q  346   0.143   2.632   1.010
    1MUSC O003R  347   0.236   2.663   3.461
    1MUSC O003S  348   9.731   2.316   1.240
    1MUSC O003T  349   0.193   2.663   0.236
    1MUSC O003U  350   0.405   2.316   0.451
    1MUSC O003V  351   0.240   2.033   0.236
    1MUSC O003W  352   0.357   2.041   0.451
    1MUSC O003X  353   0.189   2.033   3.461
    1MUSC O003Y  354   9.778   2.041   1.240
    1MUSC O003Z  355   0.496   1.853   3.453
    1MUSC O003a  356   0.102   2.221   1.248
    1MUSC O003b  357   9.822   1.853   0.245
    1MUSC O003c  358   0.144   2.221   0.442
    1MUSC O003d  359   0.356   2.101   3.672
    1MUSC O003e  360   0.242   1.972   1.029
    1MUSC O003f  361   0.073   2.101   0.025
    1MUSC O003g  362   0.004   1.972   0.662
    1MUSC O003h  363   0.334   2.139   0.006
    1MUSC O003i  364   0.263   1.935   0.681
    1MUSC O003j  365   0.095   2.139   3.692
    1MUSC O003k  366   9.872   1.935   1.009
    1MUSC O003l  367   0.234   1.895   0.006
    1MUSC O003m  368   0.363   2.179   0.681
    1MUSC O003n  369   0.195   1.895   3.691
    1MUSC O003o  370   9.772   2.179   1.010
    1MUSC O003p  371   0.496   2.211   3.461
    1MUSC O003q  372   0.102   1.863   1.240
    1MUSC O003r  373   9.822   2.211   0.236
    1MUSC O003s  374   0.144   1.863   0.451
    1MUSC K000F  375   0.031   2.353   1.849
    1MUSC K000G  376   9.569   2.626   2.852
    1MUSC K000H  377   9.661   1.901   1.849
    1MUSC K000I  378   9.829   2.173   2.852
    1MUSC Al00f  379   9.748   2.337   2.350
    1MUSC Al00g  380   9.742   2.642   2.351
    1MUSC Al00h  381   0.204   2.337   1.348
    1MUSC Al00i  382   0.028   2.642   3.353
    1MUSC Al00j  383   0.119   1.884   2.350
    1MUSC Al00k  384   0.113   2.189   2.351
    1MUSC Al00l  385   9.833   1.884   1.348
    1MUSC Al00m  386   9.657   2.189   3.353
    1MUSC Si01J  387   0.035   2.652   1.614
    1MUSC Si01K  388   9.566   2.327   3.087
    1MUSC Si01L  389   0.028   2.652   2.084
    1MUSC Si01M  390   0.203   2.327   2.617
    1MUSC Si01N  391   9.664   2.497   2.084
    1MUSC Si01O  392   9.825   2.482   2.617
    1MUSC Si01P  393   0.288   2.497   1.613
    1MUSC Si01Q  394   9.833   2.482   3.088
    1MUSC Si01R  395   0.295   2.199   1.614
    1MUSC Si01S  396   9.826   1.874   3.087
    1MUSC Si01T  397   9.657   2.199   2.084
    1MUSC Si01U  398   9.832   1.874   2.617
    1MUSC Si01V  399   0.035   2.044   2.084
    1MUSC Si01W  400   0.196   2.030   2.617
    1MUSC Si01X  401   0.028   2.044   1.613
    1MUSC Si01Y  402   9.573   2.030   3.088
    1MUSC O003t  403   9.687   2.485   2.243
    1MUSC O003u  404   9.803   2.494   2.458
    1MUSC O003v  405   0.266   2.485   1.454
    1MUSC O003w  406   9.855   2.494   3.247
    1MUSC O003x  407   0.053   2.305   1.446
    1MUSC O003y  408   9.548   2.674   3.255
    1MUSC O003z  409   0.010   2.305   2.252
    1MUSC O0040  410   0.221   2.674   2.449
    1MUSC O0041  411   9.802   2.554   1.665
    1MUSC O0042  412   9.688   2.425   3.036
    1MUSC O0043  413   0.150   2.554   2.032
    1MUSC O0044  414   0.081   2.425   2.669
    1MUSC O0045  415   9.780   2.591   2.013
    1MUSC O0046  416   9.709   2.388   2.688
    1MUSC O0047  417   0.172   2.591   1.685
    1MUSC O0048  418   0.060   2.388   3.016
    1MUSC O0049  419   9.681   2.347   2.013
    1MUSC O004A  420   9.809   2.632   2.688
    1MUSC O004B  421   0.272   2.347   1.684
    1MUSC O004C  422   9.849   2.632   3.017
    1MUSC O004D  423   0.053   2.663   1.454
    1MUSC O004E  424   9.548   2.316   3.247
    1MUSC O004F  425   0.010   2.663   2.243
    1MUSC O004G  426   0.222   2.316   2.458
    1MUSC O004H  427   0.057   2.033   2.243
    1MUSC O004I  428   0.174   2.041   2.458
    1MUSC O004J  429   0.006   2.033   1.454
    1MUSC O004K  430   9.595   2.041   3.247
    1MUSC O004L  431   0.313   1.853   1.446
    1MUSC O004M  432   9.808   2.221   3.255
    1MUSC O004N  433   9.639   1.853   2.252
    1MUSC O004O  434   9.850   2.221   2.449
    1MUSC O004P  435   0.173   2.101   1.665
    1MUSC O004Q  436   0.059   1.972   3.036
    1MUSC O004R  437   9.779   2.101   2.032
    1MUSC O004S  438   9.710   1.972   2.669
    1MUSC O004T  439   0.151   2.139   2.013
    1MUSC O004U  440   0.080   1.935   2.688
    1MUSC O004V  441   9.801   2.139   1.685
    1MUSC O004W  442   9.689   1.935   3.016
    1MUSC O004X  443   0.051   1.895   2.013
    1MUSC O004Y  444   0.180   2.179   2.688
    1MUSC O004Z  445   0.012   1.895   1.684
    1MUSC O004a  446   9.589   2.179   3.017
    1MUSC O004b  447   0.313   2.211   1.454
    1MUSC O004c  448   9.808   1.863   3.247
    1MUSC O004d  449   9.639   2.211   2.243
    1MUSC O004e  450   9.851   1.863   2.458
    1MUSC K000J  451   9.752   3.531   0.845
    1MUSC K000K  452   0.123   3.078   0.845
    1MUSC Al00n  453   0.042   3.242   0.343
    1MUSC Al00o  454   0.035   3.547   0.344
    1MUSC Al00p  455   0.387   3.242   3.355
    1MUSC Al00q  456   0.211   3.547   1.346
    1MUSC Al00r  457   0.302   2.790   0.343
    1MUSC Al00s  458   0.296   3.095   0.344
    1MUSC Al00t  459   0.127   2.790   3.355
    1MUSC Al00u  460   9.840   3.095   1.346
    1MUSC Si01Z  461   0.218   3.557   3.621
    1MUSC Si01a  462   9.749   3.232   1.080
    1MUSC Si01b  463   0.211   3.557   0.077
    1MUSC Si01c  464   0.386   3.232   0.610
    1MUSC Si01d  465   9.847   3.402   0.077
    1MUSC Si01e  466   0.119   3.388   0.610
    1MUSC Si01f  467   0.471   3.402   3.620
    1MUSC Si01g  468   0.127   3.388   1.081
    1MUSC Si01h  469   0.478   3.105   3.621
    1MUSC Si01i  470   0.120   2.780   1.080
    1MUSC Si01j  471   9.840   3.105   0.077
    1MUSC Si01k  472   0.126   2.780   0.610
    1MUSC Si01l  473   0.218   2.949   0.077
    1MUSC Si01m  474   0.379   2.935   0.610
    1MUSC Si01n  475   0.211   2.949   3.620
    1MUSC Si01o  476   9.756   2.935   1.081
    1MUSC O004f  477   9.870   3.391   0.236
    1MUSC O004g  478   0.097   3.399   0.451
    1MUSC O004h  479   0.449   3.391   3.461
    1MUSC O004i  480   0.149   3.399   1.240
    1MUSC O004j  481   0.236   3.211   3.453
    1MUSC O004k  482   9.731   3.579   1.248
    1MUSC O004l  483   0.193   3.211   0.245
    1MUSC O004m  484   0.404   3.579   0.442
    1MUSC O004n  485   0.096   3.459   3.672
    1MUSC O004o  486   9.871   3.330   1.029
    1MUSC O004p  487   0.333   3.459   0.025
    1MUSC O004q  488   0.264   3.330   0.662
    1MUSC O004r  489   0.074   3.496   0.006
    1MUSC O004s  490   0.003   3.293   0.681
    1MUSC O004t  491   0.355   3.496   3.692
    1MUSC O004u  492   0.243   3.293   1.009
    1MUSC O004v  493   9.864   3.253   0.006
    1MUSC O004w  494   0.103   3.537   0.681
    1MUSC O004x  495   0.455   3.253   3.691
    1MUSC O004y  496   0.143   3.537   1.010
    1MUSC O004z  497   0.236   3.569   3.461
    1MUSC O0050  498   9.731   3.221   1.240
    1MUSC O0051  499   0.193   3.569   0.236
    1MUSC O0052  500   0.405   3.221   0.451
    1MUSC O0053  501   0.240   2.938   0.236
    1MUSC O0054  502   0.357   2.946   0.451
    1MUSC O0055  503   0.189   2.938   3.461
    1MUSC O0056  504   9.778   2.946   1.240
    1MUSC O0057  505   0.496   2.758   3.453
    1MUSC O0058  506   0.102   3.126   1.248
    1MUSC O0059  507   9.822   2.758   0.245
    1MUSC O005A  508   0.144   3.126   0.442
    1MUSC O005B  509   0.356   3.007   3.672
    1MUSC O005C  510   0.242   2.877   1.029
    1MUSC O005D  511   0.073   3.007   0.025
    1MUSC O005E  512   0.004   2.877   0.662
    1MUSC O005F  513   0.334   3.044   0.006
    1MUSC O005G  514   0.263   2.840   0.681
    1MUSC O005H  515   0.095   3.044   3.692
    1MUSC O005I  516   9.872   2.840   1.009
    1MUSC O005J  517   0.234   2.800   0.006
    1MUSC O005K  518   0.363   3.084   0.681
    1MUSC O005L  519   0.195   2.800   3.691
    1MUSC O005M  520   9.772   3.084   1.010
    1MUSC O005N  521   0.496   3.116   3.461
    1MUSC O005O  522   0.102   2.768   1.240
    1MUSC O005P  523   9.822   3.116   0.236
    1MUSC O005Q  524   0.144   2.768   0.451
    1MUSC K000L  525   0.031   3.259   1.849
    1MUSC K000M  526   9.569   3.531   2.852
    1MUSC K000N  527   9.661   2.806   1.849
    1MUSC K000O  528   9.829   3.078   2.852
    1MUSC Al00v  529   9.748   3.242   2.350
    1MUSC Al00w  530   9.742   3.547   2.351
    1MUSC Al00x  531   0.204   3.242   1.348
    1MUSC Al00y  532   0.028   3.547   3.353
    1MUSC Al00z  533   0.119   2.790   2.350
    1MUSC Al010  534   0.113   3.095   2.351
    1MUSC Al011  535   9.833   2.790   1.348
    1MUSC Al012  536   9.657   3.095   3.353
    1MUSC Si01p  537   0.035   3.557   1.614
    1MUSC Si01q  538   9.566   3.232   3.087
    1MUSC Si01r  539   0.028   3.557   2.084
    1MUSC Si01s  540   0.203   3.232   2.617
    1MUSC Si01t  541   9.664   3.402   2.084
    1MUSC Si01u  542   9.825   3.388   2.617
    1MUSC Si01v  543   0.288   3.402   1.613
    1MUSC Si01w  544   9.833   3.388   3.088
    1MUSC Si01x  545   0.295   3.105   1.614
    1MUSC Si01y  546   9.826   2.780   3.087
    1MUSC Si01z  547   9.657   3.105   2.084
    1MUSC Si020  548   9.832   2.780   2.617
    1MUSC Si021  549   0.035   2.949   2.084
    1MUSC Si022  550   0.196   2.935   2.617
    1MUSC Si023  551   0.028   2.949   1.613
    1MUSC Si024  552   9.573   2.935   3.088
    1MUSC O005R  553   9.687   3.391   2.243
    1MUSC O005S  554   9.803   3.399   2.458
    1MUSC O005T  555   0.266   3.391   1.454
    1MUSC O005U  556   9.855   3.399   3.247
    1MUSC O005V  557   0.053   3.211   1.446
    1MUSC O005W  558   9.548   3.579   3.255
    1MUSC O005X  559   0.010   3.211   2.252
    1MUSC O005Y  560   0.221   3.579   2.449
    1MUSC O005Z  561   9.802   3.459   1.665
    1MUSC O005a  562   9.688   3.330   3.036
    1MUSC O005b  563   0.150   3.459   2.032
    1MUSC O005c  564   0.081   3.330   2.669
    1MUSC O005d  565   9.780   3.496   2.013
    1MUSC O005e  566   9.709   3.293   2.688
    1MUSC O005f  567   0.172   3.496   1.685
    1MUSC O005g  568   0.060   3.293   3.016
    1MUSC O005h  569   9.681   3.253   2.013
    1MUSC O005i  570   9.809   3.537   2.688
    1MUSC O005j  571   0.272   3.253   1.684
    1MUSC O005k  572   9.849   3.537   3.017
    1MUSC O005l  573   0.053   3.569   1.454
    1MUSC O005m  574   9.548   3.221   3.247
    1MUSC O005n  575   0.010   3.569   2.243
    1MUSC O005o  576   0.222   3.221   2.458
    1MUSC O005p  577   0.057   2.938   2.243
    1MUSC O005q  578   0.174   2.946   2.458
    1MUSC O005r  579   0.006   2.938   1.454
    1MUSC O005s  580   9.595   2.946   3.247
    1MUSC O005t  581   0.313   2.758   1.446
    1MUSC O005u  582   9.808   3.126   3.255
    1MUSC O005v  583   9.639   2.758   2.252
    1MUSC O005w  584   9.850   3.126   2.449
    1MUSC O005x  585   0.173   3.007   1.665
    1MUSC O005y  586   0.059   2.877   3.036
    1MUSC O005z  587   9.779   3.007   2.032
    1MUSC O0060  588   9.710   2.877   2.669
    1MUSC O0061  589   0.151   3.044   2.013
    1MUSC O0062  590   0.080   2.840   2.688
    1MUSC O0063  591   9.801   3.044   1.685
    1MUSC O0064  592   9.689   2.840   3.016
    1MUSC O0065  593   0.051   2.800   2.013
    1MUSC O0066  594   0.180   3.084   2.688
    1MUSC O0067  595   0.012   2.800   1.684
    1MUSC O0068  596   9.589   3.084   3.017
    1MUSC O0069  597   0.313   3.116   1.454
    1MUSC O006A  598   9.808   2.768   3.247
    1MUSC O006B  599   9.639   3.116   2.243
    1MUSC O006C  600   9.851   2.768   2.458
    1MUSC K000P  601   9.752   4.436   0.845
    1MUSC K000Q  602   0.123   3.983   0.845
    1MUSC Al013  603   0.042   4.147   0.343
    1MUSC Al014  604   0.035   4.453   0.344
    1MUSC Al015  605   0.387   4.147   3.355
    1MUSC Al016  606   0.211   4.453   1.346
    1MUSC Al017  607   0.302   3.695   0.343
    1MUSC Al018  608   0.296   4.000   0.344
    1MUSC Al019  609   0.127   3.695   3.355
    1MUSC Al01A  610   9.840   4.000   1.346
    1MUSC Si025  611   0.218   4.462   3.621
    1MUSC Si026  612   9.749   4.138   1.080
    1MUSC Si027  613   0.211   4.462   0.077
    1MUSC Si028  614   0.386   4.138   0.610
    1MUSC Si029  615   9.847   4.307   0.077
    1MUSC Si02A  616   0.119   4.293   0.610
    1MUSC Si02B  617   0.471   4.307   3.620
    1MUSC Si02C  618   0.127   4.293   1.081
    1MUSC Si02D  619   0.478   4.010   3.621
    1MUSC Si02E  620   0.120   3.685   1.080
    1MUSC Si02F  621   9.840   4.010   0.077
    1MUSC Si02G  622   0.126   3.685   0.610
    1MUSC Si02H  623   0.218   3.855   0.077
    1MUSC Si02I  624   0.379   3.840   0.610
    1MUSC Si02J  625   0.211   3.855   3.620
    1MUSC Si02K  626   9.756   3.840   1.081
    1MUSC O006D  627   9.870   4.296   0.236
    1MUSC O006E  628   0.097   4.304   0.451
    1MUSC O006F  629   0.449   4.296   3.461
    1MUSC O006G  630   0.149   4.304   1.240
    1MUSC O006H  631   0.236   4.116   3.453
    1MUSC O006I  632   9.731   4.484   1.248
    1MUSC O006J  633   0.193   4.116   0.245
    1MUSC O006K  634   0.404   4.484   0.442
    1MUSC O006L  635   0.096   4.365   3.672
    1MUSC O006M  636   9.871   4.235   1.029
    1MUSC O006N  637   0.333   4.365   0.025
    1MUSC O006O  638   0.264   4.235   0.662
    1MUSC O006P  639   0.074   4.402   0.006
    1MUSC O006Q  640   0.003   4.198   0.681
    1MUSC O006R  641   0.355   4.402   3.692
    1MUSC O006S  642   0.243   4.198   1.009
    1MUSC O006T  643   9.864   4.158   0.006
    1MUSC O006U  644   0.103   4.442   0.681
    1MUSC O006V  645   0.455   4.158   3.691
    1MUSC O006W  646   0.143   4.442   1.010
    1MUSC O006X  647   0.236   4.474   3.461
    1MUSC O006Y  648   9.731   4.126   1.240
    1MUSC O006Z  649   0.193   4.474   0.236
    1MUSC O006a  650   0.405   4.126   0.451
    1MUSC O006b  651   0.240   3.843   0.236
    1MUSC O006c  652   0.357   3.852   0.451
    1MUSC O006d  653   0.189   3.843   3.461
    1MUSC O006e  654   9.778   3.852   1.240
    1MUSC O006f  655   0.496   3.663   3.453
    1MUSC O006g  656   0.102   4.031   1.248
    1MUSC O006h  657   9.822   3.663   0.245
    1MUSC O006i  658   0.144   4.031   0.442
    1MUSC O006j  659   0.356   3.912   3.672
    1MUSC O006k  660   0.242   3.783   1.029
    1MUSC O006l  661   0.073   3.912   0.025
    1MUSC O006m  662   0.004   3.783   0.662
    1MUSC O006n  663   0.334   3.949   0.006
    1MUSC O006o  664   0.263   3.746   0.681
    1MUSC O006p  665   0.095   3.949   3.692
    1MUSC O006q  666   9.872   3.746   1.009
    1MUSC O006r  667   0.234   3.705   0.006
    1MUSC O006s  668   0.363   3.989   0.681
    1MUSC O006t  669   0.195   3.705   3.691
    1MUSC O006u  670   9.772   3.989   1.010
    1MUSC O006v  671   0.496   4.021   3.461
    1MUSC O006w  672   0.102   3.673   1.240
    1MUSC O006x  673   9.822   4.021   0.236
    1MUSC O006y  674   0.144   3.673   0.451
    1MUSC K000R  675   0.031   4.164   1.849
    1MUSC K000S  676   9.569   4.436   2.852
    1MUSC K000T  677   9.661   3.711   1.849
    1MUSC K000U  678   9.829   3.983   2.852
    1MUSC Al01B  679   9.748   4.147   2.350
    1MUSC Al01C  680   9.742   4.453   2.351
    1MUSC Al01D  681   0.204   4.147   1.348
    1MUSC Al01E  682   0.028   4.453   3.353
    1MUSC Al01F  683   0.119   3.695   2.350
    1MUSC Al01G  684   0.113   4.000   2.351
    1MUSC Al01H  685   9.833   3.695   1.348
    1MUSC Al01I  686   9.657   4.000   3.353
    1MUSC Si02L  687   0.035   4.462   1.614
    1MUSC Si02M  688   9.566   4.138   3.087
    1MUSC Si02N  689   0.028   4.462   2.084
    1MUSC Si02O  690   0.203   4.138   2.617
    1MUSC Si02P  691   9.664   4.307   2.084
    1MUSC Si02Q  692   9.825   4.293   2.617
    1MUSC Si02R  693   0.288   4.307   1.613
    1MUSC Si02S  694   9.833   4.293   3.088
    1MUSC Si02T  695   0.295   4.010   1.614
    1MUSC Si02U  696   9.826   3.685   3.087
    1MUSC Si02V  697   9.657   4.010   2.084
    1MUSC Si02W  698   9.832   3.685   2.617
    1MUSC Si02X  699   0.035   3.855   2.084
    1MUSC Si02Y  700   0.196   3.840   2.617
    1MUSC Si02Z  701   0.028   3.855   1.613
    1MUSC Si02a  702   9.573   3.840   3.088
    1MUSC O006z  703   9.687   4.296   2.243
    1MUSC O0070  704   9.803   4.304   2.458
    1MUSC O0071  705   0.266   4.296   1.454
    1MUSC O0072  706   9.855   4.304   3.247
    1MUSC O0073  707   0.053   4.116   1.446
    1MUSC O0074  708   9.548   4.484   3.255
    1MUSC O0075  709   0.010   4.116   2.252
    1MUSC O0076  710   0.221   4.484   2.449
    1MUSC O0077  711   9.802   4.365   1.665
    1MUSC O0078  712   9.688   4.235   3.036
    1MUSC O0079  713   0.150   4.365   2.032
    1MUSC O007A  714   0.081   4.235   2.669
    1MUSC O007B  715   9.780   4.402   2.013
    1MUSC O007C  716   9.709   4.198   2.688
    1MUSC O007D  717   0.172   4.402   1.685
    1MUSC O007E  718   0.060   4.198   3.016
    1MUSC O007F  719   9.681   4.158   2.013
    1MUSC O007G  720   9.809   4.442   2.688
    1MUSC O007H  721   0.272   4.158   1.684
    1MUSC O007I  722   9.849   4.442   3.017
    1MUSC O007J  723   0.053   4.474   1.454
    1MUSC O007K  724   9.548   4.126   3.247
    1MUSC O007L  725   0.010   4.474   2.243
    1MUSC O007M  726   0.222   4.126   2.458
    1MUSC O007N  727   0.057   3.843   2.243
    1MUSC O007O  728   0.174   3.852   2.458
    1MUSC O007P  729   0.006   3.843   1.454
    1MUSC O007Q  730   9.595   3.852   3.247
    1MUSC O007R  731   0.313   3.663   1.446
    1MUSC O007S  732   9.808   4.031   3.255
    1MUSC O007T  733   9.639   3.663   2.252
    1MUSC O007U  734   9.850   4.031   2.449
    1MUSC O007V  735   0.173   3.912   1.665
    1MUSC O007W  736   0.059   3.783   3.036
    1MUSC O007X  737   9.779   3.912   2.032
    1MUSC O007Y  738   9.710   3.783   2.669
    1MUSC O007Z  739   0.151   3.949   2.013
    1MUSC O007a  740   0.080   3.746   2.688
    1MUSC O007b  741   9.801   3.949   1.685
    1MUSC O007c  742   9.689   3.746   3.016
    1MUSC O007d  743   0.051   3.705   2.013
    1MUSC O007e  744   0.180   3.989   2.688
    1MUSC O007f  745   0.012   3.705   1.684
    1MUSC O007g  746   9.589   3.989   3.017
    1MUSC O007h  747   0.313   4.021   1.454
    1MUSC O007i  748   9.808   3.673   3.247
    1MUSC O007j  749   9.639   4.021   2.243
    1MUSC O007k  750   9.851   3.673   2.458
    1MUSC K000V  751   9.752   5.341   0.845
    1MUSC K000W  752   0.123   4.889   0.845
    1MUSC Al01J  753   0.042   5.053   0.343
    1MUSC Al01K  754   0.035   5.358   0.344
    1MUSC Al01L  755   0.387   5.053   3.355
    1MUSC Al01M  756   0.211   5.358   1.346
    1MUSC Al01N  757   0.302   4.600   0.343
    1MUSC Al01O  758   0.296   4.905   0.344
    1MUSC Al01P  759   0.127   4.600   3.355
    1MUSC Al01Q  760   9.840   4.905   1.346
    1MUSC Si02b  761   0.218   5.368   3.621
    1MUSC Si02c  762   9.749   5.043   1.080
    1MUSC Si02d  763   0.211   5.368   0.077
    1MUSC Si02e  764   0.386   5.043   0.610
    1MUSC Si02f  765   9.847   5.212   0.077
    1MUSC Si02g  766   0.119   5.198   0.610
    1MUSC Si02h  767   0.471   5.212   3.620
    1MUSC Si02i  768   0.127   5.198   1.081
    1MUSC Si02j  769   0.478   4.915   3.621
    1MUSC Si02k  770   0.120   4.590   1.080
    1MUSC Si02l  771   9.840   4.915   0.077
    1MUSC Si02m  772   0.126   4.590   0.610
    1MUSC Si02n  773   0.218   4.760   0.077
    1MUSC Si02o  774   0.379   4.746   0.610
    1MUSC Si02p  775   0.211   4.760   3.620
    1MUSC Si02q  776   9.756   4.746   1.081
    1MUSC O007l  777   9.870   5.201   0.236
    1MUSC O007m  778   0.097   5.209   0.451
    1MUSC O007n  779   0.449   5.201   3.461
    1MUSC O007o  780   0.149   5.209   1.240
    1MUSC O007p  781   0.236   5.021   3.453
    1MUSC O007q  782   9.731   5.389   1.248
    1MUSC O007r  783   0.193   5.021   0.245
    1MUSC O007s  784   0.404   5.389   0.442
    1MUSC O007t  785   0.096   5.270   3.672
    1MUSC O007u  786   9.871   5.141   1.029
    1MUSC O007v  787   0.333   5.270   0.025
    1MUSC O007w  788   0.264   5.141   0.662
    1MUSC O007x  789   0.074   5.307   0.006
    1MUSC O007y  790   0.003   5.104   0.681
    1MUSC O007z  791   0.355   5.307   3.692
    1MUSC O0080  792   0.243   5.104   1.009
    1MUSC O0081  793   9.864   5.063   0.006
    1MUSC O0082  794   0.103   5.347   0.681
    1MUSC O0083  795   0.455   5.063   3.691
    1MUSC O0084  796   0.143   5.347   1.010
    1MUSC O0085  797   0.236   5.379   3.461
    1MUSC O0086  798   9.731   5.031   1.240
    1MUSC O0087  799   0.193   5.379   0.236
    1MUSC O0088  800   0.405   5.031   0.451
    1MUSC O0089  801   0.240   4.749   0.236
    1MUSC O008A  802   0.357   4.757   0.451
    1MUSC O008B  803   0.189   4.749   3.461
    1MUSC O008C  804   9.778   4.757   1.240
    1MUSC O008D  805   0.496   4.569   3.453
    1MUSC O008E  806   0.102   4.937   1.248
    1MUSC O008F  807   9.822   4.569   0.245
    1MUSC O008G  808   0.144   4.937   0.442
    1MUSC O008H  809   0.356   4.817   3.672
    1MUSC O008I  810   0.242   4.688   1.029
    1MUSC O008J  811   0.073   4.817   0.025
    1MUSC O008K  812   0.004   4.688   0.662
    1MUSC O008L  813   0.334   4.854   0.006
    1MUSC O008M  814   0.263   4.651   0.681
    1MUSC O008N  815   0.095   4.854   3.692
    1MUSC O008O  816   9.872   4.651   1.009
    1MUSC O008P  817   0.234   4.611   0.006
    1MUSC O008Q  818   0.363   4.895   0.681
    1MUSC O008R  819   0.195   4.611   3.691
    1MUSC O008S  820   9.772   4.895   1.010
    1MUSC O008T  821   0.496   4.927   3.461
    1MUSC O008U  822   0.102   4.579   1.240
    1MUSC O008V  823   9.822   4.927   0.236
    1MUSC O008W  824   0.144   4.579   0.451
    1MUSC K000X  825   0.031   5.069   1.849
    1MUSC K000Y  826   9.569   5.341   2.852
    1MUSC K000Z  827   9.661   4.617   1.849
    1MUSC K000a  828   9.829   4.889   2.852
    1MUSC Al01R  829   9.748   5.053   2.350
    1MUSC Al01S  830   9.742   5.358   2.351
    1MUSC Al01T  831   0.204   5.053   1.348
    1MUSC Al01U  832   0.028   5.358   3.353
    1MUSC Al01V  833   0.119   4.600   2.350
    1MUSC Al01W  834   0.113   4.905   2.351
    1MUSC Al01X  835   9.833   4.600   1.348
    1MUSC Al01Y  836   9.657   4.905   3.353
    1MUSC Si02r  837   0.035   5.368   1.614
    1MUSC Si02s  838   9.566   5.043   3.087
    1MUSC Si02t  839   0.028   5.368   2.084
    1MUSC Si02u  840   0.203   5.043   2.617
    1MUSC Si02v  841   9.664   5.212   2.084
    1MUSC Si02w  842   9.825   5.198   2.617
    1MUSC Si02x  843   0.288   5.212   1.613
    1MUSC Si02y  844   9.833   5.198   3.088
    1MUSC Si02z  845   0.295   4.915   1.614
    1MUSC Si030  846   9.826   4.590   3.087
    1MUSC Si031  847   9.657   4.915   2.084
    1MUSC Si032  848   9.832   4.590   2.617
    1MUSC Si033  849   0.035   4.760   2.084
    1MUSC Si034  850   0.196   4.746   2.617
    1MUSC Si035  851   0.028   4.760   1.613
    1MUSC Si036  852   9.573   4.746   3.088
    1MUSC O008X  853   9.687   5.201   2.243
    1MUSC O008Y  854   9.803   5.209   2.458
    1MUSC O008Z  855   0.266   5.201   1.454
    1MUSC O008a  856   9.855   5.209   3.247
    1MUSC O008b  857   0.053   5.021   1.446
    1MUSC O008c  858   9.548   5.389   3.255
    1MUSC O008d  859   0.010   5.021   2.252
    1MUSC O008e  860   0.221   5.389   2.449
    1MUSC O008f  861   9.802   5.270   1.665
    1MUSC O008g  862   9.688   5.141   3.036
    1MUSC O008h  863   0.150   5.270   2.032
    1MUSC O008i  864   0.081   5.141   2.669
    1MUSC O008j  865   9.780   5.307   2.013
    1MUSC O008k  866   9.709   5.104   2.688
    1MUSC O008l  867   0.172   5.307   1.685
    1MUSC O008m  868   0.060   5.104   3.016
    1MUSC O008n  869   9.681   5.063   2.013
    1MUSC O008o  870   9.809   5.347   2.688
    1MUSC O008p  871   0.272   5.063   1.684
    1MUSC O008q  872   9.849   5.347   3.017
    1MUSC O008r  873   0.053   5.379   1.454
    1MUSC O008s  874   9.548   5.031   3.247
    1MUSC O008t  875   0.010   5.379   2.243
    1MUSC O008u  876   0.222   5.031   2.458
    1MUSC O008v  877   0.057   4.749   2.243
    1MUSC O008w  878   0.174   4.757   2.458
    1MUSC O008x  879   0.006   4.749   1.454
    1MUSC O008y  880   9.595   4.757   3.247
    1MUSC O008z  881   0.313   4.569   1.446
    1MUSC O0090  882   9.808   4.937   3.255
    1MUSC O0091  883   9.639   4.569   2.252
    1MUSC O0092  884   9.850   4.937   2.449
    1MUSC O0093  885   0.173   4.817   1.665
    1MUSC O0094  886   0.059   4.688   3.036
    1MUSC O0095  887   9.779   4.817   2.032
    1MUSC O0096  888   9.710   4.688   2.669
    1MUSC O0097  889   0.151   4.854   2.013
    1MUSC O0098  890   0.080   4.651   2.688
    1MUSC O0099  891   9.801   4.854   1.685
    1MUSC O009A  892   9.689   4.651   3.016
    1MUSC O009B  893   0.051   4.611   2.013
    1MUSC O009C  894   0.180   4.895   2.688
    1MUSC O009D  895   0.012   4.611   1.684
    1MUSC O009E  896   9.589   4.895   3.017
    1MUSC O009F  897   0.313   4.927   1.454
    1MUSC O009G  898   9.808   4.579   3.247
    1MUSC O009H  899   9.639   4.927   2.243
    1MUSC O009I  900   9.851   4.579   2.458
    1MUSC K000b  901   9.752   6.247   0.845
    1MUSC K000c  902   0.123   5.794   0.845
    1MUSC Al01Z  903   0.042   5.958   0.343
    1MUSC Al01a  904   0.035   6.263   0.344
    1MUSC Al01b  905   0.387   5.958   3.355
    1MUSC Al01c  906   0.211   6.263   1.346
    1MUSC Al01d  907   0.302   5.505   0.343
    1MUSC Al01e  908   0.296   5.810   0.344
    1MUSC Al01f  909   0.127   5.505   3.355
    1MUSC Al01g  910   9.840   5.810   1.346
    1MUSC Si037  911   0.218   6.273   3.621
    1MUSC Si038  912   9.749   5.948   1.080
    1MUSC Si039  913   0.211   6.273   0.077
    1MUSC Si03A  914   0.386   5.948   0.610
    1MUSC Si03B  915   9.847   6.118   0.077
    1MUSC Si03C  916   0.119   6.103   0.610
    1MUSC Si03D  917   0.471   6.118   3.620
    1MUSC Si03E  918   0.127   6.103   1.081
    1MUSC Si03F  919   0.478   5.820   3.621
    1MUSC Si03G  920   0.120   5.495   1.080
    1MUSC Si03H  921   9.840   5.820   0.077
    1MUSC Si03I  922   0.126   5.495   0.610
    1MUSC Si03J  923   0.218   5.665   0.077
    1MUSC Si03K  924   0.379   5.651   0.610
    1MUSC Si03L  925   0.211   5.665   3.620
    1MUSC Si03M  926   9.756   5.651   1.081
    1MUSC O009J  927   9.870   6.106   0.236
    1MUSC O009K  928   0.097   6.115   0.451
    1MUSC O009L  929   0.449   6.106   3.461
    1MUSC O009M  930   0.149   6.115   1.240
    1MUSC O009N  931   0.236   5.927   3.453
    1MUSC O009O  932   9.731   6.295   1.248
    1MUSC O009P  933   0.193   5.927   0.245
    1MUSC O009Q  934   0.404   6.295   0.442
    1MUSC O009R  935   0.096   6.175   3.672
    1MUSC O009S  936   9.871   6.046   1.029
    1MUSC O009T  937   0.333   6.175   0.025
    1MUSC O009U  938   0.264   6.046   0.662
    1MUSC O009V  939   0.074   6.212   0.006
    1MUSC O009W  940   0.003   6.009   0.681
    1MUSC O009X  941   0.355   6.212   3.692
    1MUSC O009Y  942   0.243   6.009   1.009
    1MUSC O009Z  943   9.864   5.969   0.006
    1MUSC O009a  944   0.103   6.253   0.681
    1MUSC O009b  945   0.455   5.969   3.691
    1MUSC O009c  946   0.143   6.253   1.010
    1MUSC O009d  947   0.236   6.285   3.461
    1MUSC O009e  948   9.731   5.937   1.240
    1MUSC O009f  949   0.193   6.285   0.236
    1MUSC O009g  950   0.405   5.937   0.451
    1MUSC O009h  951   0.240   5.654   0.236
    1MUSC O009i  952   0.357   5.662   0.451
    1MUSC O009j  953   0.189   5.654   3.461
    1MUSC O009k  954   9.778   5.662   1.240
    1MUSC O009l  955   0.496   5.474   3.453
    1MUSC O009m  956   0.102   5.842   1.248
    1MUSC O009n  957   9.822   5.474   0.245
    1MUSC O009o  958   0.144   5.842   0.442
    1MUSC O009p  959   0.356   5.723   3.672
    1MUSC O009q  960   0.242   5.593   1.029
    1MUSC O009r  961   0.073   5.723   0.025
    1MUSC O009s  962   0.004   5.593   0.662
    1MUSC O009t  963   0.334   5.760   0.006
    1MUSC O009u  964   0.263   5.556   0.681
    1MUSC O009v  965   0.095   5.760   3.692
    1MUSC O009w  966   9.872   5.556   1.009
    1MUSC O009x  967   0.234   5.516   0.006
    1MUSC O009y  968   0.363   5.800   0.681
    1MUSC O009z  969   0.195   5.516   3.691
    1MUSC O00A0  970   9.772   5.800   1.010
    1MUSC O00A1  971   0.496   5.832   3.461
    1MUSC O00A2  972   0.102   5.484   1.240
    1MUSC O00A3  973   9.822   5.832   0.236
    1MUSC O00A4  974   0.144   5.484   0.451
    1MUSC K000d  975   0.031   5.975   1.849
    1MUSC K000e  976   9.569   6.247   2.852
    1MUSC K000f  977   9.661   5.522   1.849
    1MUSC K000g  978   9.829   5.794   2.852
    1MUSC Al01h  979   9.748   5.958   2.350
    1MUSC Al01i  980   9.742   6.263   2.351
    1MUSC Al01j  981   0.204   5.958   1.348
    1MUSC Al01k  982   0.028   6.263   3.353
    1MUSC Al01l  983   0.119   5.505   2.350
    1MUSC Al01m  984   0.113   5.810   2.351
    1MUSC Al01n  985   9.833   5.505   1.348
    1MUSC Al01o  986   9.657   5.810   3.353
    1MUSC Si03N  987   0.035   6.273   1.614
    1MUSC Si03O  988   9.566   5.948   3.087
    1MUSC Si03P  989   0.028   6.273   2.084
    1MUSC Si03Q  990   0.203   5.948   2.617
    1MUSC Si03R  991   9.664   6.118   2.084
    1MUSC Si03S  992   9.825   6.103   2.617
    1MUSC Si03T  993   0.288   6.118   1.613
    1MUSC Si03U  994   9.833   6.103   3.088
    1MUSC Si03V  995   0.295   5.820   1.614
    1MUSC Si03W  996   9.826   5.495   3.087
    1MUSC Si03X  997   9.657   5.820   2.084
    1MUSC Si03Y  998   9.832   5.495   2.617
    1MUSC Si03Z  999   0.035   5.665   2.084
    1MUSC Si03a 1000   0.196   5.651   2.617
    1MUSC Si03b 1001   0.028   5.665   1.613
    1MUSC Si03c 1002   9.573   5.651   3.088
    1MUSC O00A5 1003   9.687   6.106   2.243
    1MUSC O00A6 1004   9.803   6.115   2.458
    1MUSC O00A7 1005   0.266   6.106   1.454
    1MUSC O00A8 1006   9.855   6.115   3.247
    1MUSC O00A9 1007   0.053   5.927   1.446
    1MUSC O00AA 1008   9.548   6.295   3.255
    1MUSC O00AB 1009   0.010   5.927   2.252
    1MUSC O00AC 1010   0.221   6.295   2.449
    1MUSC O00AD 1011   9.802   6.175   1.665
    1MUSC O00AE 1012   9.688   6.046   3.036
    1MUSC O00AF 1013   0.150   6.175   2.032
    1MUSC O00AG 1014   0.081   6.046   2.669
    1MUSC O00AH 1015   9.780   6.212   2.013
    1MUSC O00AI 1016   9.709   6.009   2.688
    1MUSC O00AJ 1017   0.172   6.212   1.685
    1MUSC O00AK 1018   0.060   6.009   3.016
    1MUSC O00AL 1019   9.681   5.969   2.013
    1MUSC O00AM 1020   9.809   6.253   2.688
    1MUSC O00AN 1021   0.272   5.969   1.684
    1MUSC O00AO 1022   9.849   6.253   3.017
    1MUSC O00AP 1023   0.053   6.285   1.454
    1MUSC O00AQ 1024   9.548   5.937   3.247
    1MUSC O00AR 1025   0.010   6.285   2.243
    1MUSC O00AS 1026   0.222   5.937   2.458
    1MUSC O00AT 1027   0.057   5.654   2.243
    1MUSC O00AU 1028   0.174   5.662   2.458
    1MUSC O00AV 1029   0.006   5.654   1.454
    1MUSC O00AW 1030   9.595   5.662   3.247
    1MUSC O00AX 1031   0.313   5.474   1.446
    1MUSC O00AY 1032   9.808   5.842   3.255
    1MUSC O00AZ 1033   9.639   5.474   2.252
    1MUSC O00Aa 1034   9.850   5.842   2.449
    1MUSC O00Ab 1035   0.173   5.723   1.665
    1MUSC O00Ac 1036   0.059   5.593   3.036
    1MUSC O00Ad 1037   9.779   5.723   2.032
    1MUSC O00Ae 1038   9.710   5.593   2.669
    1MUSC O00Af 1039   0.151   5.760   2.013
    1MUSC O00Ag 1040   0.080   5.556   2.688
    1MUSC O00Ah 1041   9.801   5.760   1.685
    1MUSC O00Ai 1042   9.689   5.556   3.016
    1MUSC O00Aj 1043   0.051   5.516   2.013
    1MUSC O00Ak 1044   0.180   5.800   2.688
    1MUSC O00Al 1045   0.012   5.516   1.684
    1MUSC O00Am 1046   9.589   5.800   3.017
    1MUSC O00An 1047   0.313   5.832   1.454
    1MUSC O00Ao 1048   9.808   5.484   3.247
    1MUSC O00Ap 1049   9.639   5.832   2.243
    1MUSC O00Aq 1050   9.851   5.484   2.458
    1MUSC K000h 1051   9.752   7.152   0.845
    1MUSC K000i 1052   0.123   6.699   0.845
    1MUSC Al01p 1053   0.042   6.863   0.343
    1MUSC Al01q 1054   0.035   7.168   0.344
    1MUSC Al01r 1055   0.387   6.863   3.355
    1MUSC Al01s 1056   0.211   7.168   1.346
    1MUSC Al01t 1057   0.302   6.411   0.343
    1MUSC Al01u 1058   0.296   6.716   0.344
    1MUSC Al01v 1059   0.127   6.411   3.355
    1MUSC Al01w 1060   9.840   6.716   1.346
    1MUSC Si03d 1061   0.218   7.178   3.621
    1MUSC Si03e 1062   9.749   6.853   1.080
    1MUSC Si03f 1063   0.211   7.178   0.077
    1MUSC Si03g 1064   0.386   6.853   0.610
    1MUSC Si03h 1065   9.847   7.023   0.077
    1MUSC Si03i 1066   0.119   7.009   0.610
    1MUSC Si03j 1067   0.471   7.023   3.620
    1MUSC Si03k 1068   0.127   7.009   1.081
    1MUSC Si03l 1069   0.478   6.726   3.621
    1MUSC Si03m 1070   0.120   6.401   1.080
    1MUSC Si03n 1071   9.840   6.726   0.077
    1MUSC Si03o 1072   0.126   6.401   0.610
    1MUSC Si03p 1073   0.218   6.570   0.077
    1MUSC Si03q 1074   0.379   6.556   0.610
    1MUSC Si03r 1075   0.211   6.570   3.620
    1MUSC Si03s 1076   9.756   6.556   1.081
    1MUSC O00Ar 1077   9.870   7.012   0.236
    1MUSC O00As 1078   0.097   7.020   0.451
    1MUSC O00At 1079   0.449   7.012   3.461
    1MUSC O00Au 1080   0.149   7.020   1.240
    1MUSC O00Av 1081   0.236   6.832   3.453
    1MUSC O00Aw 1082   9.731   7.200   1.248
    1MUSC O00Ax 1083   0.193   6.832   0.245
    1MUSC O00Ay 1084   0.404   7.200   0.442
    1MUSC O00Az 1085   0.096   7.080   3.672
    1MUSC O00B0 1086   9.871   6.951   1.029
    1MUSC O00B1 1087   0.333   7.080   0.025
    1MUSC O00B2 1088   0.264   6.951   0.662
    1MUSC O00B3 1089   0.074   7.117   0.006
    1MUSC O00B4 1090   0.003   6.914   0.681
    1MUSC O00B5 1091   0.355   7.117   3.692
    1MUSC O00B6 1092   0.243   6.914   1.009
    1MUSC O00B7 1093   9.864   6.874   0.006
    1MUSC O00B8 1094   0.103   7.158   0.681
    1MUSC O00B9 1095   0.455   6.874   3.691
    1MUSC O00BA 1096   0.143   7.158   1.010
    1MUSC O00BB 1097   0.236   7.190   3.461
    1MUSC O00BC 1098   9.731   6.842   1.240
    1MUSC O00BD 1099   0.193   7.190   0.236
    1MUSC O00BE 1100   0.405   6.842   0.451
    1MUSC O00BF 1101   0.240   6.559   0.236
    1MUSC O00BG 1102   0.357   6.567   0.451
    1MUSC O00BH 1103   0.189   6.559   3.461
    1MUSC O00BI 1104   9.778   6.567   1.240
    1MUSC O00BJ 1105   0.496   6.379   3.453
    1MUSC O00BK 1106   0.102   6.747   1.248
    1MUSC O00BL 1107   9.822   6.379   0.245
    1MUSC O00BM 1108   0.144   6.747   0.442
    1MUSC O00BN 1109   0.356   6.628   3.672
    1MUSC O00BO 1110   0.242   6.499   1.029
    1MUSC O00BP 1111   0.073   6.628   0.025
    1MUSC O00BQ 1112   0.004   6.499   0.662
    1MUSC O00BR 1113   0.334   6.665   0.006
    1MUSC O00BS 1114   0.263   6.462   0.681
    1MUSC O00BT 1115   0.095   6.665   3.692
    1MUSC O00BU 1116   9.872   6.462   1.009
    1MUSC O00BV 1117   0.234   6.421   0.006
    1MUSC O00BW 1118   0.363   6.705   0.681
    1MUSC O00BX 1119   0.195   6.421   3.691
    1MUSC O00BY 1120   9.772   6.705   1.010
    1MUSC O00BZ 1121   0.496   6.737   3.461
    1MUSC O00Ba 1122   0.102   6.389   1.240
    1MUSC O00Bb 1123   9.822   6.737   0.236
    1MUSC O00Bc 1124   0.144   6.389   0.451
    1MUSC K000j 1125   0.031   6.880   1.849
    1MUSC K000k 1126   9.569   7.152   2.852
    1MUSC K000l 1127   9.661   6.427   1.849
    1MUSC K000m 1128   9.829   6.699   2.852
    1MUSC Al01x 1129   9.748   6.863   2.350
    1MUSC Al01y 1130   9.742   7.168   2.351
    1MUSC Al01z 1131   0.204   6.863   1.348
    1MUSC Al020 1132   0.028   7.168   3.353
    1MUSC Al021 1133   0.119   6.411   2.350
    1MUSC Al022 1134   0.113   6.716   2.351
    1MUSC Al023 1135   9.833   6.411   1.348
    1MUSC Al024 1136   9.657   6.716   3.353
    1MUSC Si03t 1137   0.035   7.178   1.614
    1MUSC Si03u 1138   9.566   6.853   3.087
    1MUSC Si03v 1139   0.028   7.178   2.084
    1MUSC Si03w 1140   0.203   6.853   2.617
    1MUSC Si03x 1141   9.664   7.023   2.084
    1MUSC Si03y 1142   9.825   7.009   2.617
    1MUSC Si03z 1143   0.288   7.023   1.613
    1MUSC Si040 1144   9.833   7.009   3.088
    1MUSC Si041 1145   0.295   6.726   1.614
    1MUSC Si042 1146   9.826   6.401   3.087
    1MUSC Si043 1147   9.657   6.726   2.084
    1MUSC Si044 1148   9.832   6.401   2.617
    1MUSC Si045 1149   0.035   6.570   2.084
    1MUSC Si046 1150   0.196   6.556   2.617
    1MUSC Si047 1151   0.028   6.570   1.613
    1MUSC Si048 1152   9.573   6.556   3.088
    1MUSC O00Bd 1153   9.687   7.012   2.243
    1MUSC O00Be 1154   9.803   7.020   2.458
    1MUSC O00Bf 1155   0.266   7.012   1.454
    1MUSC O00Bg 1156   9.855   7.020   3.247
    1MUSC O00Bh 1157   0.053   6.832   1.446
    1MUSC O00Bi 1158   9.548   7.200   3.255
    1MUSC O00Bj 1159   0.010   6.832   2.252
    1MUSC O00Bk 1160   0.221   7.200   2.449
    1MUSC O00Bl 1161   9.802   7.080   1.665
    1MUSC O00Bm 1162   9.688   6.951   3.036
    1MUSC O00Bn 1163   0.150   7.080   2.032
    1MUSC O00Bo 1164   0.081   6.951   2.669
    1MUSC O00Bp 1165   9.780   7.117   2.013
    1MUSC O00Bq 1166   9.709   6.914   2.688
    1MUSC O00Br 1167   0.172   7.117   1.685
    1MUSC O00Bs 1168   0.060   6.914   3.016
    1MUSC O00Bt 1169   9.681   6.874   2.013
    1MUSC O00Bu 1170   9.809   7.158   2.688
    1MUSC O00Bv 1171   0.272   6.874   1.684
    1MUSC O00Bw 1172   9.849   7.158   3.017
    1MUSC O00Bx 1173   0.053   7.190   1.454
    1MUSC O00By 1174   9.548   6.842   3.247
    1MUSC O00Bz 1175   0.010   7.190   2.243
    1MUSC O00C0 1176   0.222   6.842   2.458
    1MUSC O00C1 1177   0.057   6.559   2.243
    1MUSC O00C2 1178   0.174   6.567   2.458
    1MUSC O00C3 1179   0.006   6.559   1.454
    1MUSC O00C4 1180   9.595   6.567   3.247
    1MUSC O00C5 1181   0.313   6.379   1.446
    1MUSC O00C6 1182   9.808   6.747   3.255
    1MUSC O00C7 1183   9.639   6.379   2.252
    1MUSC O00C8 1184   9.850   6.747   2.449
    1MUSC O00C9 1185   0.173   6.628   1.665
    1MUSC O00CA 1186   0.059   6.499   3.036
    1MUSC O00CB 1187   9.779   6.628   2.032
    1MUSC O00CC 1188   9.710   6.499   2.669
    1MUSC O00CD 1189   0.151   6.665   2.013
    1MUSC O00CE 1190   0.080   6.462   2.688
    1MUSC O00CF 1191   9.801   6.665   1.685
    1MUSC O00CG 1192   9.689   6.462   3.016
    1MUSC O00CH 1193   0.051   6.421   2.013
    1MUSC O00CI 1194   0.180   6.705   2.688
    1MUSC O00CJ 1195   0.012   6.421   1.684
    1MUSC O00CK 1196   9.589   6.705   3.017
    1MUSC O00CL 1197   0.313   6.737   1.454
    1MUSC O00CM 1198   9.808   6.389   3.247
    1MUSC O00CN 1199   9.639   6.737   2.243
    1MUSC O00CO 1200   9.851   6.389   2.458
    1MUSC K000n 1201   9.752   8.057   0.845
    1MUSC K000o 1202   0.123   7.605   0.845
    1MUSC Al025 1203   0.042   7.769   0.343
    1MUSC Al026 1204   0.035   8.074   0.344
    1MUSC Al027 1205   0.387   7.769   3.355
    1MUSC Al028 1206   0.211   8.074   1.346
    1MUSC Al029 1207   0.302   7.316   0.343
    1MUSC Al02A 1208   0.296   7.621   0.344
    1MUSC Al02B 1209   0.127   7.316   3.355
    1MUSC Al02C 1210   9.840   7.621   1.346
    1MUSC Si049 1211   0.218   8.084   3.621
    1MUSC Si04A 1212   9.749   7.759   1.080
    1MUSC Si04B 1213   0.211   8.084   0.077
    1MUSC Si04C 1214   0.386   7.759   0.610
    1MUSC Si04D 1215   9.847   7.928   0.077
    1MUSC Si04E 1216   0.119   7.914   0.610
    1MUSC Si04F 1217   0.471   7.928   3.620
    1MUSC Si04G 1218   0.127   7.914   1.081
    1MUSC Si04H 1219   0.478   7.631   3.621
    1MUSC Si04I 1220   0.120   7.306   1.080
    1MUSC Si04J 1221   9.840   7.631   0.077
    1MUSC Si04K 1222   0.126   7.306   0.610
    1MUSC Si04L 1223   0.218   7.476   0.077
    1MUSC Si04M 1224   0.379   7.461   0.610
    1MUSC Si04N 1225   0.211   7.476   3.620
    1MUSC Si04O 1226   9.756   7.461   1.081
    1MUSC O00CP 1227   9.870   7.917   0.236
    1MUSC O00CQ 1228   0.097   7.925   0.451
    1MUSC O00CR 1229   0.449   7.917   3.461
    1MUSC O00CS 1230   0.149   7.925   1.240
    1MUSC O00CT 1231   0.236   7.737   3.453
    1MUSC O00CU 1232   9.731   8.105   1.248
    1MUSC O00CV 1233   0.193   7.737   0.245
    1MUSC O00CW 1234   0.404   8.105   0.442
    1MUSC O00CX 1235   0.096   7.986   3.672
    1MUSC O00CY 1236   9.871   7.856   1.029
    1MUSC O00CZ 1237   0.333   7.986   0.025
    1MUSC O00Ca 1238   0.264   7.856   0.662
    1MUSC O00Cb 1239   0.074   8.023   0.006
    1MUSC O00Cc 1240   0.003   7.819   0.681
    1MUSC O00Cd 1241   0.355   8.023   3.692
    1MUSC O00Ce 1242   0.243   7.819   1.009
    1MUSC O00Cf 1243   9.864   7.779   0.006
    1MUSC O00Cg 1244   0.103   8.063   0.681
    1MUSC O00Ch 1245   0.455   7.779   3.691
    1MUSC O00Ci 1246   0.143   8.063   1.010
    1MUSC O00Cj 1247   0.236   8.095   3.461
    1MUSC O00Ck 1248   9.731   7.747   1.240
    1MUSC O00Cl 1249   0.193   8.095   0.236
    1MUSC O00Cm 1250   0.405   7.747   0.451
    1MUSC O00Cn 1251   0.240   7.464   0.236
    1MUSC O00Co 1252   0.357   7.473   0.451
    1MUSC O00Cp 1253   0.189   7.464   3.461
    1MUSC O00Cq 1254   9.778   7.473   1.240
    1MUSC O00Cr 1255   0.496   7.284   3.453
    1MUSC O00Cs 1256   0.102   7.653   1.248
    1MUSC O00Ct 1257   9.822   7.284   0.245
    1MUSC O00Cu 1258   0.144   7.653   0.442
    1MUSC O00Cv 1259   0.356   7.533   3.672
    1MUSC O00Cw 1260   0.242   7.404   1.029
    1MUSC O00Cx 1261   0.073   7.533   0.025
    1MUSC O00Cy 1262   0.004   7.404   0.662
    1MUSC O00Cz 1263   0.334   7.570   0.006
    1MUSC O00D0 1264   0.263   7.367   0.681
    1MUSC O00D1 1265   0.095   7.570   3.692
    1MUSC O00D2 1266   9.872   7.367   1.009
    1MUSC O00D3 1267   0.234   7.326   0.006
    1MUSC O00D4 1268   0.363   7.611   0.681
    1MUSC O00D5 1269   0.195   7.326   3.691
    1MUSC O00D6 1270   9.772   7.611   1.010
    1MUSC O00D7 1271   0.496   7.642   3.461
    1MUSC O00D8 1272   0.102   7.295   1.240
    1MUSC O00D9 1273   9.822   7.642   0.236
    1MUSC O00DA 1274   0.144   7.295   0.451
    1MUSC K000p 1275   0.031   7.785   1.849
    1MUSC K000q 1276   9.569   8.057   2.852
    1MUSC K000r 1277   9.661   7.332   1.849
    1MUSC K000s 1278   9.829   7.605   2.852
    1MUSC Al02D 1279   9.748   7.769   2.350
    1MUSC Al02E 1280   9.742   8.074   2.351
    1MUSC Al02F 1281   0.204   7.769   1.348
    1MUSC Al02G 1282   0.028   8.074   3.353
    1MUSC Al02H 1283   0.119   7.316   2.350
    1MUSC Al02I 1284   0.113   7.621   2.351
    1MUSC Al02J 1285   9.833   7.316   1.348
    1MUSC Al02K 1286   9.657   7.621   3.353
    1MUSC Si04P 1287   0.035   8.084   1.614
    1MUSC Si04Q 1288   9.566   7.759   3.087
    1MUSC Si04R 1289   0.028   8.084   2.084
    1MUSC Si04S 1290   0.203   7.759   2.617
    1MUSC Si04T 1291   9.664   7.928   2.084
    1MUSC Si04U 1292   9.825   7.914   2.617
    1MUSC Si04V 1293   0.288   7.928   1.613
    1MUSC Si04W 1294   9.833   7.914   3.088
    1MUSC Si04X 1295   0.295   7.631   1.614
    1MUSC Si04Y 1296   9.826   7.306   3.087
    1MUSC Si04Z 1297   9.657   7.631   2.084
    1MUSC Si04a 1298   9.832   7.306   2.617
    1MUSC Si04b 1299   0.035   7.476   2.084
    1MUSC Si04c 1300   0.196   7.461   2.617
    1MUSC Si04d 1301   0.028   7.476   1.613
    1MUSC Si04e 1302   9.573   7.461   3.088
    1MUSC O00DB 1303   9.687   7.917   2.243
    1MUSC O00DC 1304   9.803   7.925   2.458
    1MUSC O00DD 1305   0.266   7.917   1.454
    1MUSC O00DE 1306   9.855   7.925   3.247
    1MUSC O00DF 1307   0.053   7.737   1.446
    1MUSC O00DG 1308   9.548   8.105   3.255
    1MUSC O00DH 1309   0.010   7.737   2.252
    1MUSC O00DI 1310   0.221   8.105   2.449
    1MUSC O00DJ 1311   9.802   7.986   1.665
    1MUSC O00DK 1312   9.688   7.856   3.036
    1MUSC O00DL 1313   0.150   7.986   2.032
    1MUSC O00DM 1314   0.081   7.856   2.669
    1MUSC O00DN 1315   9.780   8.023   2.013
    1MUSC O00DO 1316   9.709   7.819   2.688
    1MUSC O00DP 1317   0.172   8.023   1.685
    1MUSC O00DQ 1318   0.060   7.819   3.016
    1MUSC O00DR 1319   9.681   7.779   2.013
    1MUSC O00DS 1320   9.809   8.063   2.688
    1MUSC O00DT 1321   0.272   7.779   1.684
    1MUSC O00DU 1322   9.849   8.063   3.017
    1MUSC O00DV 1323   0.053   8.095   1.454
    1MUSC O00DW 1324   9.548   7.747   3.247
    1MUSC O00DX 1325   0.010   8.095   2.243
    1MUSC O00DY 1326   0.222   7.747   2.458
    1MUSC O00DZ 1327   0.057   7.464   2.243
    1MUSC O00Da 1328   0.174   7.473   2.458
    1MUSC O00Db 1329   0.006   7.464   1.454
    1MUSC O00Dc 1330   9.595   7.473   3.247
    1MUSC O00Dd 1331   0.313   7.284   1.446
    1MUSC O00De 1332   9.808   7.653   3.255
    1MUSC O00Df 1333   9.639   7.284   2.252
    1MUSC O00Dg 1334   9.850   7.653   2.449
    1MUSC O00Dh 1335   0.173   7.533   1.665
    1MUSC O00Di 1336   0.059   7.404   3.036
    1MUSC O00Dj 1337   9.779   7.533   2.032
    1MUSC O00Dk 1338   9.710   7.404   2.669
    1MUSC O00Dl 1339   0.151   7.570   2.013
    1MUSC O00Dm 1340   0.080   7.367   2.688
    1MUSC O00Dn 1341   9.801   7.570   1.685
    1MUSC O00Do 1342   9.689   7.367   3.016
    1MUSC O00Dp 1343   0.051   7.326   2.013
    1MUSC O00Dq 1344   0.180   7.611   2.688
    1MUSC O00Dr 1345   0.012   7.326   1.684
    1MUSC O00Ds 1346   9.589   7.611   3.017
    1MUSC O00Dt 1347   0.313   7.642   1.454
    1MUSC O00Du 1348   9.808   7.295   3.247
    1MUSC O00Dv 1349   9.639   7.642   2.243
    1MUSC O00Dw 1350   9.851   7.295   2.458
    1MUSC K000t 1351   9.752   8.962   0.845
    1MUSC K000u 1352   0.123   8.510   0.845
    1MUSC Al02L 1353   0.042   8.674   0.343
    1MUSC Al02M 1354   0.035   8.979   0.344
    1MUSC Al02N 1355   0.387   8.674   3.355
    1MUSC Al02O 1356   0.211   8.979   1.346
    1MUSC Al02P 1357   0.302   8.221   0.343
    1MUSC Al02Q 1358   0.296   8.526   0.344
    1MUSC Al02R 1359   0.127   8.221   3.355
    1MUSC Al02S 1360   9.840   8.526   1.346
    1MUSC Si04f 1361   0.218   8.989   3.621
    1MUSC Si04g 1362   9.749   8.664   1.080
    1MUSC Si04h 1363   0.211   8.989   0.077
    1MUSC Si04i 1364   0.386   8.664   0.610
    1MUSC Si04j 1365   9.847   8.834   0.077
    1MUSC Si04k 1366   0.119   8.819   0.610
    1MUSC Si04l 1367   0.471   8.834   3.620
    1MUSC Si04m 1368   0.127   8.819   1.081
    1MUSC Si04n 1369   0.478   8.536   3.621
    1MUSC Si04o 1370   0.120   8.211   1.080
    1MUSC Si04p 1371   9.840   8.536   0.077
    1MUSC Si04q 1372   0.126   8.211   0.610
    1MUSC Si04r 1373   0.218   8.381   0.077
    1MUSC Si04s 1374   0.379   8.367   0.610
    1MUSC Si04t 1375   0.211   8.381   3.620
    1MUSC Si04u 1376   9.756   8.367   1.081
    1MUSC O00Dx 1377   9.870   8.822   0.236
    1MUSC O00Dy 1378   0.097   8.831   0.451
    1MUSC O00Dz 1379   0.449   8.822   3.461
    1MUSC O00E0 1380   0.149   8.831   1.240
    1MUSC O00E1 1381   0.236   8.642   3.453
    1MUSC O00E2 1382   9.731   9.010   1.248
    1MUSC O00E3 1383   0.193   8.642   0.245
    1MUSC O00E4 1384   0.404   9.010   0.442
    1MUSC O00E5 1385   0.096   8.891   3.672
    1MUSC O00E6 1386   9.871   8.762   1.029
    1MUSC O00E7 1387   0.333   8.891   0.025
    1MUSC O00E8 1388   0.264   8.762   0.662
    1MUSC O00E9 1389   0.074   8.928   0.006
    1MUSC O00EA 1390   0.003   8.725   0.681
    1MUSC O00EB 1391   0.355   8.928   3.692
    1MUSC O00EC 1392   0.243   8.725   1.009
    1MUSC O00ED 1393   9.864   8.684   0.006
    1MUSC O00EE 1394   0.103   8.968   0.681
    1MUSC O00EF 1395   0.455   8.684   3.691
    1MUSC O00EG 1396   0.143   8.968   1.010
    1MUSC O00EH 1397   0.236   9.000   3.461
    1MUSC O00EI 1398   9.731   8.652   1.240
    1MUSC O00EJ 1399   0.193   9.000   0.236
    1MUSC O00EK 1400   0.405   8.652   0.451
    1MUSC O00EL 1401   0.240   8.370   0.236
    1MUSC O00EM 1402   0.357   8.378   0.451
    1MUSC O00EN 1403   0.189   8.370   3.461
    1MUSC O00EO 1404   9.778   8.378   1.240
    1MUSC O00EP 1405   0.496   8.190   3.453
    1MUSC O00EQ 1406   0.102   8.558   1.248
    1MUSC O00ER 1407   9.822   8.190   0.245
    1MUSC O00ES 1408   0.144   8.558   0.442
    1MUSC O00ET 1409   0.356   8.438   3.672
    1MUSC O00EU 1410   0.242   8.309   1.029
    1MUSC O00EV 1411   0.073   8.438   0.025
    1MUSC O00EW 1412   0.004   8.309   0.662
    1MUSC O00EX 1413   0.334   8.475   0.006
    1MUSC O00EY 1414   0.263   8.272   0.681
    1MUSC O00EZ 1415   0.095   8.475   3.692
    1MUSC O00Ea 1416   9.872   8.272   1.009
    1MUSC O00Eb 1417   0.234   8.232   0.006
    1MUSC O00Ec 1418   0.363   8.516   0.681
    1MUSC O00Ed 1419   0.195   8.232   3.691
    1MUSC O00Ee 1420   9.772   8.516   1.010
    1MUSC O00Ef 1421   0.496   8.548   3.461
    1MUSC O00Eg 1422   0.102   8.200   1.240
    1MUSC O00Eh 1423   9.822   8.548   0.236
    1MUSC O00Ei 1424   0.144   8.200   0.451
    1MUSC K000v 1425   0.031   8.690   1.849
    1MUSC K000w 1426   9.569   8.962   2.852
    1MUSC K000x 1427   9.661   8.238   1.849
    1MUSC K000y 1428   9.829   8.510   2.852
    1MUSC Al02T 1429   9.748   8.674   2.350
    1MUSC Al02U 1430   9.742   8.979   2.351
    1MUSC Al02V 1431   0.204   8.674   1.348
    1MUSC Al02W 1432   0.028   8.979   3.353
    1MUSC Al02X 1433   0.119   8.221   2.350
    1MUSC Al02Y 1434   0.113   8.526   2.351
    1MUSC Al02Z 1435   9.833   8.221   1.348
    1MUSC Al02a 1436   9.657   8.526   3.353
    1MUSC Si04v 1437   0.035   8.989   1.614
    1MUSC Si04w 1438   9.566   8.664   3.087
    1MUSC Si04x 1439   0.028   8.989   2.084
    1MUSC Si04y 1440   0.203   8.664   2.617
    1MUSC Si04z 1441   9.664   8.834   2.084
    1MUSC Si050 1442   9.825   8.819   2.617
    1MUSC Si051 1443   0.288   8.834   1.613
    1MUSC Si052 1444   9.833   8.819   3.088
    1MUSC Si053 1445   0.295   8.536   1.614
    1MUSC Si054 1446   9.826   8.211   3.087
    1MUSC Si055 1447   9.657   8.536   2.084
    1MUSC Si056 1448   9.832   8.211   2.617
    1MUSC Si057 1449   0.035   8.381   2.084
    1MUSC Si058 1450   0.196   8.367   2.617
    1MUSC Si059 1451   0.028   8.381   1.613
    1MUSC Si05A 1452   9.573   8.367   3.088
    1MUSC O00Ej 1453   9.687   8.822   2.243
    1MUSC O00Ek 1454   9.803   8.831   2.458
    1MUSC O00El 1455   0.266   8.822   1.454
    1MUSC O00Em 1456   9.855   8.831   3.247
    1MUSC O00En 1457   0.053   8.642   1.446
    1MUSC O00Eo 1458   9.548   9.010   3.255
    1MUSC O00Ep 1459   0.010   8.642   2.252
    1MUSC O00Eq 1460   0.221   9.010   2.449
    1MUSC O00Er 1461   9.802   8.891   1.665
    1MUSC O00Es 1462   9.688   8.762   3.036
    1MUSC O00Et 1463   0.150   8.891   2.032
    1MUSC O00Eu 1464   0.081   8.762   2.669
    1MUSC O00Ev 1465   9.780   8.928   2.013
    1MUSC O00Ew 1466   9.709   8.725   2.688
    1MUSC O00Ex 1467   0.172   8.928   1.685
    1MUSC O00Ey 1468   0.060   8.725   3.016
    1MUSC O00Ez 1469   9.681   8.684   2.013
    1MUSC O00F0 1470   9.809   8.968   2.688
    1MUSC O00F1 1471   0.272   8.684   1.684
    1MUSC O00F2 1472   9.849   8.968   3.017
    1MUSC O00F3 1473   0.053   9.000   1.454
    1MUSC O00F4 1474   9.548   8.652   3.247
    1MUSC O00F5 1475   0.010   9.000   2.243
    1MUSC O00F6 1476   0.222   8.652   2.458
    1MUSC O00F7 1477   0.057   8.370   2.243
    1MUSC O00F8 1478   0.174   8.378   2.458
    1MUSC O00F9 1479   0.006   8.370   1.454
    1MUSC O00FA 1480   9.595   8.378   3.247
    1MUSC O00FB 1481   0.313   8.190   1.446
    1MUSC O00FC 1482   9.808   8.558   3.255
    1MUSC O00FD 1483   9.639   8.190   2.252
    1MUSC O00FE 1484   9.850   8.558   2.449
    1MUSC O00FF 1485   0.173   8.438   1.665
    1MUSC O00FG 1486   0.059   8.309   3.036
    1MUSC O00FH 1487   9.779   8.438   2.032
    1MUSC O00FI 1488   9.710   8.309   2.669
    1MUSC O00FJ 1489   0.151   8.475   2.013
    1MUSC O00FK 1490   0.080   8.272   2.688
    1MUSC O00FL 1491   9.801   8.475   1.685
    1MUSC O00FM 1492   9.689   8.272   3.016
    1MUSC O00FN 1493   0.051   8.232   2.013
    1MUSC O00FO 1494   0.180   8.516   2.688
    1MUSC O00FP 1495   0.012   8.232   1.684
    1MUSC O00FQ 1496   9.589   8.516   3.017
    1MUSC O00FR 1497   0.313   8.548   1.454
    1MUSC O00FS 1498   9.808   8.200   3.247
    1MUSC O00FT 1499   9.639   8.548   2.243
    1MUSC O00FU 1500   9.851   8.200   2.458
    1MUSC K000z 1501   9.752   9.868   0.845
    1MUSC K0010 1502   0.123   9.415   0.845
    1MUSC Al02b 1503   0.042   9.579   0.343
    1MUSC Al02c 1504   0.035   9.884   0.344
    1MUSC Al02d 1505   0.387   9.579   3.355
    1MUSC Al02e 1506   0.211   9.884   1.346
    1MUSC Al02f 1507   0.302   9.126   0.343
    1MUSC Al02g 1508   0.296   9.432   0.344
    1MUSC Al02h 1509   0.127   9.126   3.355
    1MUSC Al02i 1510   9.840   9.432   1.346
    1MUSC Si05B 1511   0.218   9.894   3.621
    1MUSC Si05C 1512   9.749   9.569   1.080
    1MUSC Si05D 1513   0.211   9.894   0.077
    1MUSC Si05E 1514   0.386   9.569   0.610
    1MUSC Si05F 1515   9.847   9.739   0.077
    1MUSC Si05G 1516   0.119   9.724   0.610
    1MUSC Si05H 1517   0.471   9.739   3.620
    1MUSC Si05I 1518   0.127   9.724   1.081
    1MUSC Si05J 1519   0.478   9.441   3.621
    1MUSC Si05K 1520   0.120   9.117   1.080
    1MUSC Si05L 1521   9.840   9.441   0.077
    1MUSC Si05M 1522   0.126   9.117   0.610
    1MUSC Si05N 1523   0.218   9.286   0.077
    1MUSC Si05O 1524   0.379   9.272   0.610
    1MUSC Si05P 1525   0.211   9.286   3.620
    1MUSC Si05Q 1526   9.756   9.272   1.081
    1MUSC O00FV 1527   9.870   9.728   0.236
    1MUSC O00FW 1528   0.097   9.736   0.451
    1MUSC O00FX 1529   0.449   9.728   3.461
    1MUSC O00FY 1530   0.149   9.736   1.240
    1MUSC O00FZ 1531   0.236   9.548   3.453
    1MUSC O00Fa 1532   9.731   9.916   1.248
    1MUSC O00Fb 1533   0.193   9.548   0.245
    1MUSC O00Fc 1534   0.404   9.916   0.442
    1MUSC O00Fd 1535   0.096   9.796   3.672
    1MUSC O00Fe 1536   9.871   9.667   1.029
    1MUSC O00Ff 1537   0.333   9.796   0.025
    1MUSC O00Fg 1538   0.264   9.667   0.662
    1MUSC O00Fh 1539   0.074   9.833   0.006
    1MUSC O00Fi 1540   0.003   9.630   0.681
    1MUSC O00Fj 1541   0.355   9.833   3.692
    1MUSC O00Fk 1542   0.243   9.630   1.009
    1MUSC O00Fl 1543   9.864   9.590   0.006
    1MUSC O00Fm 1544   0.103   9.874   0.681
    1MUSC O00Fn 1545   0.455   9.590   3.691
    1MUSC O00Fo 1546   0.143   9.874   1.010
    1MUSC O00Fp 1547   0.236   9.906   3.461
    1MUSC O00Fq 1548   9.731   9.558   1.240
    1MUSC O00Fr 1549   0.193   9.906   0.236
    1MUSC O00Fs 1550   0.405   9.558   0.451
    1MUSC O00Ft 1551   0.240   9.275   0.236
    1MUSC O00Fu 1552   0.357   9.283   0.451
    1MUSC O00Fv 1553   0.189   9.275   3.461
    1MUSC O00Fw 1554   9.778   9.283   1.240
    1MUSC O00Fx 1555   0.496   9.095   3.453
    1MUSC O00Fy 1556   0.102   9.463   1.248
    1MUSC O00Fz 1557   9.822   9.095   0.245
    1MUSC O00G0 1558   0.144   9.463   0.442
    1MUSC O00G1 1559   0.356   9.344   3.672
    1MUSC O00G2 1560   0.242   9.214   1.029
    1MUSC O00G3 1561   0.073   9.344   0.025
    1MUSC O00G4 1562   0.004   9.214   0.662
    1MUSC O00G5 1563   0.334   9.381   0.006
    1MUSC O00G6 1564   0.263   9.177   0.681
    1MUSC O00G7 1565   0.095   9.381   3.692
    1MUSC O00G8 1566   9.872   9.177   1.009
    1MUSC O00G9 1567   0.234   9.137   0.006
    1MUSC O00GA 1568   0.363   9.421   0.681
    1MUSC O00GB 1569   0.195   9.137   3.691
    1MUSC O00GC 1570   9.772   9.421   1.010
    1MUSC O00GD 1571   0.496   9.453   3.461
    1MUSC O00GE 1572   0.102   9.105   1.240
    1MUSC O00GF 1573   9.822   9.453   0.236
    1MUSC O00GG 1574   0.144   9.105   0.451
    1MUSC K0011 1575   0.031   9.596   1.849
    1MUSC K0012 1576   9.569   9.868   2.852
    1MUSC K0013 1577   9.661   9.143   1.849
    1MUSC K0014 1578   9.829   9.415   2.852
    1MUSC Al02j 1579   9.748   9.579   2.350
    1MUSC Al02k 1580   9.742   9.884   2.351
    1MUSC Al02l 1581   0.204   9.579   1.348
    1MUSC Al02m 1582   0.028   9.884   3.353
    1MUSC Al02n 1583   0.119   9.126   2.350
    1MUSC Al02o 1584   0.113   9.432   2.351
    1MUSC Al02p 1585   9.833   9.126   1.348
    1MUSC Al02q 1586   9.657   9.432   3.353
    1MUSC Si05R 1587   0.035   9.894   1.614
    1MUSC Si05S 1588   9.566   9.569   3.087
    1MUSC Si05T 1589   0.028   9.894   2.084
    1MUSC Si05U 1590   0.203   9.569   2.617
    1MUSC Si05V 1591   9.664   9.739   2.084
    1MUSC Si05W 1592   9.825   9.724   2.617
    1MUSC Si05X 1593   0.288   9.739   1.613
    1MUSC Si05Y 1594   9.833   9.724   3.088
    1MUSC Si05Z 1595   0.295   9.441   1.614
    1MUSC Si05a 1596   9.826   9.117   3.087
    1MUSC Si05b 1597   9.657   9.441   2.084
    1MUSC Si05c 1598   9.832   9.117   2.617
    1MUSC Si05d 1599   0.035   9.286   2.084
    1MUSC Si05e 1600   0.196   9.272   2.617
    1MUSC Si05f 1601   0.028   9.286   1.613
    1MUSC Si05g 1602   9.573   9.272   3.088
    1MUSC O00GH 1603   9.687   9.728   2.243
    1MUSC O00GI 1604   9.803   9.736   2.458
    1MUSC O00GJ 1605   0.266   9.728   1.454
    1MUSC O00GK 1606   9.855   9.736   3.247
    1MUSC O00GL 1607   0.053   9.548   1.446
    1MUSC O00GM 1608   9.548   9.916   3.255
    1MUSC O00GN 1609   0.010   9.548   2.252
    1MUSC O00GO 1610   0.221   9.916   2.449
    1MUSC O00GP 1611   9.802   9.796   1.665
    1MUSC O00GQ 1612   9.688   9.667   3.036
    1MUSC O00GR 1613   0.150   9.796   2.032
    1MUSC O00GS 1614   0.081   9.667   2.669
    1MUSC O00GT 1615   9.780   9.833   2.013
    1MUSC O00GU 1616   9.709   9.630   2.688
    1MUSC O00GV 1617   0.172   9.833   1.685
    1MUSC O00GW 1618   0.060   9.630   3.016
    1MUSC O00GX 1619   9.681   9.590   2.013
    1MUSC O00GY 1620   9.809   9.874   2.688
    1MUSC O00GZ 1621   0.272   9.590   1.684
    1MUSC O00Ga 1622   9.849   9.874   3.017
    1MUSC O00Gb 1623   0.053   9.906   1.454
    1MUSC O00Gc 1624   9.548   9.558   3.247
    1MUSC O00Gd 1625   0.010   9.906   2.243
    1MUSC O00Ge 1626   0.222   9.558   2.458
    1MUSC O00Gf 1627   0.057   9.275   2.243
    1MUSC O00Gg 1628   0.174   9.283   2.458
    1MUSC O00Gh 1629   0.006   9.275   1.454
    1MUSC O00Gi 1630   9.595   9.283   3.247
    1MUSC O00Gj 1631   0.313   9.095   1.446
    1MUSC O00Gk 1632   9.808   9.463   3.255
    1MUSC O00Gl 1633   9.639   9.095   2.252
    1MUSC O00Gm 1634   9.850   9.463   2.449
    1MUSC O00Gn 1635   0.173   9.344   1.665
    1MUSC O00Go 1636   0.059   9.214   3.036
    1MUSC O00Gp 1637   9.779   9.344   2.032
    1MUSC O00Gq 1638   9.710   9.214   2.669
    1MUSC O00Gr 1639   0.151   9.381   2.013
    1MUSC O00Gs 1640   0.080   9.177   2.688
    1MUSC O00Gt 1641   9.801   9.381   1.685
    1MUSC O00Gu 1642   9.689   9.177   3.016
    1MUSC O00Gv 1643   0.051   9.137   2.013
    1MUSC O00Gw 1644   0.180   9.421   2.688
    1MUSC O00Gx 1645   0.012   9.137   1.684
    1MUSC O00Gy 1646   9.589   9.421   3.017
    1MUSC O00Gz 1647   0.313   9.453   1.454
    1MUSC O00H0 1648   9.808   9.105   3.247
    1MUSC O00H1 1649   9.639   9.453   2.243
    1MUSC O00H2 1650   9.851   9.105   2.458
    1MUSC K0015 1651   0.383   0.815   0.845
    1MUSC K0016 1652   0.643   0.362   0.845
    1MUSC Al02r 1653   0.562   0.526   0.343
    1MUSC Al02s 1654   0.556   0.831   0.344
    1MUSC Al02t 1655   0.908   0.526   3.355
    1MUSC Al02u 1656   0.731   0.831   1.346
    1MUSC Al02v 1657   0.823   0.074   0.343
    1MUSC Al02w 1658   0.816   0.379   0.344
    1MUSC Al02x 1659   0.647   0.074   3.355
    1MUSC Al02y 1660   0.471   0.379   1.346
    1MUSC Si05h 1661   0.738   0.841   3.621
    1MUSC Si05i 1662   0.380   0.517   1.080
    1MUSC Si05j 1663   0.732   0.841   0.077
    1MUSC Si05k 1664   0.907   0.517   0.610
    1MUSC Si05l 1665   0.479   0.686   0.077
    1MUSC Si05m 1666   0.640   0.672   0.610
    1MUSC Si05n 1667   0.991   0.686   3.620
    1MUSC Si05o 1668   0.647   0.672   1.081
    1MUSC Si05p 1669   0.998   0.389   3.621
    1MUSC Si05q 1670   0.640   0.064   1.080
    1MUSC Si05r 1671   0.472   0.389   0.077
    1MUSC Si05s 1672   0.647   0.064   0.610
    1MUSC Si05t 1673   0.739   0.233   0.077
    1MUSC Si05u 1674   0.900   0.219   0.610
    1MUSC Si05v 1675   0.731   0.233   3.620
    1MUSC Si05w 1676   0.387   0.219   1.081
    1MUSC O00H3 1677   0.501   0.675   0.236
    1MUSC O00H4 1678   0.618   0.683   0.451
    1MUSC O00H5 1679   0.969   0.675   3.461
    1MUSC O00H6 1680   0.669   0.683   1.240
    1MUSC O00H7 1681   0.756   0.495   3.453
    1MUSC O00H8 1682   0.362   0.863   1.248
    1MUSC O00H9 1683   0.714   0.495   0.245
    1MUSC O00HA 1684   0.925   0.863   0.442
    1MUSC O00HB 1685   0.616   0.744   3.672
    1MUSC O00HC 1686   0.502   0.614   1.029
    1MUSC O00HD 1687   0.854   0.744   0.025
    1MUSC O00HE 1688   0.785   0.614   0.662
    1MUSC O00HF 1689   0.595   0.781   0.006
    1MUSC O00HG 1690   0.524   0.577   0.681
    1MUSC O00HH 1691   0.875   0.781   3.692
    1MUSC O00HI 1692   0.763   0.577   1.009
    1MUSC O00HJ 1693   0.495   0.537   0.006
    1MUSC O00HK 1694   0.624   0.821   0.681
    1MUSC O00HL 1695   0.975   0.537   3.691
    1MUSC O00HM 1696   0.663   0.821   1.010
    1MUSC O00HN 1697   0.756   0.853   3.461
    1MUSC O00HO 1698   0.362   0.505   1.240
    1MUSC O00HP 1699   0.714   0.853   0.236
    1MUSC O00HQ 1700   0.925   0.505   0.451
    1MUSC O00HR 1701   0.761   0.222   0.236
    1MUSC O00HS 1702   0.878   0.230   0.451
    1MUSC O00HT 1703   0.709   0.222   3.461
    1MUSC O00HU 1704   0.409   0.230   1.240
    1MUSC O00HV 1705   1.016   0.042   3.453
    1MUSC O00HW 1706   0.622   0.410   1.248
    1MUSC O00HX 1707   0.454   0.042   0.245
    1MUSC O00HY 1708   0.665   0.410   0.442
    1MUSC O00HZ 1709   0.876   0.291   3.672
    1MUSC O00Ha 1710   0.762   0.162   1.029
    1MUSC O00Hb 1711   0.594   0.291   0.025
    1MUSC O00Hc 1712   0.525   0.162   0.662
    1MUSC O00Hd 1713   0.855   0.328   0.006
    1MUSC O00He 1714   0.784   0.125   0.681
    1MUSC O00Hf 1715   0.615   0.328   3.692
    1MUSC O00Hg 1716   0.503   0.125   1.009
    1MUSC O00Hh 1717   0.755   0.084   0.006
    1MUSC O00Hi 1718   0.884   0.368   0.681
    1MUSC O00Hj 1719   0.715   0.084   3.691
    1MUSC O00Hk 1720   0.403   0.368   1.010
    1MUSC O00Hl 1721   1.017   0.400   3.461
    1MUSC O00Hm 1722   0.622   0.052   1.240
    1MUSC O00Hn 1723   0.453   0.400   0.236
    1MUSC O00Ho 1724   0.665   0.052   0.451
    1MUSC K0017 1725   0.552   0.543   1.849
    1MUSC K0018 1726   0.200   0.815   2.852
    1MUSC K0019 1727   0.292   0.090   1.849
    1MUSC K001A 1728   0.460   0.362   2.852
    1MUSC Al02z 1729   0.379   0.526   2.350
    1MUSC Al030 1730   0.373   0.831   2.351
    1MUSC Al031 1731   0.725   0.526   1.348
    1MUSC Al032 1732   0.548   0.831   3.353
    1MUSC Al033 1733   0.640   0.074   2.350
    1MUSC Al034 1734   0.633   0.379   2.351
    1MUSC Al035 1735   0.464   0.074   1.348
    1MUSC Al036 1736   0.288   0.379   3.353
    1MUSC Si05x 1737   0.555   0.841   1.614
    1MUSC Si05y 1738   0.197   0.517   3.087
    1MUSC Si05z 1739   0.549   0.841   2.084
    1MUSC Si060 1740   0.724   0.517   2.617
    1MUSC Si061 1741   0.296   0.686   2.084
    1MUSC Si062 1742   0.457   0.672   2.617
    1MUSC Si063 1743   0.808   0.686   1.613
    1MUSC Si064 1744   0.464   0.672   3.088
    1MUSC Si065 1745   0.815   0.389   1.614
    1MUSC Si066 1746   0.457   0.064   3.087
    1MUSC Si067 1747   0.289   0.389   2.084
    1MUSC Si068 1748   0.464   0.064   2.617
    1MUSC Si069 1749   0.556   0.233   2.084
    1MUSC Si06A 1750   0.717   0.219   2.617
    1MUSC Si06B 1751   0.548   0.233   1.613
    1MUSC Si06C 1752   0.204   0.219   3.088
    1MUSC O00Hp 1753   0.318   0.675   2.243
    1MUSC O00Hq 1754   0.435   0.683   2.458
    1MUSC O00Hr 1755   0.786   0.675   1.454
    1MUSC O00Hs 1756   0.486   0.683   3.247
    1MUSC O00Ht 1757   0.573   0.495   1.446
    1MUSC O00Hu 1758   0.179   0.863   3.255
    1MUSC O00Hv 1759   0.531   0.495   2.252
    1MUSC O00Hw 1760   0.742   0.863   2.449
    1MUSC O00Hx 1761   0.433   0.744   1.665
    1MUSC O00Hy 1762   0.319   0.614   3.036
    1MUSC O00Hz 1763   0.671   0.744   2.032
    1MUSC O00I0 1764   0.602   0.614   2.669
    1MUSC O00I1 1765   0.412   0.781   2.013
    1MUSC O00I2 1766   0.341   0.577   2.688
    1MUSC O00I3 1767   0.692   0.781   1.685
    1MUSC O00I4 1768   0.580   0.577   3.016
    1MUSC O00I5 1769   0.312   0.537   2.013
    1MUSC O00I6 1770   0.441   0.821   2.688
    1MUSC O00I7 1771   0.792   0.537   1.684
    1MUSC O00I8 1772   0.480   0.821   3.017
    1MUSC O00I9 1773   0.573   0.853   1.454
    1MUSC O00IA 1774   0.179   0.505   3.247
    1MUSC O00IB 1775   0.531   0.853   2.243
    1MUSC O00IC 1776   0.742   0.505   2.458
    1MUSC O00ID 1777   0.578   0.222   2.243
    1MUSC O00IE 1778   0.695   0.230   2.458
    1MUSC O00IF 1779   0.526   0.222   1.454
    1MUSC O00IG 1780   0.226   0.230   3.247
    1MUSC O00IH 1781   0.833   0.042   1.446
    1MUSC O00II 1782   0.439   0.410   3.255
    1MUSC O00IJ 1783   0.271   0.042   2.252
    1MUSC O00IK 1784   0.482   0.410   2.449
    1MUSC O00IL 1785   0.693   0.291   1.665
    1MUSC O00IM 1786   0.579   0.162   3.036
    1MUSC O00IN 1787   0.411   0.291   2.032
    1MUSC O00IO 1788   0.342   0.162   2.669
    1MUSC O00IP 1789   0.672   0.328   2.013
    1MUSC O00IQ 1790   0.601   0.125   2.688
    1MUSC O00IR 1791   0.432   0.328   1.685
    1MUSC O00IS 1792   0.320   0.125   3.016
    1MUSC O00IT 1793   0.572   0.084   2.013
    1MUSC O00IU 1794   0.701   0.368   2.688
    1MUSC O00IV 1795   0.532   0.084   1.684
    1MUSC O00IW 1796   0.220   0.368   3.017
    1MUSC O00IX 1797   0.833   0.400   1.454
    1MUSC O00IY 1798   0.439   0.052   3.247
    1MUSC O00IZ 1799   0.270   0.400   2.243
    1MUSC O00Ia 1800   0.482   0.052   2.458
    1MUSC K001B 1801   0.383   1.720   0.845
    1MUSC K001C 1802   0.643   1.268   0.845
    1MUSC Al037 1803   0.562   1.432   0.343
    1MUSC Al038 1804   0.556   1.737   0.344
    1MUSC Al039 1805   0.908   1.432   3.355
    1MUSC Al03A 1806   0.731   1.737   1.346
    1MUSC Al03B 1807   0.823   0.979   0.343
    1MUSC Al03C 1808   0.816   1.284   0.344
    1MUSC Al03D 1809   0.647   0.979   3.355
    1MUSC Al03E 1810   0.471   1.284   1.346
    1MUSC Si06D 1811   0.738   1.747   3.621
    1MUSC Si06E 1812   0.380   1.422   1.080
    1MUSC Si06F 1813   0.732   1.747   0.077
    1MUSC Si06G 1814   0.907   1.422   0.610
    1MUSC Si06H 1815   0.479   1.591   0.077
    1MUSC Si06I 1816   0.640   1.577   0.610
    1MUSC Si06J 1817   0.991   1.591   3.620
    1MUSC Si06K 1818   0.647   1.577   1.081
    1MUSC Si06L 1819   0.998   1.294   3.621
    1MUSC Si06M 1820   0.640   0.969   1.080
    1MUSC Si06N 1821   0.472   1.294   0.077
    1MUSC Si06O 1822   0.647   0.969   0.610
    1MUSC Si06P 1823   0.739   1.139   0.077
    1MUSC Si06Q 1824   0.900   1.124   0.610
    1MUSC Si06R 1825   0.731   1.139   3.620
    1MUSC Si06S 1826   0.387   1.124   1.081
    1MUSC O00Ib 1827   0.501   1.580   0.236
    1MUSC O00Ic 1828   0.618   1.588   0.451
    1MUSC O00Id 1829   0.969   1.580   3.461
    1MUSC O00Ie 1830   0.669   1.588   1.240
    1MUSC O00If 1831   0.756   1.400   3.453
    1MUSC O00Ig 1832   0.362   1.768   1.248
    1MUSC O00Ih 1833   0.714   1.400   0.245
    1MUSC O00Ii 1834   0.925   1.768   0.442
    1MUSC O00Ij 1835   0.616   1.649   3.672
    1MUSC O00Ik 1836   0.502   1.520   1.029
    1MUSC O00Il 1837   0.854   1.649   0.025
    1MUSC O00Im 1838   0.785   1.520   0.662
    1MUSC O00In 1839   0.595   1.686   0.006
    1MUSC O00Io 1840   0.524   1.483   0.681
    1MUSC O00Ip 1841   0.875   1.686   3.692
    1MUSC O00Iq 1842   0.763   1.483   1.009
    1MUSC O00Ir 1843   0.495   1.442   0.006
    1MUSC O00Is 1844   0.624   1.726   0.681
    1MUSC O00It 1845   0.975   1.442   3.691
    1MUSC O00Iu 1846   0.663   1.726   1.010
    1MUSC O00Iv 1847   0.756   1.758   3.461
    1MUSC O00Iw 1848   0.362   1.410   1.240
    1MUSC O00Ix 1849   0.714   1.758   0.236
    1MUSC O00Iy 1850   0.925   1.410   0.451
    1MUSC O00Iz 1851   0.761   1.127   0.236
    1MUSC O00J0 1852   0.878   1.136   0.451
    1MUSC O00J1 1853   0.709   1.127   3.461
    1MUSC O00J2 1854   0.409   1.136   1.240
    1MUSC O00J3 1855   1.016   0.948   3.453
    1MUSC O00J4 1856   0.622   1.316   1.248
    1MUSC O00J5 1857   0.454   0.948   0.245
    1MUSC O00J6 1858   0.665   1.316   0.442
    1MUSC O00J7 1859   0.876   1.196   3.672
    1MUSC O00J8 1860   0.762   1.067   1.029
    1MUSC O00J9 1861   0.594   1.196   0.025
    1MUSC O00JA 1862   0.525   1.067   0.662
    1MUSC O00JB 1863   0.855   1.233   0.006
    1MUSC O00JC 1864   0.784   1.030   0.681
    1MUSC O00JD 1865   0.615   1.233   3.692
    1MUSC O00JE 1866   0.503   1.030   1.009
    1MUSC O00JF 1867   0.755   0.990   0.006
    1MUSC O00JG 1868   0.884   1.274   0.681
    1MUSC O00JH 1869   0.715   0.990   3.691
    1MUSC O00JI 1870   0.403   1.274   1.010
    1MUSC O00JJ 1871   1.017   1.306   3.461
    1MUSC O00JK 1872   0.622   0.958   1.240
    1MUSC O00JL 1873   0.453   1.306   0.236
    1MUSC O00JM 1874   0.665   0.958   0.451
    1MUSC K001D 1875   0.552   1.448   1.849
    1MUSC K001E 1876   0.200   1.720   2.852
    1MUSC K001F 1877   0.292   0.996   1.849
    1MUSC K001G 1878   0.460   1.268   2.852
    1MUSC Al03F 1879   0.379   1.432   2.350
    1MUSC Al03G 1880   0.373   1.737   2.351
    1MUSC Al03H 1881   0.725   1.432   1.348
    1MUSC Al03I 1882   0.548   1.737   3.353
    1MUSC Al03J 1883   0.640   0.979   2.350
    1MUSC Al03K 1884   0.633   1.284   2.351
    1MUSC Al03L 1885   0.464   0.979   1.348
    1MUSC Al03M 1886   0.288   1.284   3.353
    1MUSC Si06T 1887   0.555   1.747   1.614
    1MUSC Si06U 1888   0.197   1.422   3.087
    1MUSC Si06V 1889   0.549   1.747   2.084
    1MUSC Si06W 1890   0.724   1.422   2.617
    1MUSC Si06X 1891   0.296   1.591   2.084
    1MUSC Si06Y 1892   0.457   1.577   2.617
    1MUSC Si06Z 1893   0.808   1.591   1.613
    1MUSC Si06a 1894   0.464   1.577   3.088
    1MUSC Si06b 1895   0.815   1.294   1.614
    1MUSC Si06c 1896   0.457   0.969   3.087
    1MUSC Si06d 1897   0.289   1.294   2.084
    1MUSC Si06e 1898   0.464   0.969   2.617
    1MUSC Si06f 1899   0.556   1.139   2.084
    1MUSC Si06g 1900   0.717   1.124   2.617
    1MUSC Si06h 1901   0.548   1.139   1.613
    1MUSC Si06i 1902   0.204   1.124   3.088
    1MUSC O00JN 1903   0.318   1.580   2.243
    1MUSC O00JO 1904   0.435   1.588   2.458
    1MUSC O00JP 1905   0.786   1.580   1.454
    1MUSC O00JQ 1906   0.486   1.588   3.247
    1MUSC O00JR 1907   0.573   1.400   1.446
    1MUSC O00JS 1908   0.179   1.768   3.255
    1MUSC O00JT 1909   0.531   1.400   2.252
    1MUSC O00JU 1910   0.742   1.768   2.449
    1MUSC O00JV 1911   0.433   1.649   1.665
    1MUSC O00JW 1912   0.319   1.520   3.036
    1MUSC O00JX 1913   0.671   1.649   2.032
    1MUSC O00JY 1914   0.602   1.520   2.669
    1MUSC O00JZ 1915   0.412   1.686   2.013
    1MUSC O00Ja 1916   0.341   1.483   2.688
    1MUSC O00Jb 1917   0.692   1.686   1.685
    1MUSC O00Jc 1918   0.580   1.483   3.016
    1MUSC O00Jd 1919   0.312   1.442   2.013
    1MUSC O00Je 1920   0.441   1.726   2.688
    1MUSC O00Jf 1921   0.792   1.442   1.684
    1MUSC O00Jg 1922   0.480   1.726   3.017
    1MUSC O00Jh 1923   0.573   1.758   1.454
    1MUSC O00Ji 1924   0.179   1.410   3.247
    1MUSC O00Jj 1925   0.531   1.758   2.243
    1MUSC O00Jk 1926   0.742   1.410   2.458
    1MUSC O00Jl 1927   0.578   1.127   2.243
    1MUSC O00Jm 1928   0.695   1.136   2.458
    1MUSC O00Jn 1929   0.526   1.127   1.454
    1MUSC O00Jo 1930   0.226   1.136   3.247
    1MUSC O00Jp 1931   0.833   0.948   1.446
    1MUSC O00Jq 1932   0.439   1.316   3.255
    1MUSC O00Jr 1933   0.271   0.948   2.252
    1MUSC O00Js 1934   0.482   1.316   2.449
    1MUSC O00Jt 1935   0.693   1.196   1.665
    1MUSC O00Ju 1936   0.579   1.067   3.036
    1MUSC O00Jv 1937   0.411   1.196   2.032
    1MUSC O00Jw 1938   0.342   1.067   2.669
    1MUSC O00Jx 1939   0.672   1.233   2.013
    1MUSC O00Jy 1940   0.601   1.030   2.688
    1MUSC O00Jz 1941   0.432   1.233   1.685
    1MUSC O00K0 1942   0.320   1.030   3.016
    1MUSC O00K1 1943   0.572   0.990   2.013
    1MUSC O00K2 1944   0.701   1.274   2.688
    1MUSC O00K3 1945   0.532   0.990   1.684
    1MUSC O00K4 1946   0.220   1.274   3.017
    1MUSC O00K5 1947   0.833   1.306   1.454
    1MUSC O00K6 1948   0.439   0.958   3.247
    1MUSC O00K7 1949   0.270   1.306   2.243
    1MUSC O00K8 1950   0.482   0.958   2.458
    1MUSC K001H 1951   0.383   2.626   0.845
    1MUSC K001I 1952   0.643   2.173   0.845
    1MUSC Al03N 1953   0.562   2.337   0.343
    1MUSC Al03O 1954   0.556   2.642   0.344
    1MUSC Al03P 1955   0.908   2.337   3.355
    1MUSC Al03Q 1956   0.731   2.642   1.346
    1MUSC Al03R 1957   0.823   1.884   0.343
    1MUSC Al03S 1958   0.816   2.189   0.344
    1MUSC Al03T 1959   0.647   1.884   3.355
    1MUSC Al03U 1960   0.471   2.189   1.346
    1MUSC Si06j 1961   0.738   2.652   3.621
    1MUSC Si06k 1962   0.380   2.327   1.080
    1MUSC Si06l 1963   0.732   2.652   0.077
    1MUSC Si06m 1964   0.907   2.327   0.610
    1MUSC Si06n 1965   0.479   2.497   0.077
    1MUSC Si06o 1966   0.640   2.482   0.610
    1MUSC Si06p 1967   0.991   2.497   3.620
    1MUSC Si06q 1968   0.647   2.482   1.081
    1MUSC Si06r 1969   0.998   2.199   3.621
    1MUSC Si06s 1970   0.640   1.874   1.080
    1MUSC Si06t 1971   0.472   2.199   0.077
    1MUSC Si06u 1972   0.647   1.874   0.610
    1MUSC Si06v 1973   0.739   2.044   0.077
    1MUSC Si06w 1974   0.900   2.030   0.610
    1MUSC Si06x 1975   0.731   2.044   3.620
    1MUSC Si06y 1976   0.387   2.030   1.081
    1MUSC O00K9 1977   0.501   2.485   0.236
    1MUSC O00KA 1978   0.618   2.494   0.451
    1MUSC O00KB 1979   0.969   2.485   3.461
    1MUSC O00KC 1980   0.669   2.494   1.240
    1MUSC O00KD 1981   0.756   2.305   3.453
    1MUSC O00KE 1982   0.362   2.674   1.248
    1MUSC O00KF 1983   0.714   2.305   0.245
    1MUSC O00KG 1984   0.925   2.674   0.442
    1MUSC O00KH 1985   0.616   2.554   3.672
    1MUSC O00KI 1986   0.502   2.425   1.029
    1MUSC O00KJ 1987   0.854   2.554   0.025
    1MUSC O00KK 1988   0.785   2.425   0.662
    1MUSC O00KL 1989   0.595   2.591   0.006
    1MUSC O00KM 1990   0.524   2.388   0.681
    1MUSC O00KN 1991   0.875   2.591   3.692
    1MUSC O00KO 1992   0.763   2.388   1.009
    1MUSC O00KP 1993   0.495   2.347   0.006
    1MUSC O00KQ 1994   0.624   2.632   0.681
    1MUSC O00KR 1995   0.975   2.347   3.691
    1MUSC O00KS 1996   0.663   2.632   1.010
    1MUSC O00KT 1997   0.756   2.663   3.461
    1MUSC O00KU 1998   0.362   2.316   1.240
    1MUSC O00KV 1999   0.714   2.663   0.236
    1MUSC O00KW 2000   0.925   2.316   0.451
    1MUSC O00KX 2001   0.761   2.033   0.236
    1MUSC O00KY 2002   0.878   2.041   0.451
    1MUSC O00KZ 2003   0.709   2.033   3.461
    1MUSC O00Ka 2004   0.409   2.041   1.240
    1MUSC O00Kb 2005   1.016   1.853   3.453
    1MUSC O00Kc 2006   0.622   2.221   1.248
    1MUSC O00Kd 2007   0.454   1.853   0.245
    1MUSC O00Ke 2008   0.665   2.221   0.442
    1MUSC O00Kf 2009   0.876   2.101   3.672
    1MUSC O00Kg 2010   0.762   1.972   1.029
    1MUSC O00Kh 2011   0.594   2.101   0.025
    1MUSC O00Ki 2012   0.525   1.972   0.662
    1MUSC O00Kj 2013   0.855   2.139   0.006
    1MUSC O00Kk 2014   0.784   1.935   0.681
    1MUSC O00Kl 2015   0.615   2.139   3.692
    1MUSC O00Km 2016   0.503   1.935   1.009
    1MUSC O00Kn 2017   0.755   1.895   0.006
    1MUSC O00Ko 2018   0.884   2.179   0.681
    1MUSC O00Kp 2019   0.715   1.895   3.691
    1MUSC O00Kq 2020   0.403   2.179   1.010
    1MUSC O00Kr 2021   1.017   2.211   3.461
    1MUSC O00Ks 2022   0.622   1.863   1.240
    1MUSC O00Kt 2023   0.453   2.211   0.236
    1MUSC O00Ku 2024   0.665   1.863   0.451
    1MUSC K001J 2025   0.552   2.353   1.849
    1MUSC K001K 2026   0.200   2.626   2.852
    1MUSC K001L 2027   0.292   1.901   1.849
    1MUSC K001M 2028   0.460   2.173   2.852
    1MUSC Al03V 2029   0.379   2.337   2.350
    1MUSC Al03W 2030   0.373   2.642   2.351
    1MUSC Al03X 2031   0.725   2.337   1.348
    1MUSC Al03Y 2032   0.548   2.642   3.353
    1MUSC Al03Z 2033   0.640   1.884   2.350
    1MUSC Al03a 2034   0.633   2.189   2.351
    1MUSC Al03b 2035   0.464   1.884   1.348
    1MUSC Al03c 2036   0.288   2.189   3.353
    1MUSC Si06z 2037   0.555   2.652   1.614
    1MUSC Si070 2038   0.197   2.327   3.087
    1MUSC Si071 2039   0.549   2.652   2.084
    1MUSC Si072 2040   0.724   2.327   2.617
    1MUSC Si073 2041   0.296   2.497   2.084
    1MUSC Si074 2042   0.457   2.482   2.617
    1MUSC Si075 2043   0.808   2.497   1.613
    1MUSC Si076 2044   0.464   2.482   3.088
    1MUSC Si077 2045   0.815   2.199   1.614
    1MUSC Si078 2046   0.457   1.874   3.087
    1MUSC Si079 2047   0.289   2.199   2.084
    1MUSC Si07A 2048   0.464   1.874   2.617
    1MUSC Si07B 2049   0.556   2.044   2.084
    1MUSC Si07C 2050   0.717   2.030   2.617
    1MUSC Si07D 2051   0.548   2.044   1.613
    1MUSC Si07E 2052   0.204   2.030   3.088
    1MUSC O00Kv 2053   0.318   2.485   2.243
    1MUSC O00Kw 2054   0.435   2.494   2.458
    1MUSC O00Kx 2055   0.786   2.485   1.454
    1MUSC O00Ky 2056   0.486   2.494   3.247
    1MUSC O00Kz 2057   0.573   2.305   1.446
    1MUSC O00L0 2058   0.179   2.674   3.255
    1MUSC O00L1 2059   0.531   2.305   2.252
    1MUSC O00L2 2060   0.742   2.674   2.449
    1MUSC O00L3 2061   0.433   2.554   1.665
    1MUSC O00L4 2062   0.319   2.425   3.036
    1MUSC O00L5 2063   0.671   2.554   2.032
    1MUSC O00L6 2064   0.602   2.425   2.669
    1MUSC O00L7 2065   0.412   2.591   2.013
    1MUSC O00L8 2066   0.341   2.388   2.688
    1MUSC O00L9 2067   0.692   2.591   1.685
    1MUSC O00LA 2068   0.580   2.388   3.016
    1MUSC O00LB 2069   0.312   2.347   2.013
    1MUSC O00LC 2070   0.441   2.632   2.688
    1MUSC O00LD 2071   0.792   2.347   1.684
    1MUSC O00LE 2072   0.480   2.632   3.017
    1MUSC O00LF 2073   0.573   2.663   1.454
    1MUSC O00LG 2074   0.179   2.316   3.247
    1MUSC O00LH 2075   0.531   2.663   2.243
    1MUSC O00LI 2076   0.742   2.316   2.458
    1MUSC O00LJ 2077   0.578   2.033   2.243
    1MUSC O00LK 2078   0.695   2.041   2.458
    1MUSC O00LL 2079   0.526   2.033   1.454
    1MUSC O00LM 2080   0.226   2.041   3.247
    1MUSC O00LN 2081   0.833   1.853   1.446
    1MUSC O00LO 2082   0.439   2.221   3.255
    1MUSC O00LP 2083   0.271   1.853   2.252
    1MUSC O00LQ 2084   0.482   2.221   2.449
    1MUSC O00LR 2085   0.693   2.101   1.665
    1MUSC O00LS 2086   0.579   1.972   3.036
    1MUSC O00LT 2087   0.411   2.101   2.032
    1MUSC O00LU 2088   0.342   1.972   2.669
    1MUSC O00LV 2089   0.672   2.139   2.013
    1MUSC O00LW 2090   0.601   1.935   2.688
    1MUSC O00LX 2091   0.432   2.139   1.685
    1MUSC O00LY 2092   0.320   1.935   3.016
    1MUSC O00LZ 2093   0.572   1.895   2.013
    1MUSC O00La 2094   0.701   2.179   2.688
    1MUSC O00Lb 2095   0.532   1.895   1.684
    1MUSC O00Lc 2096   0.220   2.179   3.017
    1MUSC O00Ld 2097   0.833   2.211   1.454
    1MUSC O00Le 2098   0.439   1.863   3.247
    1MUSC O00Lf 2099   0.270   2.211   2.243
    1MUSC O00Lg 2100   0.482   1.863   2.458
    1MUSC K001N 2101   0.383   3.531   0.845
    1MUSC K001O 2102   0.643   3.078   0.845
    1MUSC Al03d 2103   0.562   3.242   0.343
    1MUSC Al03e 2104   0.556   3.547   0.344
    1MUSC Al03f 2105   0.908   3.242   3.355
    1MUSC Al03g 2106   0.731   3.547   1.346
    1MUSC Al03h 2107   0.823   2.790   0.343
    1MUSC Al03i 2108   0.816   3.095   0.344
    1MUSC Al03j 2109   0.647   2.790   3.355
    1MUSC Al03k 2110   0.471   3.095   1.346
    1MUSC Si07F 2111   0.738   3.557   3.621
    1MUSC Si07G 2112   0.380   3.232   1.080
    1MUSC Si07H 2113   0.732   3.557   0.077
    1MUSC Si07I 2114   0.907   3.232   0.610
    1MUSC Si07J 2115   0.479   3.402   0.077
    1MUSC Si07K 2116   0.640   3.388   0.610
    1MUSC Si07L 2117   0.991   3.402   3.620
    1MUSC Si07M 2118   0.647   3.388   1.081
    1MUSC Si07N 2119   0.998   3.105   3.621
    1MUSC Si07O 2120   0.640   2.780   1.080
    1MUSC Si07P 2121   0.472   3.105   0.077
    1MUSC Si07Q 2122   0.647   2.780   0.610
    1MUSC Si07R 2123   0.739   2.949   0.077
    1MUSC Si07S 2124   0.900   2.935   0.610
    1MUSC Si07T 2125   0.731   2.949   3.620
    1MUSC Si07U 2126   0.387   2.935   1.081
    1MUSC O00Lh 2127   0.501   3.391   0.236
    1MUSC O00Li 2128   0.618   3.399   0.451
    1MUSC O00Lj 2129   0.969   3.391   3.461
    1MUSC O00Lk 2130   0.669   3.399   1.240
    1MUSC O00Ll 2131   0.756   3.211   3.453
    1MUSC O00Lm 2132   0.362   3.579   1.248
    1MUSC O00Ln 2133   0.714   3.211   0.245
    1MUSC O00Lo 2134   0.925   3.579   0.442
    1MUSC O00Lp 2135   0.616   3.459   3.672
    1MUSC O00Lq 2136   0.502   3.330   1.029
    1MUSC O00Lr 2137   0.854   3.459   0.025
    1MUSC O00Ls 2138   0.785   3.330   0.662
    1MUSC O00Lt 2139   0.595   3.496   0.006
    1MUSC O00Lu 2140   0.524   3.293   0.681
    1MUSC O00Lv 2141   0.875   3.496   3.692
    1MUSC O00Lw 2142   0.763   3.293   1.009
    1MUSC O00Lx 2143   0.495   3.253   0.006
    1MUSC O00Ly 2144   0.624   3.537   0.681
    1MUSC O00Lz 2145   0.975   3.253   3.691
    1MUSC O00M0 2146   0.663   3.537   1.010
    1MUSC O00M1 2147   0.756   3.569   3.461
    1MUSC O00M2 2148   0.362   3.221   1.240
    1MUSC O00M3 2149   0.714   3.569   0.236
    1MUSC O00M4 2150   0.925   3.221   0.451
    1MUSC O00M5 2151   0.761   2.938   0.236
    1MUSC O00M6 2152   0.878   2.946   0.451
    1MUSC O00M7 2153   0.709   2.938   3.461
    1MUSC O00M8 2154   0.409   2.946   1.240
    1MUSC O00M9 2155   1.016   2.758   3.453
    1MUSC O00MA 2156   0.622   3.126   1.248
    1MUSC O00MB 2157   0.454   2.758   0.245
    1MUSC O00MC 2158   0.665   3.126   0.442
    1MUSC O00MD 2159   0.876   3.007   3.672
    1MUSC O00ME 2160   0.762   2.877   1.029
    1MUSC O00MF 2161   0.594   3.007   0.025
    1MUSC O00MG 2162   0.525   2.877   0.662
    1MUSC O00MH 2163   0.855   3.044   0.006
    1MUSC O00MI 2164   0.784   2.840   0.681
    1MUSC O00MJ 2165   0.615   3.044   3.692
    1MUSC O00MK 2166   0.503   2.840   1.009
    1MUSC O00ML 2167   0.755   2.800   0.006
    1MUSC O00MM 2168   0.884   3.084   0.681
    1MUSC O00MN 2169   0.715   2.800   3.691
    1MUSC O00MO 2170   0.403   3.084   1.010
    1MUSC O00MP 2171   1.017   3.116   3.461
    1MUSC O00MQ 2172   0.622   2.768   1.240
    1MUSC O00MR 2173   0.453   3.116   0.236
    1MUSC O00MS 2174   0.665   2.768   0.451
    1MUSC K001P 2175   0.552   3.259   1.849
    1MUSC K001Q 2176   0.200   3.531   2.852
    1MUSC K001R 2177   0.292   2.806   1.849
    1MUSC K001S 2178   0.460   3.078   2.852
    1MUSC Al03l 2179   0.379   3.242   2.350
    1MUSC Al03m 2180   0.373   3.547   2.351
    1MUSC Al03n 2181   0.725   3.242   1.348
    1MUSC Al03o 2182   0.548   3.547   3.353
    1MUSC Al03p 2183   0.640   2.790   2.350
    1MUSC Al03q 2184   0.633   3.095   2.351
    1MUSC Al03r 2185   0.464   2.790   1.348
    1MUSC Al03s 2186   0.288   3.095   3.353
    1MUSC Si07V 2187   0.555   3.557   1.614
    1MUSC Si07W 2188   0.197   3.232   3.087
    1MUSC Si07X 2189   0.549   3.557   2.084
    1MUSC Si07Y 2190   0.724   3.232   2.617
    1MUSC Si07Z 2191   0.296   3.402   2.084
    1MUSC Si07a 2192   0.457   3.388   2.617
    1MUSC Si07b 2193   0.808   3.402   1.613
    1MUSC Si07c 2194   0.464   3.388   3.088
    1MUSC Si07d 2195   0.815   3.105   1.614
    1MUSC Si07e 2196   0.457   2.780   3.087
    1MUSC Si07f 2197   0.289   3.105   2.084
    1MUSC Si07g 2198   0.464   2.780   2.617
    1MUSC Si07h 2199   0.556   2.949   2.084
    1MUSC Si07i 2200   0.717   2.935   2.617
    1MUSC Si07j 2201   0.548   2.949   1.613
    1MUSC Si07k 2202   0.204   2.935   3.088
    1MUSC O00MT 2203   0.318   3.391   2.243
    1MUSC O00MU 2204   0.435   3.399   2.458
    1MUSC O00MV 2205   0.786   3.391   1.454
    1MUSC O00MW 2206   0.486   3.399   3.247
    1MUSC O00MX 2207   0.573   3.211   1.446
    1MUSC O00MY 2208   0.179   3.579   3.255
    1MUSC O00MZ 2209   0.531   3.211   2.252
    1MUSC O00Ma 2210   0.742   3.579   2.449
    1MUSC O00Mb 2211   0.433   3.459   1.665
    1MUSC O00Mc 2212   0.319   3.330   3.036
    1MUSC O00Md 2213   0.671   3.459   2.032
    1MUSC O00Me 2214   0.602   3.330   2.669
    1MUSC O00Mf 2215   0.412   3.496   2.013
    1MUSC O00Mg 2216   0.341   3.293   2.688
    1MUSC O00Mh 2217   0.692   3.496   1.685
    1MUSC O00Mi 2218   0.580   3.293   3.016
    1MUSC O00Mj 2219   0.312   3.253   2.013
    1MUSC O00Mk 2220   0.441   3.537   2.688
    1MUSC O00Ml 2221   0.792   3.253   1.684
    1MUSC O00Mm 2222   0.480   3.537   3.017
    1MUSC O00Mn 2223   0.573   3.569   1.454
    1MUSC O00Mo 2224   0.179   3.221   3.247
    1MUSC O00Mp 2225   0.531   3.569   2.243
    1MUSC O00Mq 2226   0.742   3.221   2.458
    1MUSC O00Mr 2227   0.578   2.938   2.243
    1MUSC O00Ms 2228   0.695   2.946   2.458
    1MUSC O00Mt 2229   0.526   2.938   1.454
    1MUSC O00Mu 2230   0.226   2.946   3.247
    1MUSC O00Mv 2231   0.833   2.758   1.446
    1MUSC O00Mw 2232   0.439   3.126   3.255
    1MUSC O00Mx 2233   0.271   2.758   2.252
    1MUSC O00My 2234   0.482   3.126   2.449
    1MUSC O00Mz 2235   0.693   3.007   1.665
    1MUSC O00N0 2236   0.579   2.877   3.036
    1MUSC O00N1 2237   0.411   3.007   2.032
    1MUSC O00N2 2238   0.342   2.877   2.669
    1MUSC O00N3 2239   0.672   3.044   2.013
    1MUSC O00N4 2240   0.601   2.840   2.688
    1MUSC O00N5 2241   0.432   3.044   1.685
    1MUSC O00N6 2242   0.320   2.840   3.016
    1MUSC O00N7 2243   0.572   2.800   2.013
    1MUSC O00N8 2244   0.701   3.084   2.688
    1MUSC O00N9 2245   0.532   2.800   1.684
    1MUSC O00NA 2246   0.220   3.084   3.017
    1MUSC O00NB 2247   0.833   3.116   1.454
    1MUSC O00NC 2248   0.439   2.768   3.247
    1MUSC O00ND 2249   0.270   3.116   2.243
    1MUSC O00NE 2250   0.482   2.768   2.458
    1MUSC K001T 2251   0.383   4.436   0.845
    1MUSC K001U 2252   0.643   3.983   0.845
    1MUSC Al03t 2253   0.562   4.147   0.343
    1MUSC Al03u 2254   0.556   4.453   0.344
    1MUSC Al03v 2255   0.908   4.147   3.355
    1MUSC Al03w 2256   0.731   4.453   1.346
    1MUSC Al03x 2257   0.823   3.695   0.343
    1MUSC Al03y 2258   0.816   4.000   0.344
    1MUSC Al03z 2259   0.647   3.695   3.355
    1MUSC Al040 2260   0.471   4.000   1.346
    1MUSC Si07l 2261   0.738   4.462   3.621
    1MUSC Si07m 2262   0.380   4.138   1.080
    1MUSC Si07n 2263   0.732   4.462   0.077
    1MUSC Si07o 2264   0.907   4.138   0.610
    1MUSC Si07p 2265   0.479   4.307   0.077
    1MUSC Si07q 2266   0.640   4.293   0.610
    1MUSC Si07r 2267   0.991   4.307   3.620
    1MUSC Si07s 2268   0.647   4.293   1.081
    1MUSC Si07t 2269   0.998   4.010   3.621
    1MUSC Si07u 2270   0.640   3.685   1.080
    1MUSC Si07v 2271   0.472   4.010   0.077
    1MUSC Si07w 2272   0.647   3.685   0.610
    1MUSC Si07x 2273   0.739   3.855   0.077
    1MUSC Si07y 2274   0.900   3.840   0.610
    1MUSC Si07z 2275   0.731   3.855   3.620
    1MUSC Si080 2276   0.387   3.840   1.081
    1MUSC O00NF 2277   0.501   4.296   0.236
    1MUSC O00NG 2278   0.618   4.304   0.451
    1MUSC O00NH 2279   0.969   4.296   3.461
    1MUSC O00NI 2280   0.669   4.304   1.240
    1MUSC O00NJ 2281   0.756   4.116   3.453
    1MUSC O00NK 2282   0.362   4.484   1.248
    1MUSC O00NL 2283   0.714   4.116   0.245
    1MUSC O00NM 2284   0.925   4.484   0.442
    1MUSC O00NN 2285   0.616   4.365   3.672
    1MUSC O00NO 2286   0.502   4.235   1.029
    1MUSC O00NP 2287   0.854   4.365   0.025
    1MUSC O00NQ 2288   0.785   4.235   0.662
    1MUSC O00NR 2289   0.595   4.402   0.006
    1MUSC O00NS 2290   0.524   4.198   0.681
    1MUSC O00NT 2291   0.875   4.402   3.692
    1MUSC O00NU 2292   0.763   4.198   1.009
    1MUSC O00NV 2293   0.495   4.158   0.006
    1MUSC O00NW 2294   0.624   4.442   0.681
    1MUSC O00NX 2295   0.975   4.158   3.691
    1MUSC O00NY 2296   0.663   4.442   1.010
    1MUSC O00NZ 2297   0.756   4.474   3.461
    1MUSC O00Na 2298   0.362   4.126   1.240
    1MUSC O00Nb 2299   0.714   4.474   0.236
    1MUSC O00Nc 2300   0.925   4.126   0.451
    1MUSC O00Nd 2301   0.761   3.843   0.236
    1MUSC O00Ne 2302   0.878   3.852   0.451
    1MUSC O00Nf 2303   0.709   3.843   3.461
    1MUSC O00Ng 2304   0.409   3.852   1.240
    1MUSC O00Nh 2305   1.016   3.663   3.453
    1MUSC O00Ni 2306   0.622   4.031   1.248
    1MUSC O00Nj 2307   0.454   3.663   0.245
    1MUSC O00Nk 2308   0.665   4.031   0.442
    1MUSC O00Nl 2309   0.876   3.912   3.672
    1MUSC O00Nm 2310   0.762   3.783   1.029
    1MUSC O00Nn 2311   0.594   3.912   0.025
    1MUSC O00No 2312   0.525   3.783   0.662
    1MUSC O00Np 2313   0.855   3.949   0.006
    1MUSC O00Nq 2314   0.784   3.746   0.681
    1MUSC O00Nr 2315   0.615   3.949   3.692
    1MUSC O00Ns 2316   0.503   3.746   1.009
    1MUSC O00Nt 2317   0.755   3.705   0.006
    1MUSC O00Nu 2318   0.884   3.989   0.681
    1MUSC O00Nv 2319   0.715   3.705   3.691
    1MUSC O00Nw 2320   0.403   3.989   1.010
    1MUSC O00Nx 2321   1.017   4.021   3.461
    1MUSC O00Ny 2322   0.622   3.673   1.240
    1MUSC O00Nz 2323   0.453   4.021   0.236
    1MUSC O00O0 2324   0.665   3.673   0.451
    1MUSC K001V 2325   0.552   4.164   1.849
    1MUSC K001W 2326   0.200   4.436   2.852
    1MUSC K001X 2327   0.292   3.711   1.849
    1MUSC K001Y 2328   0.460   3.983   2.852
    1MUSC Al041 2329   0.379   4.147   2.350
    1MUSC Al042 2330   0.373   4.453   2.351
    1MUSC Al043 2331   0.725   4.147   1.348
    1MUSC Al044 2332   0.548   4.453   3.353
    1MUSC Al045 2333   0.640   3.695   2.350
    1MUSC Al046 2334   0.633   4.000   2.351
    1MUSC Al047 2335   0.464   3.695   1.348
    1MUSC Al048 2336   0.288   4.000   3.353
    1MUSC Si081 2337   0.555   4.462   1.614
    1MUSC Si082 2338   0.197   4.138   3.087
    1MUSC Si083 2339   0.549   4.462   2.084
    1MUSC Si084 2340   0.724   4.138   2.617
    1MUSC Si085 2341   0.296   4.307   2.084
    1MUSC Si086 2342   0.457   4.293   2.617
    1MUSC Si087 2343   0.808   4.307   1.613
    1MUSC Si088 2344   0.464   4.293   3.088
    1MUSC Si089 2345   0.815   4.010   1.614
    1MUSC Si08A 2346   0.457   3.685   3.087
    1MUSC Si08B 2347   0.289   4.010   2.084
    1MUSC Si08C 2348   0.464   3.685   2.617
    1MUSC Si08D 2349   0.556   3.855   2.084
    1MUSC Si08E 2350   0.717   3.840   2.617
    1MUSC Si08F 2351   0.548   3.855   1.613
    1MUSC Si08G 2352   0.204   3.840   3.088
    1MUSC O00O1 2353   0.318   4.296   2.243
    1MUSC O00O2 2354   0.435   4.304   2.458
    1MUSC O00O3 2355   0.786   4.296   1.454
    1MUSC O00O4 2356   0.486   4.304   3.247
    1MUSC O00O5 2357   0.573   4.116   1.446
    1MUSC O00O6 2358   0.179   4.484   3.255
    1MUSC O00O7 2359   0.531   4.116   2.252
    1MUSC O00O8 2360   0.742   4.484   2.449
    1MUSC O00O9 2361   0.433   4.365   1.665
    1MUSC O00OA 2362   0.319   4.235   3.036
    1MUSC O00OB 2363   0.671   4.365   2.032
    1MUSC O00OC 2364   0.602   4.235   2.669
    1MUSC O00OD 2365   0.412   4.402   2.013
    1MUSC O00OE 2366   0.341   4.198   2.688
    1MUSC O00OF 2367   0.692   4.402   1.685
    1MUSC O00OG 2368   0.580   4.198   3.016
    1MUSC O00OH 2369   0.312   4.158   2.013
    1MUSC O00OI 2370   0.441   4.442   2.688
    1MUSC O00OJ 2371   0.792   4.158   1.684
    1MUSC O00OK 2372   0.480   4.442   3.017
    1MUSC O00OL 2373   0.573   4.474   1.454
    1MUSC O00OM 2374   0.179   4.126   3.247
    1MUSC O00ON 2375   0.531   4.474   2.243
    1MUSC O00OO 2376   0.742   4.126   2.458
    1MUSC O00OP 2377   0.578   3.843   2.243
    1MUSC O00OQ 2378   0.695   3.852   2.458
    1MUSC O00OR 2379   0.526   3.843   1.454
    1MUSC O00OS 2380   0.226   3.852   3.247
    1MUSC O00OT 2381   0.833   3.663   1.446
    1MUSC O00OU 2382   0.439   4.031   3.255
    1MUSC O00OV 2383   0.271   3.663   2.252
    1MUSC O00OW 2384   0.482   4.031   2.449
    1MUSC O00OX 2385   0.693   3.912   1.665
    1MUSC O00OY 2386   0.579   3.783   3.036
    1MUSC O00OZ 2387   0.411   3.912   2.032
    1MUSC O00Oa 2388   0.342   3.783   2.669
    1MUSC O00Ob 2389   0.672   3.949   2.013
    1MUSC O00Oc 2390   0.601   3.746   2.688
    1MUSC O00Od 2391   0.432   3.949   1.685
    1MUSC O00Oe 2392   0.320   3.746   3.016
    1MUSC O00Of 2393   0.572   3.705   2.013
    1MUSC O00Og 2394   0.701   3.989   2.688
    1MUSC O00Oh 2395   0.532   3.705   1.684
    1MUSC O00Oi 2396   0.220   3.989   3.017
    1MUSC O00Oj 2397   0.833   4.021   1.454
    1MUSC O00Ok 2398   0.439   3.673   3.247
    1MUSC O00Ol 2399   0.270   4.021   2.243
    1MUSC O00Om 2400   0.482   3.673   2.458
    1MUSC K001Z 2401   0.383   5.341   0.845
    1MUSC K001a 2402   0.643   4.889   0.845
    1MUSC Al049 2403   0.562   5.053   0.343
    1MUSC Al04A 2404   0.556   5.358   0.344
    1MUSC Al04B 2405   0.908   5.053   3.355
    1MUSC Al04C 2406   0.731   5.358   1.346
    1MUSC Al04D 2407   0.823   4.600   0.343
    1MUSC Al04E 2408   0.816   4.905   0.344
    1MUSC Al04F 2409   0.647   4.600   3.355
    1MUSC Al04G 2410   0.471   4.905   1.346
    1MUSC Si08H 2411   0.738   5.368   3.621
    1MUSC Si08I 2412   0.380   5.043   1.080
    1MUSC Si08J 2413   0.732   5.368   0.077
    1MUSC Si08K 2414   0.907   5.043   0.610
    1MUSC Si08L 2415   0.479   5.212   0.077
    1MUSC Si08M 2416   0.640   5.198   0.610
    1MUSC Si08N 2417   0.991   5.212   3.620
    1MUSC Si08O 2418   0.647   5.198   1.081
    1MUSC Si08P 2419   0.998   4.915   3.621
    1MUSC Si08Q 2420   0.640   4.590   1.080
    1MUSC Si08R 2421   0.472   4.915   0.077
    1MUSC Si08S 2422   0.647   4.590   0.610
    1MUSC Si08T 2423   0.739   4.760   0.077
    1MUSC Si08U 2424   0.900   4.746   0.610
    1MUSC Si08V 2425   0.731   4.760   3.620
    1MUSC Si08W 2426   0.387   4.746   1.081
    1MUSC O00On 2427   0.501   5.201   0.236
    1MUSC O00Oo 2428   0.618   5.209   0.451
    1MUSC O00Op 2429   0.969   5.201   3.461
    1MUSC O00Oq 2430   0.669   5.209   1.240
    1MUSC O00Or 2431   0.756   5.021   3.453
    1MUSC O00Os 2432   0.362   5.389   1.248
    1MUSC O00Ot 2433   0.714   5.021   0.245
    1MUSC O00Ou 2434   0.925   5.389   0.442
    1MUSC O00Ov 2435   0.616   5.270   3.672
    1MUSC O00Ow 2436   0.502   5.141   1.029
    1MUSC O00Ox 2437   0.854   5.270   0.025
    1MUSC O00Oy 2438   0.785   5.141   0.662
    1MUSC O00Oz 2439   0.595   5.307   0.006
    1MUSC O00P0 2440   0.524   5.104   0.681
    1MUSC O00P1 2441   0.875   5.307   3.692
    1MUSC O00P2 2442   0.763   5.104   1.009
    1MUSC O00P3 2443   0.495   5.063   0.006
    1MUSC O00P4 2444   0.624   5.347   0.681
    1MUSC O00P5 2445   0.975   5.063   3.691
    1MUSC O00P6 2446   0.663   5.347   1.010
    1MUSC O00P7 2447   0.756   5.379   3.461
    1MUSC O00P8 2448   0.362   5.031   1.240
    1MUSC O00P9 2449   0.714   5.379   0.236
    1MUSC O00PA 2450   0.925   5.031   0.451
    1MUSC O00PB 2451   0.761   4.749   0.236
    1MUSC O00PC 2452   0.878   4.757   0.451
    1MUSC O00PD 2453   0.709   4.749   3.461
    1MUSC O00PE 2454   0.409   4.757   1.240
    1MUSC O00PF 2455   1.016   4.569   3.453
    1MUSC O00PG 2456   0.622   4.937   1.248
    1MUSC O00PH 2457   0.454   4.569   0.245
    1MUSC O00PI 2458   0.665   4.937   0.442
    1MUSC O00PJ 2459   0.876   4.817   3.672
    1MUSC O00PK 2460   0.762   4.688   1.029
    1MUSC O00PL 2461   0.594   4.817   0.025
    1MUSC O00PM 2462   0.525   4.688   0.662
    1MUSC O00PN 2463   0.855   4.854   0.006
    1MUSC O00PO 2464   0.784   4.651   0.681
    1MUSC O00PP 2465   0.615   4.854   3.692
    1MUSC O00PQ 2466   0.503   4.651   1.009
    1MUSC O00PR 2467   0.755   4.611   0.006
    1MUSC O00PS 2468   0.884   4.895   0.681
    1MUSC O00PT 2469   0.715   4.611   3.691
    1MUSC O00PU 2470   0.403   4.895   1.010
    1MUSC O00PV 2471   1.017   4.927   3.461
    1MUSC O00PW 2472   0.622   4.579   1.240
    1MUSC O00PX 2473   0.453   4.927   0.236
    1MUSC O00PY 2474   0.665   4.579   0.451
    1MUSC K001b 2475   0.552   5.069   1.849
    1MUSC K001c 2476   0.200   5.341   2.852
    1MUSC K001d 2477   0.292   4.617   1.849
    1MUSC K001e 2478   0.460   4.889   2.852
    1MUSC Al04H 2479   0.379   5.053   2.350
    1MUSC Al04I 2480   0.373   5.358   2.351
    1MUSC Al04J 2481   0.725   5.053   1.348
    1MUSC Al04K 2482   0.548   5.358   3.353
    1MUSC Al04L 2483   0.640   4.600   2.350
    1MUSC Al04M 2484   0.633   4.905   2.351
    1MUSC Al04N 2485   0.464   4.600   1.348
    1MUSC Al04O 2486   0.288   4.905   3.353
    1MUSC Si08X 2487   0.555   5.368   1.614
    1MUSC Si08Y 2488   0.197   5.043   3.087
    1MUSC Si08Z 2489   0.549   5.368   2.084
    1MUSC Si08a 2490   0.724   5.043   2.617
    1MUSC Si08b 2491   0.296   5.212   2.084
    1MUSC Si08c 2492   0.457   5.198   2.617
    1MUSC Si08d 2493   0.808   5.212   1.613
    1MUSC Si08e 2494   0.464   5.198   3.088
    1MUSC Si08f 2495   0.815   4.915   1.614
    1MUSC Si08g 2496   0.457   4.590   3.087
    1MUSC Si08h 2497   0.289   4.915   2.084
    1MUSC Si08i 2498   0.464   4.590   2.617
    1MUSC Si08j 2499   0.556   4.760   2.084
    1MUSC Si08k 2500   0.717   4.746   2.617
    1MUSC Si08l 2501   0.548   4.760   1.613
    1MUSC Si08m 2502   0.204   4.746   3.088
    1MUSC O00PZ 2503   0.318   5.201   2.243
    1MUSC O00Pa 2504   0.435   5.209   2.458
    1MUSC O00Pb 2505   0.786   5.201   1.454
    1MUSC O00Pc 2506   0.486   5.209   3.247
    1MUSC O00Pd 2507   0.573   5.021   1.446
    1MUSC O00Pe 2508   0.179   5.389   3.255
    1MUSC O00Pf 2509   0.531   5.021   2.252
    1MUSC O00Pg 2510   0.742   5.389   2.449
    1MUSC O00Ph 2511   0.433   5.270   1.665
    1MUSC O00Pi 2512   0.319   5.141   3.036
    1MUSC O00Pj 2513   0.671   5.270   2.032
    1MUSC O00Pk 2514   0.602   5.141   2.669
    1MUSC O00Pl 2515   0.412   5.307   2.013
    1MUSC O00Pm 2516   0.341   5.104   2.688
    1MUSC O00Pn 2517   0.692   5.307   1.685
    1MUSC O00Po 2518   0.580   5.104   3.016
    1MUSC O00Pp 2519   0.312   5.063   2.013
    1MUSC O00Pq 2520   0.441   5.347   2.688
    1MUSC O00Pr 2521   0.792   5.063   1.684
    1MUSC O00Ps 2522   0.480   5.347   3.017
    1MUSC O00Pt 2523   0.573   5.379   1.454
    1MUSC O00Pu 2524   0.179   5.031   3.247
    1MUSC O00Pv 2525   0.531   5.379   2.243
    1MUSC O00Pw 2526   0.742   5.031   2.458
    1MUSC O00Px 2527   0.578   4.749   2.243
    1MUSC O00Py 2528   0.695   4.757   2.458
    1MUSC O00Pz 2529   0.526   4.749   1.454
    1MUSC O00Q0 2530   0.226   4.757   3.247
    1MUSC O00Q1 2531   0.833   4.569   1.446
    1MUSC O00Q2 2532   0.439   4.937   3.255
    1MUSC O00Q3 2533   0.271   4.569   2.252
    1MUSC O00Q4 2534   0.482   4.937   2.449
    1MUSC O00Q5 2535   0.693   4.817   1.665
    1MUSC O00Q6 2536   0.579   4.688   3.036
    1MUSC O00Q7 2537   0.411   4.817   2.032
    1MUSC O00Q8 2538   0.342   4.688   2.669
    1MUSC O00Q9 2539   0.672   4.854   2.013
    1MUSC O00QA 2540   0.601   4.651   2.688
    1MUSC O00QB 2541   0.432   4.854   1.685
    1MUSC O00QC 2542   0.320   4.651   3.016
    1MUSC O00QD 2543   0.572   4.611   2.013
    1MUSC O00QE 2544   0.701   4.895   2.688
    1MUSC O00QF 2545   0.532   4.611   1.684
    1MUSC O00QG 2546   0.220   4.895   3.017
    1MUSC O00QH 2547   0.833   4.927   1.454
    1MUSC O00QI 2548   0.439   4.579   3.247
    1MUSC O00QJ 2549   0.270   4.927   2.243
    1MUSC O00QK 2550   0.482   4.579   2.458
    1MUSC K001f 2551   0.383   6.247   0.845
    1MUSC K001g 2552   0.643   5.794   0.845
    1MUSC Al04P 2553   0.562   5.958   0.343
    1MUSC Al04Q 2554   0.556   6.263   0.344
    1MUSC Al04R 2555   0.908   5.958   3.355
    1MUSC Al04S 2556   0.731   6.263   1.346
    1MUSC Al04T 2557   0.823   5.505   0.343
    1MUSC Al04U 2558   0.816   5.810   0.344
    1MUSC Al04V 2559   0.647   5.505   3.355
    1MUSC Al04W 2560   0.471   5.810   1.346
    1MUSC Si08n 2561   0.738   6.273   3.621
    1MUSC Si08o 2562   0.380   5.948   1.080
    1MUSC Si08p 2563   0.732   6.273   0.077
    1MUSC Si08q 2564   0.907   5.948   0.610
    1MUSC Si08r 2565   0.479   6.118   0.077
    1MUSC Si08s 2566   0.640   6.103   0.610
    1MUSC Si08t 2567   0.991   6.118   3.620
    1MUSC Si08u 2568   0.647   6.103   1.081
    1MUSC Si08v 2569   0.998   5.820   3.621
    1MUSC Si08w 2570   0.640   5.495   1.080
    1MUSC Si08x 2571   0.472   5.820   0.077
    1MUSC Si08y 2572   0.647   5.495   0.610
    1MUSC Si08z 2573   0.739   5.665   0.077
    1MUSC Si090 2574   0.900   5.651   0.610
    1MUSC Si091 2575   0.731   5.665   3.620
    1MUSC Si092 2576   0.387   5.651   1.081
    1MUSC O00QL 2577   0.501   6.106   0.236
    1MUSC O00QM 2578   0.618   6.115   0.451
    1MUSC O00QN 2579   0.969   6.106   3.461
    1MUSC O00QO 2580   0.669   6.115   1.240
    1MUSC O00QP 2581   0.756   5.927   3.453
    1MUSC O00QQ 2582   0.362   6.295   1.248
    1MUSC O00QR 2583   0.714   5.927   0.245
    1MUSC O00QS 2584   0.925   6.295   0.442
    1MUSC O00QT 2585   0.616   6.175   3.672
    1MUSC O00QU 2586   0.502   6.046   1.029
    1MUSC O00QV 2587   0.854   6.175   0.025
    1MUSC O00QW 2588   0.785   6.046   0.662
    1MUSC O00QX 2589   0.595   6.212   0.006
    1MUSC O00QY 2590   0.524   6.009   0.681
    1MUSC O00QZ 2591   0.875   6.212   3.692
    1MUSC O00Qa 2592   0.763   6.009   1.009
    1MUSC O00Qb 2593   0.495   5.969   0.006
    1MUSC O00Qc 2594   0.624   6.253   0.681
    1MUSC O00Qd 2595   0.975   5.969   3.691
    1MUSC O00Qe 2596   0.663   6.253   1.010
    1MUSC O00Qf 2597   0.756   6.285   3.461
    1MUSC O00Qg 2598   0.362   5.937   1.240
    1MUSC O00Qh 2599   0.714   6.285   0.236
    1MUSC O00Qi 2600   0.925   5.937   0.451
    1MUSC O00Qj 2601   0.761   5.654   0.236
    1MUSC O00Qk 2602   0.878   5.662   0.451
    1MUSC O00Ql 2603   0.709   5.654   3.461
    1MUSC O00Qm 2604   0.409   5.662   1.240
    1MUSC O00Qn 2605   1.016   5.474   3.453
    1MUSC O00Qo 2606   0.622   5.842   1.248
    1MUSC O00Qp 2607   0.454   5.474   0.245
    1MUSC O00Qq 2608   0.665   5.842   0.442
    1MUSC O00Qr 2609   0.876   5.723   3.672
    1MUSC O00Qs 2610   0.762   5.593   1.029
    1MUSC O00Qt 2611   0.594   5.723   0.025
    1MUSC O00Qu 2612   0.525   5.593   0.662
    1MUSC O00Qv 2613   0.855   5.760   0.006
    1MUSC O00Qw 2614   0.784   5.556   0.681
    1MUSC O00Qx 2615   0.615   5.760   3.692
    1MUSC O00Qy 2616   0.503   5.556   1.009
    1MUSC O00Qz 2617   0.755   5.516   0.006
    1MUSC O00R0 2618   0.884   5.800   0.681
    1MUSC O00R1 2619   0.715   5.516   3.691
    1MUSC O00R2 2620   0.403   5.800   1.010
    1MUSC O00R3 2621   1.017   5.832   3.461
    1MUSC O00R4 2622   0.622   5.484   1.240
    1MUSC O00R5 2623   0.453   5.832   0.236
    1MUSC O00R6 2624   0.665   5.484   0.451
    1MUSC K001h 2625   0.552   5.975   1.849
    1MUSC K001i 2626   0.200   6.247   2.852
    1MUSC K001j 2627   0.292   5.522   1.849
    1MUSC K001k 2628   0.460   5.794   2.852
    1MUSC Al04X 2629   0.379   5.958   2.350
    1MUSC Al04Y 2630   0.373   6.263   2.351
    1MUSC Al04Z 2631   0.725   5.958   1.348
    1MUSC Al04a 2632   0.548   6.263   3.353
    1MUSC Al04b 2633   0.640   5.505   2.350
    1MUSC Al04c 2634   0.633   5.810   2.351
    1MUSC Al04d 2635   0.464   5.505   1.348
    1MUSC Al04e 2636   0.288   5.810   3.353
    1MUSC Si093 2637   0.555   6.273   1.614
    1MUSC Si094 2638   0.197   5.948   3.087
    1MUSC Si095 2639   0.549   6.273   2.084
    1MUSC Si096 2640   0.724   5.948   2.617
    1MUSC Si097 2641   0.296   6.118   2.084
    1MUSC Si098 2642   0.457   6.103   2.617
    1MUSC Si099 2643   0.808   6.118   1.613
    1MUSC Si09A 2644   0.464   6.103   3.088
    1MUSC Si09B 2645   0.815   5.820   1.614
    1MUSC Si09C 2646   0.457   5.495   3.087
    1MUSC Si09D 2647   0.289   5.820   2.084
    1MUSC Si09E 2648   0.464   5.495   2.617
    1MUSC Si09F 2649   0.556   5.665   2.084
    1MUSC Si09G 2650   0.717   5.651   2.617
    1MUSC Si09H 2651   0.548   5.665   1.613
    1MUSC Si09I 2652   0.204   5.651   3.088
    1MUSC O00R7 2653   0.318   6.106   2.243
    1MUSC O00R8 2654   0.435   6.115   2.458
    1MUSC O00R9 2655   0.786   6.106   1.454
    1MUSC O00RA 2656   0.486   6.115   3.247
    1MUSC O00RB 2657   0.573   5.927   1.446
    1MUSC O00RC 2658   0.179   6.295   3.255
    1MUSC O00RD 2659   0.531   5.927   2.252
    1MUSC O00RE 2660   0.742   6.295   2.449
    1MUSC O00RF 2661   0.433   6.175   1.665
    1MUSC O00RG 2662   0.319   6.046   3.036
    1MUSC O00RH 2663   0.671   6.175   2.032
    1MUSC O00RI 2664   0.602   6.046   2.669
    1MUSC O00RJ 2665   0.412   6.212   2.013
    1MUSC O00RK 2666   0.341   6.009   2.688
    1MUSC O00RL 2667   0.692   6.212   1.685
    1MUSC O00RM 2668   0.580   6.009   3.016
    1MUSC O00RN 2669   0.312   5.969   2.013
    1MUSC O00RO 2670   0.441   6.253   2.688
    1MUSC O00RP 2671   0.792   5.969   1.684
    1MUSC O00RQ 2672   0.480   6.253   3.017
    1MUSC O00RR 2673   0.573   6.285   1.454
    1MUSC O00RS 2674   0.179   5.937   3.247
    1MUSC O00RT 2675   0.531   6.285   2.243
    1MUSC O00RU 2676   0.742   5.937   2.458
    1MUSC O00RV 2677   0.578   5.654   2.243
    1MUSC O00RW 2678   0.695   5.662   2.458
    1MUSC O00RX 2679   0.526   5.654   1.454
    1MUSC O00RY 2680   0.226   5.662   3.247
    1MUSC O00RZ 2681   0.833   5.474   1.446
    1MUSC O00Ra 2682   0.439   5.842   3.255
    1MUSC O00Rb 2683   0.271   5.474   2.252
    1MUSC O00Rc 2684   0.482   5.842   2.449
    1MUSC O00Rd 2685   0.693   5.723   1.665
    1MUSC O00Re 2686   0.579   5.593   3.036
    1MUSC O00Rf 2687   0.411   5.723   2.032
    1MUSC O00Rg 2688   0.342   5.593   2.669
    1MUSC O00Rh 2689   0.672   5.760   2.013
    1MUSC O00Ri 2690   0.601   5.556   2.688
    1MUSC O00Rj 2691   0.432   5.760   1.685
    1MUSC O00Rk 2692   0.320   5.556   3.016
    1MUSC O00Rl 2693   0.572   5.516   2.013
    1MUSC O00Rm 2694   0.701   5.800   2.688
    1MUSC O00Rn 2695   0.532   5.516   1.684
    1MUSC O00Ro 2696   0.220   5.800   3.017
    1MUSC O00Rp 2697   0.833   5.832   1.454
    1MUSC O00Rq 2698   0.439   5.484   3.247
    1MUSC O00Rr 2699   0.270   5.832   2.243
    1MUSC O00Rs 2700   0.482   5.484   2.458
    1MUSC K001l 2701   0.383   7.152   0.845
    1MUSC K001m 2702   0.643   6.699   0.845
    1MUSC Al04f 2703   0.562   6.863   0.343
    1MUSC Al04g 2704   0.556   7.168   0.344
    1MUSC Al04h 2705   0.908   6.863   3.355
    1MUSC Al04i 2706   0.731   7.168   1.346
    1MUSC Al04j 2707   0.823   6.411   0.343
    1MUSC Al04k 2708   0.816   6.716   0.344
    1MUSC Al04l 2709   0.647   6.411   3.355
    1MUSC Al04m 2710   0.471   6.716   1.346
    1MUSC Si09J 2711   0.738   7.178   3.621
    1MUSC Si09K 2712   0.380   6.853   1.080
    1MUSC Si09L 2713   0.732   7.178   0.077
    1MUSC Si09M 2714   0.907   6.853   0.610
    1MUSC Si09N 2715   0.479   7.023   0.077
    1MUSC Si09O 2716   0.640   7.009   0.610
    1MUSC Si09P 2717   0.991   7.023   3.620
    1MUSC Si09Q 2718   0.647   7.009   1.081
    1MUSC Si09R 2719   0.998   6.726   3.621
    1MUSC Si09S 2720   0.640   6.401   1.080
    1MUSC Si09T 2721   0.472   6.726   0.077
    1MUSC Si09U 2722   0.647   6.401   0.610
    1MUSC Si09V 2723   0.739   6.570   0.077
    1MUSC Si09W 2724   0.900   6.556   0.610
    1MUSC Si09X 2725   0.731   6.570   3.620
    1MUSC Si09Y 2726   0.387   6.556   1.081
    1MUSC O00Rt 2727   0.501   7.012   0.236
    1MUSC O00Ru 2728   0.618   7.020   0.451
    1MUSC O00Rv 2729   0.969   7.012   3.461
    1MUSC O00Rw 2730   0.669   7.020   1.240
    1MUSC O00Rx 2731   0.756   6.832   3.453
    1MUSC O00Ry 2732   0.362   7.200   1.248
    1MUSC O00Rz 2733   0.714   6.832   0.245
    1MUSC O00S0 2734   0.925   7.200   0.442
    1MUSC O00S1 2735   0.616   7.080   3.672
    1MUSC O00S2 2736   0.502   6.951   1.029
    1MUSC O00S3 2737   0.854   7.080   0.025
    1MUSC O00S4 2738   0.785   6.951   0.662
    1MUSC O00S5 2739   0.595   7.117   0.006
    1MUSC O00S6 2740   0.524   6.914   0.681
    1MUSC O00S7 2741   0.875   7.117   3.692
    1MUSC O00S8 2742   0.763   6.914   1.009
    1MUSC O00S9 2743   0.495   6.874   0.006
    1MUSC O00SA 2744   0.624   7.158   0.681
    1MUSC O00SB 2745   0.975   6.874   3.691
    1MUSC O00SC 2746   0.663   7.158   1.010
    1MUSC O00SD 2747   0.756   7.190   3.461
    1MUSC O00SE 2748   0.362   6.842   1.240
    1MUSC O00SF 2749   0.714   7.190   0.236
    1MUSC O00SG 2750   0.925   6.842   0.451
    1MUSC O00SH 2751   0.761   6.559   0.236
    1MUSC O00SI 2752   0.878   6.567   0.451
    1MUSC O00SJ 2753   0.709   6.559   3.461
    1MUSC O00SK 2754   0.409   6.567   1.240
    1MUSC O00SL 2755   1.016   6.379   3.453
    1MUSC O00SM 2756   0.622   6.747   1.248
    1MUSC O00SN 2757   0.454   6.379   0.245
    1MUSC O00SO 2758   0.665   6.747   0.442
    1MUSC O00SP 2759   0.876   6.628   3.672
    1MUSC O00SQ 2760   0.762   6.499   1.029
    1MUSC O00SR 2761   0.594   6.628   0.025
    1MUSC O00SS 2762   0.525   6.499   0.662
    1MUSC O00ST 2763   0.855   6.665   0.006
    1MUSC O00SU 2764   0.784   6.462   0.681
    1MUSC O00SV 2765   0.615   6.665   3.692
    1MUSC O00SW 2766   0.503   6.462   1.009
    1MUSC O00SX 2767   0.755   6.421   0.006
    1MUSC O00SY 2768   0.884   6.705   0.681
    1MUSC O00SZ 2769   0.715   6.421   3.691
    1MUSC O00Sa 2770   0.403   6.705   1.010
    1MUSC O00Sb 2771   1.017   6.737   3.461
    1MUSC O00Sc 2772   0.622   6.389   1.240
    1MUSC O00Sd 2773   0.453   6.737   0.236
    1MUSC O00Se 2774   0.665   6.389   0.451
    1MUSC K001n 2775   0.552   6.880   1.849
    1MUSC K001o 2776   0.200   7.152   2.852
    1MUSC K001p 2777   0.292   6.427   1.849
    1MUSC K001q 2778   0.460   6.699   2.852
    1MUSC Al04n 2779   0.379   6.863   2.350
    1MUSC Al04o 2780   0.373   7.168   2.351
    1MUSC Al04p 2781   0.725   6.863   1.348
    1MUSC Al04q 2782   0.548   7.168   3.353
    1MUSC Al04r 2783   0.640   6.411   2.350
    1MUSC Al04s 2784   0.633   6.716   2.351
    1MUSC Al04t 2785   0.464   6.411   1.348
    1MUSC Al04u 2786   0.288   6.716   3.353
    1MUSC Si09Z 2787   0.555   7.178   1.614
    1MUSC Si09a 2788   0.197   6.853   3.087
    1MUSC Si09b 2789   0.549   7.178   2.084
    1MUSC Si09c 2790   0.724   6.853   2.617
    1MUSC Si09d 2791   0.296   7.023   2.084
    1MUSC Si09e 2792   0.457   7.009   2.617
    1MUSC Si09f 2793   0.808   7.023   1.613
    1MUSC Si09g 2794   0.464   7.009   3.088
    1MUSC Si09h 2795   0.815   6.726   1.614
    1MUSC Si09i 2796   0.457   6.401   3.087
    1MUSC Si09j 2797   0.289   6.726   2.084
    1MUSC Si09k 2798   0.464   6.401   2.617
    1MUSC Si09l 2799   0.556   6.570   2.084
    1MUSC Si09m 2800   0.717   6.556   2.617
    1MUSC Si09n 2801   0.548   6.570   1.613
    1MUSC Si09o 2802   0.204   6.556   3.088
    1MUSC O00Sf 2803   0.318   7.012   2.243
    1MUSC O00Sg 2804   0.435   7.020   2.458
    1MUSC O00Sh 2805   0.786   7.012   1.454
    1MUSC O00Si 2806   0.486   7.020   3.247
    1MUSC O00Sj 2807   0.573   6.832   1.446
    1MUSC O00Sk 2808   0.179   7.200   3.255
    1MUSC O00Sl 2809   0.531   6.832   2.252
    1MUSC O00Sm 2810   0.742   7.200   2.449
    1MUSC O00Sn 2811   0.433   7.080   1.665
    1MUSC O00So 2812   0.319   6.951   3.036
    1MUSC O00Sp 2813   0.671   7.080   2.032
    1MUSC O00Sq 2814   0.602   6.951   2.669
    1MUSC O00Sr 2815   0.412   7.117   2.013
    1MUSC O00Ss 2816   0.341   6.914   2.688
    1MUSC O00St 2817   0.692   7.117   1.685
    1MUSC O00Su 2818   0.580   6.914   3.016
    1MUSC O00Sv 2819   0.312   6.874   2.013
    1MUSC O00Sw 2820   0.441   7.158   2.688
    1MUSC O00Sx 2821   0.792   6.874   1.684
    1MUSC O00Sy 2822   0.480   7.158   3.017
    1MUSC O00Sz 2823   0.573   7.190   1.454
    1MUSC O00T0 2824   0.179   6.842   3.247
    1MUSC O00T1 2825   0.531   7.190   2.243
    1MUSC O00T2 2826   0.742   6.842   2.458
    1MUSC O00T3 2827   0.578   6.559   2.243
    1MUSC O00T4 2828   0.695   6.567   2.458
    1MUSC O00T5 2829   0.526   6.559   1.454
    1MUSC O00T6 2830   0.226   6.567   3.247
    1MUSC O00T7 2831   0.833   6.379   1.446
    1MUSC O00T8 2832   0.439   6.747   3.255
    1MUSC O00T9 2833   0.271   6.379   2.252
    1MUSC O00TA 2834   0.482   6.747   2.449
    1MUSC O00TB 2835   0.693   6.628   1.665
    1MUSC O00TC 2836   0.579   6.499   3.036
    1MUSC O00TD 2837   0.411   6.628   2.032
    1MUSC O00TE 2838   0.342   6.499   2.669
    1MUSC O00TF 2839   0.672   6.665   2.013
    1MUSC O00TG 2840   0.601   6.462   2.688
    1MUSC O00TH 2841   0.432   6.665   1.685
    1MUSC O00TI 2842   0.320   6.462   3.016
    1MUSC O00TJ 2843   0.572   6.421   2.013
    1MUSC O00TK 2844   0.701   6.705   2.688
    1MUSC O00TL 2845   0.532   6.421   1.684
    1MUSC O00TM 2846   0.220   6.705   3.017
    1MUSC O00TN 2847   0.833   6.737   1.454
    1MUSC O00TO 2848   0.439   6.389   3.247
    1MUSC O00TP 2849   0.270   6.737   2.243
    1MUSC O00TQ 2850   0.482   6.389   2.458
    1MUSC K001r 2851   0.383   8.057   0.845
    1MUSC K001s 2852   0.643   7.605   0.845
    1MUSC Al04v 2853   0.562   7.769   0.343
    1MUSC Al04w 2854   0.556   8.074   0.344
    1MUSC Al04x 2855   0.908   7.769   3.355
    1MUSC Al04y 2856   0.731   8.074   1.346
    1MUSC Al04z 2857   0.823   7.316   0.343
    1MUSC Al050 2858   0.816   7.621   0.344
    1MUSC Al051 2859   0.647   7.316   3.355
    1MUSC Al052 2860   0.471   7.621   1.346
    1MUSC Si09p 2861   0.738   8.084   3.621
    1MUSC Si09q 2862   0.380   7.759   1.080
    1MUSC Si09r 2863   0.732   8.084   0.077
    1MUSC Si09s 2864   0.907   7.759   0.610
    1MUSC Si09t 2865   0.479   7.928   0.077
    1MUSC Si09u 2866   0.640   7.914   0.610
    1MUSC Si09v 2867   0.991   7.928   3.620
    1MUSC Si09w 2868   0.647   7.914   1.081
    1MUSC Si09x 2869   0.998   7.631   3.621
    1MUSC Si09y 2870   0.640   7.306   1.080
    1MUSC Si09z 2871   0.472   7.631   0.077
    1MUSC Si0A0 2872   0.647   7.306   0.610
    1MUSC Si0A1 2873   0.739   7.476   0.077
    1MUSC Si0A2 2874   0.900   7.461   0.610
    1MUSC Si0A3 2875   0.731   7.476   3.620
    1MUSC Si0A4 2876   0.387   7.461   1.081
    1MUSC O00TR 2877   0.501   7.917   0.236
    1MUSC O00TS 2878   0.618   7.925   0.451
    1MUSC O00TT 2879   0.969   7.917   3.461
    1MUSC O00TU 2880   0.669   7.925   1.240
    1MUSC O00TV 2881   0.756   7.737   3.453
    1MUSC O00TW 2882   0.362   8.105   1.248
    1MUSC O00TX 2883   0.714   7.737   0.245
    1MUSC O00TY 2884   0.925   8.105   0.442
    1MUSC O00TZ 2885   0.616   7.986   3.672
    1MUSC O00Ta 2886   0.502   7.856   1.029
    1MUSC O00Tb 2887   0.854   7.986   0.025
    1MUSC O00Tc 2888   0.785   7.856   0.662
    1MUSC O00Td 2889   0.595   8.023   0.006
    1MUSC O00Te 2890   0.524   7.819   0.681
    1MUSC O00Tf 2891   0.875   8.023   3.692
    1MUSC O00Tg 2892   0.763   7.819   1.009
    1MUSC O00Th 2893   0.495   7.779   0.006
    1MUSC O00Ti 2894   0.624   8.063   0.681
    1MUSC O00Tj 2895   0.975   7.779   3.691
    1MUSC O00Tk 2896   0.663   8.063   1.010
    1MUSC O00Tl 2897   0.756   8.095   3.461
    1MUSC O00Tm 2898   0.362   7.747   1.240
    1MUSC O00Tn 2899   0.714   8.095   0.236
    1MUSC O00To 2900   0.925   7.747   0.451
    1MUSC O00Tp 2901   0.761   7.464   0.236
    1MUSC O00Tq 2902   0.878   7.473   0.451
    1MUSC O00Tr 2903   0.709   7.464   3.461
    1MUSC O00Ts 2904   0.409   7.473   1.240
    1MUSC O00Tt 2905   1.016   7.284   3.453
    1MUSC O00Tu 2906   0.622   7.653   1.248
    1MUSC O00Tv 2907   0.454   7.284   0.245
    1MUSC O00Tw 2908   0.665   7.653   0.442
    1MUSC O00Tx 2909   0.876   7.533   3.672
    1MUSC O00Ty 2910   0.762   7.404   1.029
    1MUSC O00Tz 2911   0.594   7.533   0.025
    1MUSC O00U0 2912   0.525   7.404   0.662
    1MUSC O00U1 2913   0.855   7.570   0.006
    1MUSC O00U2 2914   0.784   7.367   0.681
    1MUSC O00U3 2915   0.615   7.570   3.692
    1MUSC O00U4 2916   0.503   7.367   1.009
    1MUSC O00U5 2917   0.755   7.326   0.006
    1MUSC O00U6 2918   0.884   7.611   0.681
    1MUSC O00U7 2919   0.715   7.326   3.691
    1MUSC O00U8 2920   0.403   7.611   1.010
    1MUSC O00U9 2921   1.017   7.642   3.461
    1MUSC O00UA 2922   0.622   7.295   1.240
    1MUSC O00UB 2923   0.453   7.642   0.236
    1MUSC O00UC 2924   0.665   7.295   0.451
    1MUSC K001t 2925   0.552   7.785   1.849
    1MUSC K001u 2926   0.200   8.057   2.852
    1MUSC K001v 2927   0.292   7.332   1.849
    1MUSC K001w 2928   0.460   7.605   2.852
    1MUSC Al053 2929   0.379   7.769   2.350
    1MUSC Al054 2930   0.373   8.074   2.351
    1MUSC Al055 2931   0.725   7.769   1.348
    1MUSC Al056 2932   0.548   8.074   3.353
    1MUSC Al057 2933   0.640   7.316   2.350
    1MUSC Al058 2934   0.633   7.621   2.351
    1MUSC Al059 2935   0.464   7.316   1.348
    1MUSC Al05A 2936   0.288   7.621   3.353
    1MUSC Si0A5 2937   0.555   8.084   1.614
    1MUSC Si0A6 2938   0.197   7.759   3.087
    1MUSC Si0A7 2939   0.549   8.084   2.084
    1MUSC Si0A8 2940   0.724   7.759   2.617
    1MUSC Si0A9 2941   0.296   7.928   2.084
    1MUSC Si0AA 2942   0.457   7.914   2.617
    1MUSC Si0AB 2943   0.808   7.928   1.613
    1MUSC Si0AC 2944   0.464   7.914   3.088
    1MUSC Si0AD 2945   0.815   7.631   1.614
    1MUSC Si0AE 2946   0.457   7.306   3.087
    1MUSC Si0AF 2947   0.289   7.631   2.084
    1MUSC Si0AG 2948   0.464   7.306   2.617
    1MUSC Si0AH 2949   0.556   7.476   2.084
    1MUSC Si0AI 2950   0.717   7.461   2.617
    1MUSC Si0AJ 2951   0.548   7.476   1.613
    1MUSC Si0AK 2952   0.204   7.461   3.088
    1MUSC O00UD 2953   0.318   7.917   2.243
    1MUSC O00UE 2954   0.435   7.925   2.458
    1MUSC O00UF 2955   0.786   7.917   1.454
    1MUSC O00UG 2956   0.486   7.925   3.247
    1MUSC O00UH 2957   0.573   7.737   1.446
    1MUSC O00UI 2958   0.179   8.105   3.255
    1MUSC O00UJ 2959   0.531   7.737   2.252
    1MUSC O00UK 2960   0.742   8.105   2.449
    1MUSC O00UL 2961   0.433   7.986   1.665
    1MUSC O00UM 2962   0.319   7.856   3.036
    1MUSC O00UN 2963   0.671   7.986   2.032
    1MUSC O00UO 2964   0.602   7.856   2.669
    1MUSC O00UP 2965   0.412   8.023   2.013
    1MUSC O00UQ 2966   0.341   7.819   2.688
    1MUSC O00UR 2967   0.692   8.023   1.685
    1MUSC O00US 2968   0.580   7.819   3.016
    1MUSC O00UT 2969   0.312   7.779   2.013
    1MUSC O00UU 2970   0.441   8.063   2.688
    1MUSC O00UV 2971   0.792   7.779   1.684
    1MUSC O00UW 2972   0.480   8.063   3.017
    1MUSC O00UX 2973   0.573   8.095   1.454
    1MUSC O00UY 2974   0.179   7.747   3.247
    1MUSC O00UZ 2975   0.531   8.095   2.243
    1MUSC O00Ua 2976   0.742   7.747   2.458
    1MUSC O00Ub 2977   0.578   7.464   2.243
    1MUSC O00Uc 2978   0.695   7.473   2.458
    1MUSC O00Ud 2979   0.526   7.464   1.454
    1MUSC O00Ue 2980   0.226   7.473   3.247
    1MUSC O00Uf 2981   0.833   7.284   1.446
    1MUSC O00Ug 2982   0.439   7.653   3.255
    1MUSC O00Uh 2983   0.271   7.284   2.252
    1MUSC O00Ui 2984   0.482   7.653   2.449
    1MUSC O00Uj 2985   0.693   7.533   1.665
    1MUSC O00Uk 2986   0.579   7.404   3.036
    1MUSC O00Ul 2987   0.411   7.533   2.032
    1MUSC O00Um 2988   0.342   7.404   2.669
    1MUSC O00Un 2989   0.672   7.570   2.013
    1MUSC O00Uo 2990   0.601   7.367   2.688
    1MUSC O00Up 2991   0.432   7.570   1.685
    1MUSC O00Uq 2992   0.320   7.367   3.016
    1MUSC O00Ur 2993   0.572   7.326   2.013
    1MUSC O00Us 2994   0.701   7.611   2.688
    1MUSC O00Ut 2995   0.532   7.326   1.684
    1MUSC O00Uu 2996   0.220   7.611   3.017
    1MUSC O00Uv 2997   0.833   7.642   1.454
    1MUSC O00Uw 2998   0.439   7.295   3.247
    1MUSC O00Ux 2999   0.270   7.642   2.243
    1MUSC O00Uy 3000   0.482   7.295   2.458
    1MUSC K001x 3001   0.383   8.962   0.845
    1MUSC K001y 3002   0.643   8.510   0.845
    1MUSC Al05B 3003   0.562   8.674   0.343
    1MUSC Al05C 3004   0.556   8.979   0.344
    1MUSC Al05D 3005   0.908   8.674   3.355
    1MUSC Al05E 3006   0.731   8.979   1.346
    1MUSC Al05F 3007   0.823   8.221   0.343
    1MUSC Al05G 3008   0.816   8.526   0.344
    1MUSC Al05H 3009   0.647   8.221   3.355
    1MUSC Al05I 3010   0.471   8.526   1.346
    1MUSC Si0AL 3011   0.738   8.989   3.621
    1MUSC Si0AM 3012   0.380   8.664   1.080
    1MUSC Si0AN 3013   0.732   8.989   0.077
    1MUSC Si0AO 3014   0.907   8.664   0.610
    1MUSC Si0AP 3015   0.479   8.834   0.077
    1MUSC Si0AQ 3016   0.640   8.819   0.610
    1MUSC Si0AR 3017   0.991   8.834   3.620
    1MUSC Si0AS 3018   0.647   8.819   1.081
    1MUSC Si0AT 3019   0.998   8.536   3.621
    1MUSC Si0AU 3020   0.640   8.211   1.080
    1MUSC Si0AV 3021   0.472   8.536   0.077
    1MUSC Si0AW 3022   0.647   8.211   0.610
    1MUSC Si0AX 3023   0.739   8.381   0.077
    1MUSC Si0AY 3024   0.900   8.367   0.610
    1MUSC Si0AZ 3025   0.731   8.381   3.620
    1MUSC Si0Aa 3026   0.387   8.367   1.081
    1MUSC O00Uz 3027   0.501   8.822   0.236
    1MUSC O00V0 3028   0.618   8.831   0.451
    1MUSC O00V1 3029   0.969   8.822   3.461
    1MUSC O00V2 3030   0.669   8.831   1.240
    1MUSC O00V3 3031   0.756   8.642   3.453
    1MUSC O00V4 3032   0.362   9.010   1.248
    1MUSC O00V5 3033   0.714   8.642   0.245
    1MUSC O00V6 3034   0.925   9.010   0.442
    1MUSC O00V7 3035   0.616   8.891   3.672
    1MUSC O00V8 3036   0.502   8.762   1.029
    1MUSC O00V9 3037   0.854   8.891   0.025
    1MUSC O00VA 3038   0.785   8.762   0.662
    1MUSC O00VB 3039   0.595   8.928   0.006
    1MUSC O00VC 3040   0.524   8.725   0.681
    1MUSC O00VD 3041   0.875   8.928   3.692
    1MUSC O00VE 3042   0.763   8.725   1.009
    1MUSC O00VF 3043   0.495   8.684   0.006
    1MUSC O00VG 3044   0.624   8.968   0.681
    1MUSC O00VH 3045   0.975   8.684   3.691
    1MUSC O00VI 3046   0.663   8.968   1.010
    1MUSC O00VJ 3047   0.756   9.000   3.461
    1MUSC O00VK 3048   0.362   8.652   1.240
    1MUSC O00VL 3049   0.714   9.000   0.236
    1MUSC O00VM 3050   0.925   8.652   0.451
    1MUSC O00VN 3051   0.761   8.370   0.236
    1MUSC O00VO 3052   0.878   8.378   0.451
    1MUSC O00VP 3053   0.709   8.370   3.461
    1MUSC O00VQ 3054   0.409   8.378   1.240
    1MUSC O00VR 3055   1.016   8.190   3.453
    1MUSC O00VS 3056   0.622   8.558   1.248
    1MUSC O00VT 3057   0.454   8.190   0.245
    1MUSC O00VU 3058   0.665   8.558   0.442
    1MUSC O00VV 3059   0.876   8.438   3.672
    1MUSC O00VW 3060   0.762   8.309   1.029
    1MUSC O00VX 3061   0.594   8.438   0.025
    1MUSC O00VY 3062   0.525   8.309   0.662
    1MUSC O00VZ 3063   0.855   8.475   0.006
    1MUSC O00Va 3064   0.784   8.272   0.681
    1MUSC O00Vb 3065   0.615   8.475   3.692
    1MUSC O00Vc 3066   0.503   8.272   1.009
    1MUSC O00Vd 3067   0.755   8.232   0.006
    1MUSC O00Ve 3068   0.884   8.516   0.681
    1MUSC O00Vf 3069   0.715   8.232   3.691
    1MUSC O00Vg 3070   0.403   8.516   1.010
    1MUSC O00Vh 3071   1.017   8.548   3.461
    1MUSC O00Vi 3072   0.622   8.200   1.240
    1MUSC O00Vj 3073   0.453   8.548   0.236
    1MUSC O00Vk 3074   0.665   8.200   0.451
    1MUSC K001z 3075   0.552   8.690   1.849
    1MUSC K0020 3076   0.200   8.962   2.852
    1MUSC K0021 3077   0.292   8.238   1.849
    1MUSC K0022 3078   0.460   8.510   2.852
    1MUSC Al05J 3079   0.379   8.674   2.350
    1MUSC Al05K 3080   0.373   8.979   2.351
    1MUSC Al05L 3081   0.725   8.674   1.348
    1MUSC Al05M 3082   0.548   8.979   3.353
    1MUSC Al05N 3083   0.640   8.221   2.350
    1MUSC Al05O 3084   0.633   8.526   2.351
    1MUSC Al05P 3085   0.464   8.221   1.348
    1MUSC Al05Q 3086   0.288   8.526   3.353
    1MUSC Si0Ab 3087   0.555   8.989   1.614
    1MUSC Si0Ac 3088   0.197   8.664   3.087
    1MUSC Si0Ad 3089   0.549   8.989   2.084
    1MUSC Si0Ae 3090   0.724   8.664   2.617
    1MUSC Si0Af 3091   0.296   8.834   2.084
    1MUSC Si0Ag 3092   0.457   8.819   2.617
    1MUSC Si0Ah 3093   0.808   8.834   1.613
    1MUSC Si0Ai 3094   0.464   8.819   3.088
    1MUSC Si0Aj 3095   0.815   8.536   1.614
    1MUSC Si0Ak 3096   0.457   8.211   3.087
    1MUSC Si0Al 3097   0.289   8.536   2.084
    1MUSC Si0Am 3098   0.464   8.211   2.617
    1MUSC Si0An 3099   0.556   8.381   2.084
    1MUSC Si0Ao 3100   0.717   8.367   2.617
    1MUSC Si0Ap 3101   0.548   8.381   1.613
    1MUSC Si0Aq 3102   0.204   8.367   3.088
    1MUSC O00Vl 3103   0.318   8.822   2.243
    1MUSC O00Vm 3104   0.435   8.831   2.458
    1MUSC O00Vn 3105   0.786   8.822   1.454
    1MUSC O00Vo 3106   0.486   8.831   3.247
    1MUSC O00Vp 3107   0.573   8.642   1.446
    1MUSC O00Vq 3108   0.179   9.010   3.255
    1MUSC O00Vr 3109   0.531   8.642   2.252
    1MUSC O00Vs 3110   0.742   9.010   2.449
    1MUSC O00Vt 3111   0.433   8.891   1.665
    1MUSC O00Vu 3112   0.319   8.762   3.036
    1MUSC O00Vv 3113   0.671   8.891   2.032
    1MUSC O00Vw 3114   0.602   8.762   2.669
    1MUSC O00Vx 3115   0.412   8.928   2.013
    1MUSC O00Vy 3116   0.341   8.725   2.688
    1MUSC O00Vz 3117   0.692   8.928   1.685
    1MUSC O00W0 3118   0.580   8.725   3.016
    1MUSC O00W1 3119   0.312   8.684   2.013
    1MUSC O00W2 3120   0.441   8.968   2.688
    1MUSC O00W3 3121   0.792   8.684   1.684
    1MUSC O00W4 3122   0.480   8.968   3.017
    1MUSC O00W5 3123   0.573   9.000   1.454
    1MUSC O00W6 3124   0.179   8.652   3.247
    1MUSC O00W7 3125   0.531   9.000   2.243
    1MUSC O00W8 3126   0.742   8.652   2.458
    1MUSC O00W9 3127   0.578   8.370   2.243
    1MUSC O00WA 3128   0.695   8.378   2.458
    1MUSC O00WB 3129   0.526   8.370   1.454
    1MUSC O00WC 3130   0.226   8.378   3.247
    1MUSC O00WD 3131   0.833   8.190   1.446
    1MUSC O00WE 3132   0.439   8.558   3.255
    1MUSC O00WF 3133   0.271   8.190   2.252
    1MUSC O00WG 3134   0.482   8.558   2.449
    1MUSC O00WH 3135   0.693   8.438   1.665
    1MUSC O00WI 3136   0.579   8.309   3.036
    1MUSC O00WJ 3137   0.411   8.438   2.032
    1MUSC O00WK 3138   0.342   8.309   2.669
    1MUSC O00WL 3139   0.672   8.475   2.013
    1MUSC O00WM 3140   0.601   8.272   2.688
    1MUSC O00WN 3141   0.432   8.475   1.685
    1MUSC O00WO 3142   0.320   8.272   3.016
    1MUSC O00WP 3143   0.572   8.232   2.013
    1MUSC O00WQ 3144   0.701   8.516   2.688
    1MUSC O00WR 3145   0.532   8.232   1.684
    1MUSC O00WS 3146   0.220   8.516   3.017
    1MUSC O00WT 3147   0.833   8.548   1.454
    1MUSC O00WU 3148   0.439   8.200   3.247
    1MUSC O00WV 3149   0.270   8.548   2.243
    1MUSC O00WW 3150   0.482   8.200   2.458
    1MUSC K0023 3151   0.383   9.868   0.845
    1MUSC K0024 3152   0.643   9.415   0.845
    1MUSC Al05R 3153   0.562   9.579   0.343
    1MUSC Al05S 3154   0.556   9.884   0.344
    1MUSC Al05T 3155   0.908   9.579   3.355
    1MUSC Al05U 3156   0.731   9.884   1.346
    1MUSC Al05V 3157   0.823   9.126   0.343
    1MUSC Al05W 3158   0.816   9.432   0.344
    1MUSC Al05X 3159   0.647   9.126   3.355
    1MUSC Al05Y 3160   0.471   9.432   1.346
    1MUSC Si0Ar 3161   0.738   9.894   3.621
    1MUSC Si0As 3162   0.380   9.569   1.080
    1MUSC Si0At 3163   0.732   9.894   0.077
    1MUSC Si0Au 3164   0.907   9.569   0.610
    1MUSC Si0Av 3165   0.479   9.739   0.077
    1MUSC Si0Aw 3166   0.640   9.724   0.610
    1MUSC Si0Ax 3167   0.991   9.739   3.620
    1MUSC Si0Ay 3168   0.647   9.724   1.081
    1MUSC Si0Az 3169   0.998   9.441   3.621
    1MUSC Si0B0 3170   0.640   9.117   1.080
    1MUSC Si0B1 3171   0.472   9.441   0.077
    1MUSC Si0B2 3172   0.647   9.117   0.610
    1MUSC Si0B3 3173   0.739   9.286   0.077
    1MUSC Si0B4 3174   0.900   9.272   0.610
    1MUSC Si0B5 3175   0.731   9.286   3.620
    1MUSC Si0B6 3176   0.387   9.272   1.081
    1MUSC O00WX 3177   0.501   9.728   0.236
    1MUSC O00WY 3178   0.618   9.736   0.451
    1MUSC O00WZ 3179   0.969   9.728   3.461
    1MUSC O00Wa 3180   0.669   9.736   1.240
    1MUSC O00Wb 3181   0.756   9.548   3.453
    1MUSC O00Wc 3182   0.362   9.916   1.248
    1MUSC O00Wd 3183   0.714   9.548   0.245
    1MUSC O00We 3184   0.925   9.916   0.442
    1MUSC O00Wf 3185   0.616   9.796   3.672
    1MUSC O00Wg 3186   0.502   9.667   1.029
    1MUSC O00Wh 3187   0.854   9.796   0.025
    1MUSC O00Wi 3188   0.785   9.667   0.662
    1MUSC O00Wj 3189   0.595   9.833   0.006
    1MUSC O00Wk 3190   0.524   9.630   0.681
    1MUSC O00Wl 3191   0.875   9.833   3.692
    1MUSC O00Wm 3192   0.763   9.630   1.009
    1MUSC O00Wn 3193   0.495   9.590   0.006
    1MUSC O00Wo 3194   0.624   9.874   0.681
    1MUSC O00Wp 3195   0.975   9.590   3.691
    1MUSC O00Wq 3196   0.663   9.874   1.010
    1MUSC O00Wr 3197   0.756   9.906   3.461
    1MUSC O00Ws 3198   0.362   9.558   1.240
    1MUSC O00Wt 3199   0.714   9.906   0.236
    1MUSC O00Wu 3200   0.925   9.558   0.451
    1MUSC O00Wv 3201   0.761   9.275   0.236
    1MUSC O00Ww 3202   0.878   9.283   0.451
    1MUSC O00Wx 3203   0.709   9.275   3.461
    1MUSC O00Wy 3204   0.409   9.283   1.240
    1MUSC O00Wz 3205   1.016   9.095   3.453
    1MUSC O00X0 3206   0.622   9.463   1.248
    1MUSC O00X1 3207   0.454   9.095   0.245
    1MUSC O00X2 3208   0.665   9.463   0.442
    1MUSC O00X3 3209   0.876   9.344   3.672
    1MUSC O00X4 3210   0.762   9.214   1.029
    1MUSC O00X5 3211   0.594   9.344   0.025
    1MUSC O00X6 3212   0.525   9.214   0.662
    1MUSC O00X7 3213   0.855   9.381   0.006
    1MUSC O00X8 3214   0.784   9.177   0.681
    1MUSC O00X9 3215   0.615   9.381   3.692
    1MUSC O00XA 3216   0.503   9.177   1.009
    1MUSC O00XB 3217   0.755   9.137   0.006
    1MUSC O00XC 3218   0.884   9.421   0.681
    1MUSC O00XD 3219   0.715   9.137   3.691
    1MUSC O00XE 3220   0.403   9.421   1.010
    1MUSC O00XF 3221   1.017   9.453   3.461
    1MUSC O00XG 3222   0.622   9.105   1.240
    1MUSC O00XH 3223   0.453   9.453   0.236
    1MUSC O00XI 3224   0.665   9.105   0.451
    1MUSC K0025 3225   0.552   9.596   1.849
    1MUSC K0026 3226   0.200   9.868   2.852
    1MUSC K0027 3227   0.292   9.143   1.849
    1MUSC K0028 3228   0.460   9.415   2.852
    1MUSC Al05Z 3229   0.379   9.579   2.350
    1MUSC Al05a 3230   0.373   9.884   2.351
    1MUSC Al05b 3231   0.725   9.579   1.348
    1MUSC Al05c 3232   0.548   9.884   3.353
    1MUSC Al05d 3233   0.640   9.126   2.350
    1MUSC Al05e 3234   0.633   9.432   2.351
    1MUSC Al05f 3235   0.464   9.126   1.348
    1MUSC Al05g 3236   0.288   9.432   3.353
    1MUSC Si0B7 3237   0.555   9.894   1.614
    1MUSC Si0B8 3238   0.197   9.569   3.087
    1MUSC Si0B9 3239   0.549   9.894   2.084
    1MUSC Si0BA 3240   0.724   9.569   2.617
    1MUSC Si0BB 3241   0.296   9.739   2.084
    1MUSC Si0BC 3242   0.457   9.724   2.617
    1MUSC Si0BD 3243   0.808   9.739   1.613
    1MUSC Si0BE 3244   0.464   9.724   3.088
    1MUSC Si0BF 3245   0.815   9.441   1.614
    1MUSC Si0BG 3246   0.457   9.117   3.087
    1MUSC Si0BH 3247   0.289   9.441   2.084
    1MUSC Si0BI 3248   0.464   9.117   2.617
    1MUSC Si0BJ 3249   0.556   9.286   2.084
    1MUSC Si0BK 3250   0.717   9.272   2.617
    1MUSC Si0BL 3251   0.548   9.286   1.613
    1MUSC Si0BM 3252   0.204   9.272   3.088
    1MUSC O00XJ 3253   0.318   9.728   2.243
    1MUSC O00XK 3254   0.435   9.736   2.458
    1MUSC O00XL 3255   0.786   9.728   1.454
    1MUSC O00XM 3256   0.486   9.736   3.247
    1MUSC O00XN 3257   0.573   9.548   1.446
    1MUSC O00XO 3258   0.179   9.916   3.255
    1MUSC O00XP 3259   0.531   9.548   2.252
    1MUSC O00XQ 3260   0.742   9.916   2.449
    1MUSC O00XR 3261   0.433   9.796   1.665
    1MUSC O00XS 3262   0.319   9.667   3.036
    1MUSC O00XT 3263   0.671   9.796   2.032
    1MUSC O00XU 3264   0.602   9.667   2.669
    1MUSC O00XV 3265   0.412   9.833   2.013
    1MUSC O00XW 3266   0.341   9.630   2.688
    1MUSC O00XX 3267   0.692   9.833   1.685
    1MUSC O00XY 3268   0.580   9.630   3.016
    1MUSC O00XZ 3269   0.312   9.590   2.013
    1MUSC O00Xa 3270   0.441   9.874   2.688
    1MUSC O00Xb 3271   0.792   9.590   1.684
    1MUSC O00Xc 3272   0.480   9.874   3.017
    1MUSC O00Xd 3273   0.573   9.906   1.454
    1MUSC O00Xe 3274   0.179   9.558   3.247
    1MUSC O00Xf 3275   0.531   9.906   2.243
    1MUSC O00Xg 3276   0.742   9.558   2.458
    1MUSC O00Xh 3277   0.578   9.275   2.243
    1MUSC O00Xi 3278   0.695   9.283   2.458
    1MUSC O00Xj 3279   0.526   9.275   1.454
    1MUSC O00Xk 3280   0.226   9.283   3.247
    1MUSC O00Xl 3281   0.833   9.095   1.446
    1MUSC O00Xm 3282   0.439   9.463   3.255
    1MUSC O00Xn 3283   0.271   9.095   2.252
    1MUSC O00Xo 3284   0.482   9.463   2.449
    1MUSC O00Xp 3285   0.693   9.344   1.665
    1MUSC O00Xq 3286   0.579   9.214   3.036
    1MUSC O00Xr 3287   0.411   9.344   2.032
    1MUSC O00Xs 3288   0.342   9.214   2.669
    1MUSC O00Xt 3289   0.672   9.381   2.013
    1MUSC O00Xu 3290   0.601   9.177   2.688
    1MUSC O00Xv 3291   0.432   9.381   1.685
    1MUSC O00Xw 3292   0.320   9.177   3.016
    1MUSC O00Xx 3293   0.572   9.137   2.013
    1MUSC O00Xy 3294   0.701   9.421   2.688
    1MUSC O00Xz 3295   0.532   9.137   1.684
    1MUSC O00Y0 3296   0.220   9.421   3.017
    1MUSC O00Y1 3297   0.833   9.453   1.454
    1MUSC O00Y2 3298   0.439   9.105   3.247
    1MUSC O00Y3 3299   0.270   9.453   2.243
    1MUSC O00Y4 3300   0.482   9.105   2.458
    1MUSC K0029 3301   0.904   0.815   0.845
    1MUSC K002A 3302   1.164   0.362   0.845
    1MUSC Al05h 3303   1.083   0.526   0.343
    1MUSC Al05i 3304   1.076   0.831   0.344
    1MUSC Al05j 3305   1.428   0.526   3.355
    1MUSC Al05k 3306   1.252   0.831   1.346
    1MUSC Al05l 3307   1.343   0.074   0.343
    1MUSC Al05m 3308   1.337   0.379   0.344
    1MUSC Al05n 3309   1.168   0.074   3.355
    1MUSC Al05o 3310   0.991   0.379   1.346
    1MUSC Si0BN 3311   1.259   0.841   3.621
    1MUSC Si0BO 3312   0.901   0.517   1.080
    1MUSC Si0BP 3313   1.252   0.841   0.077
    1MUSC Si0BQ 3314   1.427   0.517   0.610
    1MUSC Si0BR 3315   0.999   0.686   0.077
    1MUSC Si0BS 3316   1.160   0.672   0.610
    1MUSC Si0BT 3317   1.512   0.686   3.620
    1MUSC Si0BU 3318   1.168   0.672   1.081
    1MUSC Si0BV 3319   1.519   0.389   3.621
    1MUSC Si0BW 3320   1.161   0.064   1.080
    1MUSC Si0BX 3321   0.992   0.389   0.077
    1MUSC Si0BY 3322   1.167   0.064   0.610
    1MUSC Si0BZ 3323   1.259   0.233   0.077
    1MUSC Si0Ba 3324   1.420   0.219   0.610
    1MUSC Si0Bb 3325   1.252   0.233   3.620
    1MUSC Si0Bc 3326   0.908   0.219   1.081
    1MUSC O00Y5 3327   1.021   0.675   0.236
    1MUSC O00Y6 3328   1.138   0.683   0.451
    1MUSC O00Y7 3329   1.490   0.675   3.461
    1MUSC O00Y8 3330   1.190   0.683   1.240
    1MUSC O00Y9 3331   1.277   0.495   3.453
    1MUSC O00YA 3332   0.883   0.863   1.248
    1MUSC O00YB 3333   1.234   0.495   0.245
    1MUSC O00YC 3334   1.445   0.863   0.442
    1MUSC O00YD 3335   1.137   0.744   3.672
    1MUSC O00YE 3336   1.023   0.614   1.029
    1MUSC O00YF 3337   1.374   0.744   0.025
    1MUSC O00YG 3338   1.305   0.614   0.662
    1MUSC O00YH 3339   1.115   0.781   0.006
    1MUSC O00YI 3340   1.044   0.577   0.681
    1MUSC O00YJ 3341   1.396   0.781   3.692
    1MUSC O00YK 3342   1.284   0.577   1.009
    1MUSC O00YL 3343   1.015   0.537   0.006
    1MUSC O00YM 3344   1.144   0.821   0.681
    1MUSC O00YN 3345   1.496   0.537   3.691
    1MUSC O00YO 3346   1.184   0.821   1.010
    1MUSC O00YP 3347   1.277   0.853   3.461
    1MUSC O00YQ 3348   0.882   0.505   1.240
    1MUSC O00YR 3349   1.234   0.853   0.236
    1MUSC O00YS 3350   1.445   0.505   0.451
    1MUSC O00YT 3351   1.281   0.222   0.236
    1MUSC O00YU 3352   1.398   0.230   0.451
    1MUSC O00YV 3353   1.230   0.222   3.461
    1MUSC O00YW 3354   0.930   0.230   1.240
    1MUSC O00YX 3355   1.537   0.042   3.453
    1MUSC O00YY 3356   1.143   0.410   1.248
    1MUSC O00YZ 3357   0.974   0.042   0.245
    1MUSC O00Ya 3358   1.185   0.410   0.442
    1MUSC O00Yb 3359   1.397   0.291   3.672
    1MUSC O00Yc 3360   1.283   0.162   1.029
    1MUSC O00Yd 3361   1.114   0.291   0.025
    1MUSC O00Ye 3362   1.045   0.162   0.662
    1MUSC O00Yf 3363   1.375   0.328   0.006
    1MUSC O00Yg 3364   1.304   0.125   0.681
    1MUSC O00Yh 3365   1.136   0.328   3.692
    1MUSC O00Yi 3366   1.024   0.125   1.009
    1MUSC O00Yj 3367   1.275   0.084   0.006
    1MUSC O00Yk 3368   1.404   0.368   0.681
    1MUSC O00Yl 3369   1.236   0.084   3.691
    1MUSC O00Ym 3370   0.924   0.368   1.010
    1MUSC O00Yn 3371   1.537   0.400   3.461
    1MUSC O00Yo 3372   1.143   0.052   1.240
    1MUSC O00Yp 3373   0.974   0.400   0.236
    1MUSC O00Yq 3374   1.185   0.052   0.451
    1MUSC K002B 3375   1.072   0.543   1.849
    1MUSC K002C 3376   0.721   0.815   2.852
    1MUSC K002D 3377   0.812   0.090   1.849
    1MUSC K002E 3378   0.981   0.362   2.852
    1MUSC Al05p 3379   0.900   0.526   2.350
    1MUSC Al05q 3380   0.893   0.831   2.351
    1MUSC Al05r 3381   1.245   0.526   1.348
    1MUSC Al05s 3382   1.069   0.831   3.353
    1MUSC Al05t 3383   1.160   0.074   2.350
    1MUSC Al05u 3384   1.154   0.379   2.351
    1MUSC Al05v 3385   0.985   0.074   1.348
    1MUSC Al05w 3386   0.808   0.379   3.353
    1MUSC Si0Bd 3387   1.076   0.841   1.614
    1MUSC Si0Be 3388   0.718   0.517   3.087
    1MUSC Si0Bf 3389   1.069   0.841   2.084
    1MUSC Si0Bg 3390   1.244   0.517   2.617
    1MUSC Si0Bh 3391   0.816   0.686   2.084
    1MUSC Si0Bi 3392   0.977   0.672   2.617
    1MUSC Si0Bj 3393   1.329   0.686   1.613
    1MUSC Si0Bk 3394   0.985   0.672   3.088
    1MUSC Si0Bl 3395   1.336   0.389   1.614
    1MUSC Si0Bm 3396   0.978   0.064   3.087
    1MUSC Si0Bn 3397   0.809   0.389   2.084
    1MUSC Si0Bo 3398   0.984   0.064   2.617
    1MUSC Si0Bp 3399   1.076   0.233   2.084
    1MUSC Si0Bq 3400   1.237   0.219   2.617
    1MUSC Si0Br 3401   1.069   0.233   1.613
    1MUSC Si0Bs 3402   0.725   0.219   3.088
    1MUSC O00Yr 3403   0.838   0.675   2.243
    1MUSC O00Ys 3404   0.955   0.683   2.458
    1MUSC O00Yt 3405   1.307   0.675   1.454
    1MUSC O00Yu 3406   1.007   0.683   3.247
    1MUSC O00Yv 3407   1.094   0.495   1.446
    1MUSC O00Yw 3408   0.700   0.863   3.255
    1MUSC O00Yx 3409   1.051   0.495   2.252
    1MUSC O00Yy 3410   1.262   0.863   2.449
    1MUSC O00Yz 3411   0.954   0.744   1.665
    1MUSC O00Z0 3412   0.840   0.614   3.036
    1MUSC O00Z1 3413   1.191   0.744   2.032
    1MUSC O00Z2 3414   1.122   0.614   2.669
    1MUSC O00Z3 3415   0.932   0.781   2.013
    1MUSC O00Z4 3416   0.861   0.577   2.688
    1MUSC O00Z5 3417   1.213   0.781   1.685
    1MUSC O00Z6 3418   1.101   0.577   3.016
    1MUSC O00Z7 3419   0.832   0.537   2.013
    1MUSC O00Z8 3420   0.961   0.821   2.688
    1MUSC O00Z9 3421   1.313   0.537   1.684
    1MUSC O00ZA 3422   1.001   0.821   3.017
    1MUSC O00ZB 3423   1.094   0.853   1.454
    1MUSC O00ZC 3424   0.699   0.505   3.247
    1MUSC O00ZD 3425   1.051   0.853   2.243
    1MUSC O00ZE 3426   1.262   0.505   2.458
    1MUSC O00ZF 3427   1.098   0.222   2.243
    1MUSC O00ZG 3428   1.215   0.230   2.458
    1MUSC O00ZH 3429   1.047   0.222   1.454
    1MUSC O00ZI 3430   0.747   0.230   3.247
    1MUSC O00ZJ 3431   1.354   0.042   1.446
    1MUSC O00ZK 3432   0.960   0.410   3.255
    1MUSC O00ZL 3433   0.791   0.042   2.252
    1MUSC O00ZM 3434   1.002   0.410   2.449
    1MUSC O00ZN 3435   1.214   0.291   1.665
    1MUSC O00ZO 3436   1.100   0.162   3.036
    1MUSC O00ZP 3437   0.931   0.291   2.032
    1MUSC O00ZQ 3438   0.862   0.162   2.669
    1MUSC O00ZR 3439   1.192   0.328   2.013
    1MUSC O00ZS 3440   1.121   0.125   2.688
    1MUSC O00ZT 3441   0.953   0.328   1.685
    1MUSC O00ZU 3442   0.841   0.125   3.016
    1MUSC O00ZV 3443   1.092   0.084   2.013
    1MUSC O00ZW 3444   1.221   0.368   2.688
    1MUSC O00ZX 3445   1.053   0.084   1.684
    1MUSC O00ZY 3446   0.741   0.368   3.017
    1MUSC O00ZZ 3447   1.354   0.400   1.454
    1MUSC O00Za 3448   0.960   0.052   3.247
    1MUSC O00Zb 3449   0.791   0.400   2.243
    1MUSC O00Zc 3450   1.002   0.052   2.458
    1MUSC K002F 3451   0.904   1.720   0.845
    1MUSC K002G 3452   1.164   1.268   0.845
    1MUSC Al05x 3453   1.083   1.432   0.343
    1MUSC Al05y 3454   1.076   1.737   0.344
    1MUSC Al05z 3455   1.428   1.432   3.355
    1MUSC Al060 3456   1.252   1.737   1.346
    1MUSC Al061 3457   1.343   0.979   0.343
    1MUSC Al062 3458   1.337   1.284   0.344
    1MUSC Al063 3459   1.168   0.979   3.355
    1MUSC Al064 3460   0.991   1.284   1.346
    1MUSC Si0Bt 3461   1.259   1.747   3.621
    1MUSC Si0Bu 3462   0.901   1.422   1.080
    1MUSC Si0Bv 3463   1.252   1.747   0.077
    1MUSC Si0Bw 3464   1.427   1.422   0.610
    1MUSC Si0Bx 3465   0.999   1.591   0.077
    1MUSC Si0By 3466   1.160   1.577   0.610
    1MUSC Si0Bz 3467   1.512   1.591   3.620
    1MUSC Si0C0 3468   1.168   1.577   1.081
    1MUSC Si0C1 3469   1.519   1.294   3.621
    1MUSC Si0C2 3470   1.161   0.969   1.080
    1MUSC Si0C3 3471   0.992   1.294   0.077
    1MUSC Si0C4 3472   1.167   0.969   0.610
    1MUSC Si0C5 3473   1.259   1.139   0.077
    1MUSC Si0C6 3474   1.420   1.124   0.610
    1MUSC Si0C7 3475   1.252   1.139   3.620
    1MUSC Si0C8 3476   0.908   1.124   1.081
    1MUSC O00Zd 3477   1.021   1.580   0.236
    1MUSC O00Ze 3478   1.138   1.588   0.451
    1MUSC O00Zf 3479   1.490   1.580   3.461
    1MUSC O00Zg 3480   1.190   1.588   1.240
    1MUSC O00Zh 3481   1.277   1.400   3.453
    1MUSC O00Zi 3482   0.883   1.768   1.248
    1MUSC O00Zj 3483   1.234   1.400   0.245
    1MUSC O00Zk 3484   1.445   1.768   0.442
    1MUSC O00Zl 3485   1.137   1.649   3.672
    1MUSC O00Zm 3486   1.023   1.520   1.029
    1MUSC O00Zn 3487   1.374   1.649   0.025
    1MUSC O00Zo 3488   1.305   1.520   0.662
    1MUSC O00Zp 3489   1.115   1.686   0.006
    1MUSC O00Zq 3490   1.044   1.483   0.681
    1MUSC O00Zr 3491   1.396   1.686   3.692
    1MUSC O00Zs 3492   1.284   1.483   1.009
    1MUSC O00Zt 3493   1.015   1.442   0.006
    1MUSC O00Zu 3494   1.144   1.726   0.681
    1MUSC O00Zv 3495   1.496   1.442   3.691
    1MUSC O00Zw 3496   1.184   1.726   1.010
    1MUSC O00Zx 3497   1.277   1.758   3.461
    1MUSC O00Zy 3498   0.882   1.410   1.240
    1MUSC O00Zz 3499   1.234   1.758   0.236
    1MUSC O00a0 3500   1.445   1.410   0.451
    1MUSC O00a1 3501   1.281   1.127   0.236
    1MUSC O00a2 3502   1.398   1.136   0.451
    1MUSC O00a3 3503   1.230   1.127   3.461
    1MUSC O00a4 3504   0.930   1.136   1.240
    1MUSC O00a5 3505   1.537   0.948   3.453
    1MUSC O00a6 3506   1.143   1.316   1.248
    1MUSC O00a7 3507   0.974   0.948   0.245
    1MUSC O00a8 3508   1.185   1.316   0.442
    1MUSC O00a9 3509   1.397   1.196   3.672
    1MUSC O00aA 3510   1.283   1.067   1.029
    1MUSC O00aB 3511   1.114   1.196   0.025
    1MUSC O00aC 3512   1.045   1.067   0.662
    1MUSC O00aD 3513   1.375   1.233   0.006
    1MUSC O00aE 3514   1.304   1.030   0.681
    1MUSC O00aF 3515   1.136   1.233   3.692
    1MUSC O00aG 3516   1.024   1.030   1.009
    1MUSC O00aH 3517   1.275   0.990   0.006
    1MUSC O00aI 3518   1.404   1.274   0.681
    1MUSC O00aJ 3519   1.236   0.990   3.691
    1MUSC O00aK 3520   0.924   1.274   1.010
    1MUSC O00aL 3521   1.537   1.306   3.461
    1MUSC O00aM 3522   1.143   0.958   1.240
    1MUSC O00aN 3523   0.974   1.306   0.236
    1MUSC O00aO 3524   1.185   0.958   0.451
    1MUSC K002H 3525   1.072   1.448   1.849
    1MUSC K002I 3526   0.721   1.720   2.852
    1MUSC K002J 3527   0.812   0.996   1.849
    1MUSC K002K 3528   0.981   1.268   2.852
    1MUSC Al065 3529   0.900   1.432   2.350
    1MUSC Al066 3530   0.893   1.737   2.351
    1MUSC Al067 3531   1.245   1.432   1.348
    1MUSC Al068 3532   1.069   1.737   3.353
    1MUSC Al069 3533   1.160   0.979   2.350
    1MUSC Al06A 3534   1.154   1.284   2.351
    1MUSC Al06B 3535   0.985   0.979   1.348
    1MUSC Al06C 3536   0.808   1.284   3.353
    1MUSC Si0C9 3537   1.076   1.747   1.614
    1MUSC Si0CA 3538   0.718   1.422   3.087
    1MUSC Si0CB 3539   1.069   1.747   2.084
    1MUSC Si0CC 3540   1.244   1.422   2.617
    1MUSC Si0CD 3541   0.816   1.591   2.084
    1MUSC Si0CE 3542   0.977   1.577   2.617
    1MUSC Si0CF 3543   1.329   1.591   1.613
    1MUSC Si0CG 3544   0.985   1.577   3.088
    1MUSC Si0CH 3545   1.336   1.294   1.614
    1MUSC Si0CI 3546   0.978   0.969   3.087
    1MUSC Si0CJ 3547   0.809   1.294   2.084
    1MUSC Si0CK 3548   0.984   0.969   2.617
    1MUSC Si0CL 3549   1.076   1.139   2.084
    1MUSC Si0CM 3550   1.237   1.124   2.617
    1MUSC Si0CN 3551   1.069   1.139   1.613
    1MUSC Si0CO 3552   0.725   1.124   3.088
    1MUSC O00aP 3553   0.838   1.580   2.243
    1MUSC O00aQ 3554   0.955   1.588   2.458
    1MUSC O00aR 3555   1.307   1.580   1.454
    1MUSC O00aS 3556   1.007   1.588   3.247
    1MUSC O00aT 3557   1.094   1.400   1.446
    1MUSC O00aU 3558   0.700   1.768   3.255
    1MUSC O00aV 3559   1.051   1.400   2.252
    1MUSC O00aW 3560   1.262   1.768   2.449
    1MUSC O00aX 3561   0.954   1.649   1.665
    1MUSC O00aY 3562   0.840   1.520   3.036
    1MUSC O00aZ 3563   1.191   1.649   2.032
    1MUSC O00aa 3564   1.122   1.520   2.669
    1MUSC O00ab 3565   0.932   1.686   2.013
    1MUSC O00ac 3566   0.861   1.483   2.688
    1MUSC O00ad 3567   1.213   1.686   1.685
    1MUSC O00ae 3568   1.101   1.483   3.016
    1MUSC O00af 3569   0.832   1.442   2.013
    1MUSC O00ag 3570   0.961   1.726   2.688
    1MUSC O00ah 3571   1.313   1.442   1.684
    1MUSC O00ai 3572   1.001   1.726   3.017
    1MUSC O00aj 3573   1.094   1.758   1.454
    1MUSC O00ak 3574   0.699   1.410   3.247
    1MUSC O00al 3575   1.051   1.758   2.243
    1MUSC O00am 3576   1.262   1.410   2.458
    1MUSC O00an 3577   1.098   1.127   2.243
    1MUSC O00ao 3578   1.215   1.136   2.458
    1MUSC O00ap 3579   1.047   1.127   1.454
    1MUSC O00aq 3580   0.747   1.136   3.247
    1MUSC O00ar 3581   1.354   0.948   1.446
    1MUSC O00as 3582   0.960   1.316   3.255
    1MUSC O00at 3583   0.791   0.948   2.252
    1MUSC O00au 3584   1.002   1.316   2.449
    1MUSC O00av 3585   1.214   1.196   1.665
    1MUSC O00aw 3586   1.100   1.067   3.036
    1MUSC O00ax 3587   0.931   1.196   2.032
    1MUSC O00ay 3588   0.862   1.067   2.669
    1MUSC O00az 3589   1.192   1.233   2.013
    1MUSC O00b0 3590   1.121   1.030   2.688
    1MUSC O00b1 3591   0.953   1.233   1.685
    1MUSC O00b2 3592   0.841   1.030   3.016
    1MUSC O00b3 3593   1.092   0.990   2.013
    1MUSC O00b4 3594   1.221   1.274   2.688
    1MUSC O00b5 3595   1.053   0.990   1.684
    1MUSC O00b6 3596   0.741   1.274   3.017
    1MUSC O00b7 3597   1.354   1.306   1.454
    1MUSC O00b8 3598   0.960   0.958   3.247
    1MUSC O00b9 3599   0.791   1.306   2.243
    1MUSC O00bA 3600   1.002   0.958   2.458
    1MUSC K002L 3601   0.904   2.626   0.845
    1MUSC K002M 3602   1.164   2.173   0.845
    1MUSC Al06D 3603   1.083   2.337   0.343
    1MUSC Al06E 3604   1.076   2.642   0.344
    1MUSC Al06F 3605   1.428   2.337   3.355
    1MUSC Al06G 3606   1.252   2.642   1.346
    1MUSC Al06H 3607   1.343   1.884   0.343
    1MUSC Al06I 3608   1.337   2.189   0.344
    1MUSC Al06J 3609   1.168   1.884   3.355
    1MUSC Al06K 3610   0.991   2.189   1.346
    1MUSC Si0CP 3611   1.259   2.652   3.621
    1MUSC Si0CQ 3612   0.901   2.327   1.080
    1MUSC Si0CR 3613   1.252   2.652   0.077
    1MUSC Si0CS 3614   1.427   2.327   0.610
    1MUSC Si0CT 3615   0.999   2.497   0.077
    1MUSC Si0CU 3616   1.160   2.482   0.610
    1MUSC Si0CV 3617   1.512   2.497   3.620
    1MUSC Si0CW 3618   1.168   2.482   1.081
    1MUSC Si0CX 3619   1.519   2.199   3.621
    1MUSC Si0CY 3620   1.161   1.874   1.080
    1MUSC Si0CZ 3621   0.992   2.199   0.077
    1MUSC Si0Ca 3622   1.167   1.874   0.610
    1MUSC Si0Cb 3623   1.259   2.044   0.077
    1MUSC Si0Cc 3624   1.420   2.030   0.610
    1MUSC Si0Cd 3625   1.252   2.044   3.620
    1MUSC Si0Ce 3626   0.908   2.030   1.081
    1MUSC O00bB 3627   1.021   2.485   0.236
    1MUSC O00bC 3628   1.138   2.494   0.451
    1MUSC O00bD 3629   1.490   2.485   3.461
    1MUSC O00bE 3630   1.190   2.494   1.240
    1MUSC O00bF 3631   1.277   2.305   3.453
    1MUSC O00bG 3632   0.883   2.674   1.248
    1MUSC O00bH 3633   1.234   2.305   0.245
    1MUSC O00bI 3634   1.445   2.674   0.442
    1MUSC O00bJ 3635   1.137   2.554   3.672
    1MUSC O00bK 3636   1.023   2.425   1.029
    1MUSC O00bL 3637   1.374   2.554   0.025
    1MUSC O00bM 3638   1.305   2.425   0.662
    1MUSC O00bN 3639   1.115   2.591   0.006
    1MUSC O00bO 3640   1.044   2.388   0.681
    1MUSC O00bP 3641   1.396   2.591   3.692
    1MUSC O00bQ 3642   1.284   2.388   1.009
    1MUSC O00bR 3643   1.015   2.347   0.006
    1MUSC O00bS 3644   1.144   2.632   0.681
    1MUSC O00bT 3645   1.496   2.347   3.691
    1MUSC O00bU 3646   1.184   2.632   1.010
    1MUSC O00bV 3647   1.277   2.663   3.461
    1MUSC O00bW 3648   0.882   2.316   1.240
    1MUSC O00bX 3649   1.234   2.663   0.236
    1MUSC O00bY 3650   1.445   2.316   0.451
    1MUSC O00bZ 3651   1.281   2.033   0.236
    1MUSC O00ba 3652   1.398   2.041   0.451
    1MUSC O00bb 3653   1.230   2.033   3.461
    1MUSC O00bc 3654   0.930   2.041   1.240
    1MUSC O00bd 3655   1.537   1.853   3.453
    1MUSC O00be 3656   1.143   2.221   1.248
    1MUSC O00bf 3657   0.974   1.853   0.245
    1MUSC O00bg 3658   1.185   2.221   0.442
    1MUSC O00bh 3659   1.397   2.101   3.672
    1MUSC O00bi 3660   1.283   1.972   1.029
    1MUSC O00bj 3661   1.114   2.101   0.025
    1MUSC O00bk 3662   1.045   1.972   0.662
    1MUSC O00bl 3663   1.375   2.139   0.006
    1MUSC O00bm 3664   1.304   1.935   0.681
    1MUSC O00bn 3665   1.136   2.139   3.692
    1MUSC O00bo 3666   1.024   1.935   1.009
    1MUSC O00bp 3667   1.275   1.895   0.006
    1MUSC O00bq 3668   1.404   2.179   0.681
    1MUSC O00br 3669   1.236   1.895   3.691
    1MUSC O00bs 3670   0.924   2.179   1.010
    1MUSC O00bt 3671   1.537   2.211   3.461
    1MUSC O00bu 3672   1.143   1.863   1.240
    1MUSC O00bv 3673   0.974   2.211   0.236
    1MUSC O00bw 3674   1.185   1.863   0.451
    1MUSC K002N 3675   1.072   2.353   1.849
    1MUSC K002O 3676   0.721   2.626   2.852
    1MUSC K002P 3677   0.812   1.901   1.849
    1MUSC K002Q 3678   0.981   2.173   2.852
    1MUSC Al06L 3679   0.900   2.337   2.350
    1MUSC Al06M 3680   0.893   2.642   2.351
    1MUSC Al06N 3681   1.245   2.337   1.348
    1MUSC Al06O 3682   1.069   2.642   3.353
    1MUSC Al06P 3683   1.160   1.884   2.350
    1MUSC Al06Q 3684   1.154   2.189   2.351
    1MUSC Al06R 3685   0.985   1.884   1.348
    1MUSC Al06S 3686   0.808   2.189   3.353
    1MUSC Si0Cf 3687   1.076   2.652   1.614
    1MUSC Si0Cg 3688   0.718   2.327   3.087
    1MUSC Si0Ch 3689   1.069   2.652   2.084
    1MUSC Si0Ci 3690   1.244   2.327   2.617
    1MUSC Si0Cj 3691   0.816   2.497   2.084
    1MUSC Si0Ck 3692   0.977   2.482   2.617
    1MUSC Si0Cl 3693   1.329   2.497   1.613
    1MUSC Si0Cm 3694   0.985   2.482   3.088
    1MUSC Si0Cn 3695   1.336   2.199   1.614
    1MUSC Si0Co 3696   0.978   1.874   3.087
    1MUSC Si0Cp 3697   0.809   2.199   2.084
    1MUSC Si0Cq 3698   0.984   1.874   2.617
    1MUSC Si0Cr 3699   1.076   2.044   2.084
    1MUSC Si0Cs 3700   1.237   2.030   2.617
    1MUSC Si0Ct 3701   1.069   2.044   1.613
    1MUSC Si0Cu 3702   0.725   2.030   3.088
    1MUSC O00bx 3703   0.838   2.485   2.243
    1MUSC O00by 3704   0.955   2.494   2.458
    1MUSC O00bz 3705   1.307   2.485   1.454
    1MUSC O00c0 3706   1.007   2.494   3.247
    1MUSC O00c1 3707   1.094   2.305   1.446
    1MUSC O00c2 3708   0.700   2.674   3.255
    1MUSC O00c3 3709   1.051   2.305   2.252
    1MUSC O00c4 3710   1.262   2.674   2.449
    1MUSC O00c5 3711   0.954   2.554   1.665
    1MUSC O00c6 3712   0.840   2.425   3.036
    1MUSC O00c7 3713   1.191   2.554   2.032
    1MUSC O00c8 3714   1.122   2.425   2.669
    1MUSC O00c9 3715   0.932   2.591   2.013
    1MUSC O00cA 3716   0.861   2.388   2.688
    1MUSC O00cB 3717   1.213   2.591   1.685
    1MUSC O00cC 3718   1.101   2.388   3.016
    1MUSC O00cD 3719   0.832   2.347   2.013
    1MUSC O00cE 3720   0.961   2.632   2.688
    1MUSC O00cF 3721   1.313   2.347   1.684
    1MUSC O00cG 3722   1.001   2.632   3.017
    1MUSC O00cH 3723   1.094   2.663   1.454
    1MUSC O00cI 3724   0.699   2.316   3.247
    1MUSC O00cJ 3725   1.051   2.663   2.243
    1MUSC O00cK 3726   1.262   2.316   2.458
    1MUSC O00cL 3727   1.098   2.033   2.243
    1MUSC O00cM 3728   1.215   2.041   2.458
    1MUSC O00cN 3729   1.047   2.033   1.454
    1MUSC O00cO 3730   0.747   2.041   3.247
    1MUSC O00cP 3731   1.354   1.853   1.446
    1MUSC O00cQ 3732   0.960   2.221   3.255
    1MUSC O00cR 3733   0.791   1.853   2.252
    1MUSC O00cS 3734   1.002   2.221   2.449
    1MUSC O00cT 3735   1.214   2.101   1.665
    1MUSC O00cU 3736   1.100   1.972   3.036
    1MUSC O00cV 3737   0.931   2.101   2.032
    1MUSC O00cW 3738   0.862   1.972   2.669
    1MUSC O00cX 3739   1.192   2.139   2.013
    1MUSC O00cY 3740   1.121   1.935   2.688
    1MUSC O00cZ 3741   0.953   2.139   1.685
    1MUSC O00ca 3742   0.841   1.935   3.016
    1MUSC O00cb 3743   1.092   1.895   2.013
    1MUSC O00cc 3744   1.221   2.179   2.688
    1MUSC O00cd 3745   1.053   1.895   1.684
    1MUSC O00ce 3746   0.741   2.179   3.017
    1MUSC O00cf 3747   1.354   2.211   1.454
    1MUSC O00cg 3748   0.960   1.863   3.247
    1MUSC O00ch 3749   0.791   2.211   2.243
    1MUSC O00ci 3750   1.002   1.863   2.458
    1MUSC K002R 3751   0.904   3.531   0.845
    1MUSC K002S 3752   1.164   3.078   0.845
    1MUSC Al06T 3753   1.083   3.242   0.343
    1MUSC Al06U 3754   1.076   3.547   0.344
    1MUSC Al06V 3755   1.428   3.242   3.355
    1MUSC Al06W 3756   1.252   3.547   1.346
    1MUSC Al06X 3757   1.343   2.790   0.343
    1MUSC Al06Y 3758   1.337   3.095   0.344
    1MUSC Al06Z 3759   1.168   2.790   3.355
    1MUSC Al06a 3760   0.991   3.095   1.346
    1MUSC Si0Cv 3761   1.259   3.557   3.621
    1MUSC Si0Cw 3762   0.901   3.232   1.080
    1MUSC Si0Cx 3763   1.252   3.557   0.077
    1MUSC Si0Cy 3764   1.427   3.232   0.610
    1MUSC Si0Cz 3765   0.999   3.402   0.077
    1MUSC Si0D0 3766   1.160   3.388   0.610
    1MUSC Si0D1 3767   1.512   3.402   3.620
    1MUSC Si0D2 3768   1.168   3.388   1.081
    1MUSC Si0D3 3769   1.519   3.105   3.621
    1MUSC Si0D4 3770   1.161   2.780   1.080
    1MUSC Si0D5 3771   0.992   3.105   0.077
    1MUSC Si0D6 3772   1.167   2.780   0.610
    1MUSC Si0D7 3773   1.259   2.949   0.077
    1MUSC Si0D8 3774   1.420   2.935   0.610
    1MUSC Si0D9 3775   1.252   2.949   3.620
    1MUSC Si0DA 3776   0.908   2.935   1.081
    1MUSC O00cj 3777   1.021   3.391   0.236
    1MUSC O00ck 3778   1.138   3.399   0.451
    1MUSC O00cl 3779   1.490   3.391   3.461
    1MUSC O00cm 3780   1.190   3.399   1.240
    1MUSC O00cn 3781   1.277   3.211   3.453
    1MUSC O00co 3782   0.883   3.579   1.248
    1MUSC O00cp 3783   1.234   3.211   0.245
    1MUSC O00cq 3784   1.445   3.579   0.442
    1MUSC O00cr 3785   1.137   3.459   3.672
    1MUSC O00cs 3786   1.023   3.330   1.029
    1MUSC O00ct 3787   1.374   3.459   0.025
    1MUSC O00cu 3788   1.305   3.330   0.662
    1MUSC O00cv 3789   1.115   3.496   0.006
    1MUSC O00cw 3790   1.044   3.293   0.681
    1MUSC O00cx 3791   1.396   3.496   3.692
    1MUSC O00cy 3792   1.284   3.293   1.009
    1MUSC O00cz 3793   1.015   3.253   0.006
    1MUSC O00d0 3794   1.144   3.537   0.681
    1MUSC O00d1 3795   1.496   3.253   3.691
    1MUSC O00d2 3796   1.184   3.537   1.010
    1MUSC O00d3 3797   1.277   3.569   3.461
    1MUSC O00d4 3798   0.882   3.221   1.240
    1MUSC O00d5 3799   1.234   3.569   0.236
    1MUSC O00d6 3800   1.445   3.221   0.451
    1MUSC O00d7 3801   1.281   2.938   0.236
    1MUSC O00d8 3802   1.398   2.946   0.451
    1MUSC O00d9 3803   1.230   2.938   3.461
    1MUSC O00dA 3804   0.930   2.946   1.240
    1MUSC O00dB 3805   1.537   2.758   3.453
    1MUSC O00dC 3806   1.143   3.126   1.248
    1MUSC O00dD 3807   0.974   2.758   0.245
    1MUSC O00dE 3808   1.185   3.126   0.442
    1MUSC O00dF 3809   1.397   3.007   3.672
    1MUSC O00dG 3810   1.283   2.877   1.029
    1MUSC O00dH 3811   1.114   3.007   0.025
    1MUSC O00dI 3812   1.045   2.877   0.662
    1MUSC O00dJ 3813   1.375   3.044   0.006
    1MUSC O00dK 3814   1.304   2.840   0.681
    1MUSC O00dL 3815   1.136   3.044   3.692
    1MUSC O00dM 3816   1.024   2.840   1.009
    1MUSC O00dN 3817   1.275   2.800   0.006
    1MUSC O00dO 3818   1.404   3.084   0.681
    1MUSC O00dP 3819   1.236   2.800   3.691
    1MUSC O00dQ 3820   0.924   3.084   1.010
    1MUSC O00dR 3821   1.537   3.116   3.461
    1MUSC O00dS 3822   1.143   2.768   1.240
    1MUSC O00dT 3823   0.974   3.116   0.236
    1MUSC O00dU 3824   1.185   2.768   0.451
    1MUSC K002T 3825   1.072   3.259   1.849
    1MUSC K002U 3826   0.721   3.531   2.852
    1MUSC K002V 3827   0.812   2.806   1.849
    1MUSC K002W 3828   0.981   3.078   2.852
    1MUSC Al06b 3829   0.900   3.242   2.350
    1MUSC Al06c 3830   0.893   3.547   2.351
    1MUSC Al06d 3831   1.245   3.242   1.348
    1MUSC Al06e 3832   1.069   3.547   3.353
    1MUSC Al06f 3833   1.160   2.790   2.350
    1MUSC Al06g 3834   1.154   3.095   2.351
    1MUSC Al06h 3835   0.985   2.790   1.348
    1MUSC Al06i 3836   0.808   3.095   3.353
    1MUSC Si0DB 3837   1.076   3.557   1.614
    1MUSC Si0DC 3838   0.718   3.232   3.087
    1MUSC Si0DD 3839   1.069   3.557   2.084
    1MUSC Si0DE 3840   1.244   3.232   2.617
    1MUSC Si0DF 3841   0.816   3.402   2.084
    1MUSC Si0DG 3842   0.977   3.388   2.617
    1MUSC Si0DH 3843   1.329   3.402   1.613
    1MUSC Si0DI 3844   0.985   3.388   3.088
    1MUSC Si0DJ 3845   1.336   3.105   1.614
    1MUSC Si0DK 3846   0.978   2.780   3.087
    1MUSC Si0DL 3847   0.809   3.105   2.084
    1MUSC Si0DM 3848   0.984   2.780   2.617
    1MUSC Si0DN 3849   1.076   2.949   2.084
    1MUSC Si0DO 3850   1.237   2.935   2.617
    1MUSC Si0DP 3851   1.069   2.949   1.613
    1MUSC Si0DQ 3852   0.725   2.935   3.088
    1MUSC O00dV 3853   0.838   3.391   2.243
    1MUSC O00dW 3854   0.955   3.399   2.458
    1MUSC O00dX 3855   1.307   3.391   1.454
    1MUSC O00dY 3856   1.007   3.399   3.247
    1MUSC O00dZ 3857   1.094   3.211   1.446
    1MUSC O00da 3858   0.700   3.579   3.255
    1MUSC O00db 3859   1.051   3.211   2.252
    1MUSC O00dc 3860   1.262   3.579   2.449
    1MUSC O00dd 3861   0.954   3.459   1.665
    1MUSC O00de 3862   0.840   3.330   3.036
    1MUSC O00df 3863   1.191   3.459   2.032
    1MUSC O00dg 3864   1.122   3.330   2.669
    1MUSC O00dh 3865   0.932   3.496   2.013
    1MUSC O00di 3866   0.861   3.293   2.688
    1MUSC O00dj 3867   1.213   3.496   1.685
    1MUSC O00dk 3868   1.101   3.293   3.016
    1MUSC O00dl 3869   0.832   3.253   2.013
    1MUSC O00dm 3870   0.961   3.537   2.688
    1MUSC O00dn 3871   1.313   3.253   1.684
    1MUSC O00do 3872   1.001   3.537   3.017
    1MUSC O00dp 3873   1.094   3.569   1.454
    1MUSC O00dq 3874   0.699   3.221   3.247
    1MUSC O00dr 3875   1.051   3.569   2.243
    1MUSC O00ds 3876   1.262   3.221   2.458
    1MUSC O00dt 3877   1.098   2.938   2.243
    1MUSC O00du 3878   1.215   2.946   2.458
    1MUSC O00dv 3879   1.047   2.938   1.454
    1MUSC O00dw 3880   0.747   2.946   3.247
    1MUSC O00dx 3881   1.354   2.758   1.446
    1MUSC O00dy 3882   0.960   3.126   3.255
    1MUSC O00dz 3883   0.791   2.758   2.252
    1MUSC O00e0 3884   1.002   3.126   2.449
    1MUSC O00e1 3885   1.214   3.007   1.665
    1MUSC O00e2 3886   1.100   2.877   3.036
    1MUSC O00e3 3887   0.931   3.007   2.032
    1MUSC O00e4 3888   0.862   2.877   2.669
    1MUSC O00e5 3889   1.192   3.044   2.013
    1MUSC O00e6 3890   1.121   2.840   2.688
    1MUSC O00e7 3891   0.953   3.044   1.685
    1MUSC O00e8 3892   0.841   2.840   3.016
    1MUSC O00e9 3893   1.092   2.800   2.013
    1MUSC O00eA 3894   1.221   3.084   2.688
    1MUSC O00eB 3895   1.053   2.800   1.684
    1MUSC O00eC 3896   0.741   3.084   3.017
    1MUSC O00eD 3897   1.354   3.116   1.454
    1MUSC O00eE 3898   0.960   2.768   3.247
    1MUSC O00eF 3899   0.791   3.116   2.243
    1MUSC O00eG 3900   1.002   2.768   2.458
    1MUSC K002X 3901   0.904   4.436   0.845
    1MUSC K002Y 3902   1.164   3.983   0.845
    1MUSC Al06j 3903   1.083   4.147   0.343
    1MUSC Al06k 3904   1.076   4.453   0.344
    1MUSC Al06l 3905   1.428   4.147   3.355
    1MUSC Al06m 3906   1.252   4.453   1.346
    1MUSC Al06n 3907   1.343   3.695   0.343
    1MUSC Al06o 3908   1.337   4.000   0.344
    1MUSC Al06p 3909   1.168   3.695   3.355
    1MUSC Al06q 3910   0.991   4.000   1.346
    1MUSC Si0DR 3911   1.259   4.462   3.621
    1MUSC Si0DS 3912   0.901   4.138   1.080
    1MUSC Si0DT 3913   1.252   4.462   0.077
    1MUSC Si0DU 3914   1.427   4.138   0.610
    1MUSC Si0DV 3915   0.999   4.307   0.077
    1MUSC Si0DW 3916   1.160   4.293   0.610
    1MUSC Si0DX 3917   1.512   4.307   3.620
    1MUSC Si0DY 3918   1.168   4.293   1.081
    1MUSC Si0DZ 3919   1.519   4.010   3.621
    1MUSC Si0Da 3920   1.161   3.685   1.080
    1MUSC Si0Db 3921   0.992   4.010   0.077
    1MUSC Si0Dc 3922   1.167   3.685   0.610
    1MUSC Si0Dd 3923   1.259   3.855   0.077
    1MUSC Si0De 3924   1.420   3.840   0.610
    1MUSC Si0Df 3925   1.252   3.855   3.620
    1MUSC Si0Dg 3926   0.908   3.840   1.081
    1MUSC O00eH 3927   1.021   4.296   0.236
    1MUSC O00eI 3928   1.138   4.304   0.451
    1MUSC O00eJ 3929   1.490   4.296   3.461
    1MUSC O00eK 3930   1.190   4.304   1.240
    1MUSC O00eL 3931   1.277   4.116   3.453
    1MUSC O00eM 3932   0.883   4.484   1.248
    1MUSC O00eN 3933   1.234   4.116   0.245
    1MUSC O00eO 3934   1.445   4.484   0.442
    1MUSC O00eP 3935   1.137   4.365   3.672
    1MUSC O00eQ 3936   1.023   4.235   1.029
    1MUSC O00eR 3937   1.374   4.365   0.025
    1MUSC O00eS 3938   1.305   4.235   0.662
    1MUSC O00eT 3939   1.115   4.402   0.006
    1MUSC O00eU 3940   1.044   4.198   0.681
    1MUSC O00eV 3941   1.396   4.402   3.692
    1MUSC O00eW 3942   1.284   4.198   1.009
    1MUSC O00eX 3943   1.015   4.158   0.006
    1MUSC O00eY 3944   1.144   4.442   0.681
    1MUSC O00eZ 3945   1.496   4.158   3.691
    1MUSC O00ea 3946   1.184   4.442   1.010
    1MUSC O00eb 3947   1.277   4.474   3.461
    1MUSC O00ec 3948   0.882   4.126   1.240
    1MUSC O00ed 3949   1.234   4.474   0.236
    1MUSC O00ee 3950   1.445   4.126   0.451
    1MUSC O00ef 3951   1.281   3.843   0.236
    1MUSC O00eg 3952   1.398   3.852   0.451
    1MUSC O00eh 3953   1.230   3.843   3.461
    1MUSC O00ei 3954   0.930   3.852   1.240
    1MUSC O00ej 3955   1.537   3.663   3.453
    1MUSC O00ek 3956   1.143   4.031   1.248
    1MUSC O00el 3957   0.974   3.663   0.245
    1MUSC O00em 3958   1.185   4.031   0.442
    1MUSC O00en 3959   1.397   3.912   3.672
    1MUSC O00eo 3960   1.283   3.783   1.029
    1MUSC O00ep 3961   1.114   3.912   0.025
    1MUSC O00eq 3962   1.045   3.783   0.662
    1MUSC O00er 3963   1.375   3.949   0.006
    1MUSC O00es 3964   1.304   3.746   0.681
    1MUSC O00et 3965   1.136   3.949   3.692
    1MUSC O00eu 3966   1.024   3.746   1.009
    1MUSC O00ev 3967   1.275   3.705   0.006
    1MUSC O00ew 3968   1.404   3.989   0.681
    1MUSC O00ex 3969   1.236   3.705   3.691
    1MUSC O00ey 3970   0.924   3.989   1.010
    1MUSC O00ez 3971   1.537   4.021   3.461
    1MUSC O00f0 3972   1.143   3.673   1.240
    1MUSC O00f1 3973   0.974   4.021   0.236
    1MUSC O00f2 3974   1.185   3.673   0.451
    1MUSC K002Z 3975   1.072   4.164   1.849
    1MUSC K002a 3976   0.721   4.436   2.852
    1MUSC K002b 3977   0.812   3.711   1.849
    1MUSC K002c 3978   0.981   3.983   2.852
    1MUSC Al06r 3979   0.900   4.147   2.350
    1MUSC Al06s 3980   0.893   4.453   2.351
    1MUSC Al06t 3981   1.245   4.147   1.348
    1MUSC Al06u 3982   1.069   4.453   3.353
    1MUSC Al06v 3983   1.160   3.695   2.350
    1MUSC Al06w 3984   1.154   4.000   2.351
    1MUSC Al06x 3985   0.985   3.695   1.348
    1MUSC Al06y 3986   0.808   4.000   3.353
    1MUSC Si0Dh 3987   1.076   4.462   1.614
    1MUSC Si0Di 3988   0.718   4.138   3.087
    1MUSC Si0Dj 3989   1.069   4.462   2.084
    1MUSC Si0Dk 3990   1.244   4.138   2.617
    1MUSC Si0Dl 3991   0.816   4.307   2.084
    1MUSC Si0Dm 3992   0.977   4.293   2.617
    1MUSC Si0Dn 3993   1.329   4.307   1.613
    1MUSC Si0Do 3994   0.985   4.293   3.088
    1MUSC Si0Dp 3995   1.336   4.010   1.614
    1MUSC Si0Dq 3996   0.978   3.685   3.087
    1MUSC Si0Dr 3997   0.809   4.010   2.084
    1MUSC Si0Ds 3998   0.984   3.685   2.617
    1MUSC Si0Dt 3999   1.076   3.855   2.084
    1MUSC Si0Du 4000   1.237   3.840   2.617
    1MUSC Si0Dv 4001   1.069   3.855   1.613
    1MUSC Si0Dw 4002   0.725   3.840   3.088
    1MUSC O00f3 4003   0.838   4.296   2.243
    1MUSC O00f4 4004   0.955   4.304   2.458
    1MUSC O00f5 4005   1.307   4.296   1.454
    1MUSC O00f6 4006   1.007   4.304   3.247
    1MUSC O00f7 4007   1.094   4.116   1.446
    1MUSC O00f8 4008   0.700   4.484   3.255
    1MUSC O00f9 4009   1.051   4.116   2.252
    1MUSC O00fA 4010   1.262   4.484   2.449
    1MUSC O00fB 4011   0.954   4.365   1.665
    1MUSC O00fC 4012   0.840   4.235   3.036
    1MUSC O00fD 4013   1.191   4.365   2.032
    1MUSC O00fE 4014   1.122   4.235   2.669
    1MUSC O00fF 4015   0.932   4.402   2.013
    1MUSC O00fG 4016   0.861   4.198   2.688
    1MUSC O00fH 4017   1.213   4.402   1.685
    1MUSC O00fI 4018   1.101   4.198   3.016
    1MUSC O00fJ 4019   0.832   4.158   2.013
    1MUSC O00fK 4020   0.961   4.442   2.688
    1MUSC O00fL 4021   1.313   4.158   1.684
    1MUSC O00fM 4022   1.001   4.442   3.017
    1MUSC O00fN 4023   1.094   4.474   1.454
    1MUSC O00fO 4024   0.699   4.126   3.247
    1MUSC O00fP 4025   1.051   4.474   2.243
    1MUSC O00fQ 4026   1.262   4.126   2.458
    1MUSC O00fR 4027   1.098   3.843   2.243
    1MUSC O00fS 4028   1.215   3.852   2.458
    1MUSC O00fT 4029   1.047   3.843   1.454
    1MUSC O00fU 4030   0.747   3.852   3.247
    1MUSC O00fV 4031   1.354   3.663   1.446
    1MUSC O00fW 4032   0.960   4.031   3.255
    1MUSC O00fX 4033   0.791   3.663   2.252
    1MUSC O00fY 4034   1.002   4.031   2.449
    1MUSC O00fZ 4035   1.214   3.912   1.665
    1MUSC O00fa 4036   1.100   3.783   3.036
    1MUSC O00fb 4037   0.931   3.912   2.032
    1MUSC O00fc 4038   0.862   3.783   2.669
    1MUSC O00fd 4039   1.192   3.949   2.013
    1MUSC O00fe 4040   1.121   3.746   2.688
    1MUSC O00ff 4041   0.953   3.949   1.685
    1MUSC O00fg 4042   0.841   3.746   3.016
    1MUSC O00fh 4043   1.092   3.705   2.013
    1MUSC O00fi 4044   1.221   3.989   2.688
    1MUSC O00fj 4045   1.053   3.705   1.684
    1MUSC O00fk 4046   0.741   3.989   3.017
    1MUSC O00fl 4047   1.354   4.021   1.454
    1MUSC O00fm 4048   0.960   3.673   3.247
    1MUSC O00fn 4049   0.791   4.021   2.243
    1MUSC O00fo 4050   1.002   3.673   2.458
    1MUSC K002d 4051   0.904   5.341   0.845
    1MUSC K002e 4052   1.164   4.889   0.845
    1MUSC Al06z 4053   1.083   5.053   0.343
    1MUSC Al070 4054   1.076   5.358   0.344
    1MUSC Al071 4055   1.428   5.053   3.355
    1MUSC Al072 4056   1.252   5.358   1.346
    1MUSC Al073 4057   1.343   4.600   0.343
    1MUSC Al074 4058   1.337   4.905   0.344
    1MUSC Al075 4059   1.168   4.600   3.355
    1MUSC Al076 4060   0.991   4.905   1.346
    1MUSC Si0Dx 4061   1.259   5.368   3.621
    1MUSC Si0Dy 4062   0.901   5.043   1.080
    1MUSC Si0Dz 4063   1.252   5.368   0.077
    1MUSC Si0E0 4064   1.427   5.043   0.610
    1MUSC Si0E1 4065   0.999   5.212   0.077
    1MUSC Si0E2 4066   1.160   5.198   0.610
    1MUSC Si0E3 4067   1.512   5.212   3.620
    1MUSC Si0E4 4068   1.168   5.198   1.081
    1MUSC Si0E5 4069   1.519   4.915   3.621
    1MUSC Si0E6 4070   1.161   4.590   1.080
    1MUSC Si0E7 4071   0.992   4.915   0.077
    1MUSC Si0E8 4072   1.167   4.590   0.610
    1MUSC Si0E9 4073   1.259   4.760   0.077
    1MUSC Si0EA 4074   1.420   4.746   0.610
    1MUSC Si0EB 4075   1.252   4.760   3.620
    1MUSC Si0EC 4076   0.908   4.746   1.081
    1MUSC O00fp 4077   1.021   5.201   0.236
    1MUSC O00fq 4078   1.138   5.209   0.451
    1MUSC O00fr 4079   1.490   5.201   3.461
    1MUSC O00fs 4080   1.190   5.209   1.240
    1MUSC O00ft 4081   1.277   5.021   3.453
    1MUSC O00fu 4082   0.883   5.389   1.248
    1MUSC O00fv 4083   1.234   5.021   0.245
    1MUSC O00fw 4084   1.445   5.389   0.442
    1MUSC O00fx 4085   1.137   5.270   3.672
    1MUSC O00fy 4086   1.023   5.141   1.029
    1MUSC O00fz 4087   1.374   5.270   0.025
    1MUSC O00g0 4088   1.305   5.141   0.662
    1MUSC O00g1 4089   1.115   5.307   0.006
    1MUSC O00g2 4090   1.044   5.104   0.681
    1MUSC O00g3 4091   1.396   5.307   3.692
    1MUSC O00g4 4092   1.284   5.104   1.009
    1MUSC O00g5 4093   1.015   5.063   0.006
    1MUSC O00g6 4094   1.144   5.347   0.681
    1MUSC O00g7 4095   1.496   5.063   3.691
    1MUSC O00g8 4096   1.184   5.347   1.010
    1MUSC O00g9 4097   1.277   5.379   3.461
    1MUSC O00gA 4098   0.882   5.031   1.240
    1MUSC O00gB 4099   1.234   5.379   0.236
    1MUSC O00gC 4100   1.445   5.031   0.451
    1MUSC O00gD 4101   1.281   4.749   0.236
    1MUSC O00gE 4102   1.398   4.757   0.451
    1MUSC O00gF 4103   1.230   4.749   3.461
    1MUSC O00gG 4104   0.930   4.757   1.240
    1MUSC O00gH 4105   1.537   4.569   3.453
    1MUSC O00gI 4106   1.143   4.937   1.248
    1MUSC O00gJ 4107   0.974   4.569   0.245
    1MUSC O00gK 4108   1.185   4.937   0.442
    1MUSC O00gL 4109   1.397   4.817   3.672
    1MUSC O00gM 4110   1.283   4.688   1.029
    1MUSC O00gN 4111   1.114   4.817   0.025
    1MUSC O00gO 4112   1.045   4.688   0.662
    1MUSC O00gP 4113   1.375   4.854   0.006
    1MUSC O00gQ 4114   1.304   4.651   0.681
    1MUSC O00gR 4115   1.136   4.854   3.692
    1MUSC O00gS 4116   1.024   4.651   1.009
    1MUSC O00gT 4117   1.275   4.611   0.006
    1MUSC O00gU 4118   1.404   4.895   0.681
    1MUSC O00gV 4119   1.236   4.611   3.691
    1MUSC O00gW 4120   0.924   4.895   1.010
    1MUSC O00gX 4121   1.537   4.927   3.461
    1MUSC O00gY 4122   1.143   4.579   1.240
    1MUSC O00gZ 4123   0.974   4.927   0.236
    1MUSC O00ga 4124   1.185   4.579   0.451
    1MUSC K002f 4125   1.072   5.069   1.849
    1MUSC K002g 4126   0.721   5.341   2.852
    1MUSC K002h 4127   0.812   4.617   1.849
    1MUSC K002i 4128   0.981   4.889   2.852
    1MUSC Al077 4129   0.900   5.053   2.350
    1MUSC Al078 4130   0.893   5.358   2.351
    1MUSC Al079 4131   1.245   5.053   1.348
    1MUSC Al07A 4132   1.069   5.358   3.353
    1MUSC Al07B 4133   1.160   4.600   2.350
    1MUSC Al07C 4134   1.154   4.905   2.351
    1MUSC Al07D 4135   0.985   4.600   1.348
    1MUSC Al07E 4136   0.808   4.905   3.353
    1MUSC Si0ED 4137   1.076   5.368   1.614
    1MUSC Si0EE 4138   0.718   5.043   3.087
    1MUSC Si0EF 4139   1.069   5.368   2.084
    1MUSC Si0EG 4140   1.244   5.043   2.617
    1MUSC Si0EH 4141   0.816   5.212   2.084
    1MUSC Si0EI 4142   0.977   5.198   2.617
    1MUSC Si0EJ 4143   1.329   5.212   1.613
    1MUSC Si0EK 4144   0.985   5.198   3.088
    1MUSC Si0EL 4145   1.336   4.915   1.614
    1MUSC Si0EM 4146   0.978   4.590   3.087
    1MUSC Si0EN 4147   0.809   4.915   2.084
    1MUSC Si0EO 4148   0.984   4.590   2.617
    1MUSC Si0EP 4149   1.076   4.760   2.084
    1MUSC Si0EQ 4150   1.237   4.746   2.617
    1MUSC Si0ER 4151   1.069   4.760   1.613
    1MUSC Si0ES 4152   0.725   4.746   3.088
    1MUSC O00gb 4153   0.838   5.201   2.243
    1MUSC O00gc 4154   0.955   5.209   2.458
    1MUSC O00gd 4155   1.307   5.201   1.454
    1MUSC O00ge 4156   1.007   5.209   3.247
    1MUSC O00gf 4157   1.094   5.021   1.446
    1MUSC O00gg 4158   0.700   5.389   3.255
    1MUSC O00gh 4159   1.051   5.021   2.252
    1MUSC O00gi 4160   1.262   5.389   2.449
    1MUSC O00gj 4161   0.954   5.270   1.665
    1MUSC O00gk 4162   0.840   5.141   3.036
    1MUSC O00gl 4163   1.191   5.270   2.032
    1MUSC O00gm 4164   1.122   5.141   2.669
    1MUSC O00gn 4165   0.932   5.307   2.013
    1MUSC O00go 4166   0.861   5.104   2.688
    1MUSC O00gp 4167   1.213   5.307   1.685
    1MUSC O00gq 4168   1.101   5.104   3.016
    1MUSC O00gr 4169   0.832   5.063   2.013
    1MUSC O00gs 4170   0.961   5.347   2.688
    1MUSC O00gt 4171   1.313   5.063   1.684
    1MUSC O00gu 4172   1.001   5.347   3.017
    1MUSC O00gv 4173   1.094   5.379   1.454
    1MUSC O00gw 4174   0.699   5.031   3.247
    1MUSC O00gx 4175   1.051   5.379   2.243
    1MUSC O00gy 4176   1.262   5.031   2.458
    1MUSC O00gz 4177   1.098   4.749   2.243
    1MUSC O00h0 4178   1.215   4.757   2.458
    1MUSC O00h1 4179   1.047   4.749   1.454
    1MUSC O00h2 4180   0.747   4.757   3.247
    1MUSC O00h3 4181   1.354   4.569   1.446
    1MUSC O00h4 4182   0.960   4.937   3.255
    1MUSC O00h5 4183   0.791   4.569   2.252
    1MUSC O00h6 4184   1.002   4.937   2.449
    1MUSC O00h7 4185   1.214   4.817   1.665
    1MUSC O00h8 4186   1.100   4.688   3.036
    1MUSC O00h9 4187   0.931   4.817   2.032
    1MUSC O00hA 4188   0.862   4.688   2.669
    1MUSC O00hB 4189   1.192   4.854   2.013
    1MUSC O00hC 4190   1.121   4.651   2.688
    1MUSC O00hD 4191   0.953   4.854   1.685
    1MUSC O00hE 4192   0.841   4.651   3.016
    1MUSC O00hF 4193   1.092   4.611   2.013
    1MUSC O00hG 4194   1.221   4.895   2.688
    1MUSC O00hH 4195   1.053   4.611   1.684
    1MUSC O00hI 4196   0.741   4.895   3.017
    1MUSC O00hJ 4197   1.354   4.927   1.454
    1MUSC O00hK 4198   0.960   4.579   3.247
    1MUSC O00hL 4199   0.791   4.927   2.243
    1MUSC O00hM 4200   1.002   4.579   2.458
    1MUSC K002j 4201   0.904   6.247   0.845
    1MUSC K002k 4202   1.164   5.794   0.845
    1MUSC Al07F 4203   1.083   5.958   0.343
    1MUSC Al07G 4204   1.076   6.263   0.344
    1MUSC Al07H 4205   1.428   5.958   3.355
    1MUSC Al07I 4206   1.252   6.263   1.346
    1MUSC Al07J 4207   1.343   5.505   0.343
    1MUSC Al07K 4208   1.337   5.810   0.344
    1MUSC Al07L 4209   1.168   5.505   3.355
    1MUSC Al07M 4210   0.991   5.810   1.346
    1MUSC Si0ET 4211   1.259   6.273   3.621
    1MUSC Si0EU 4212   0.901   5.948   1.080
    1MUSC Si0EV 4213   1.252   6.273   0.077
    1MUSC Si0EW 4214   1.427   5.948   0.610
    1MUSC Si0EX 4215   0.999   6.118   0.077
    1MUSC Si0EY 4216   1.160   6.103   0.610
    1MUSC Si0EZ 4217   1.512   6.118   3.620
    1MUSC Si0Ea 4218   1.168   6.103   1.081
    1MUSC Si0Eb 4219   1.519   5.820   3.621
    1MUSC Si0Ec 4220   1.161   5.495   1.080
    1MUSC Si0Ed 4221   0.992   5.820   0.077
    1MUSC Si0Ee 4222   1.167   5.495   0.610
    1MUSC Si0Ef 4223   1.259   5.665   0.077
    1MUSC Si0Eg 4224   1.420   5.651   0.610
    1MUSC Si0Eh 4225   1.252   5.665   3.620
    1MUSC Si0Ei 4226   0.908   5.651   1.081
    1MUSC O00hN 4227   1.021   6.106   0.236
    1MUSC O00hO 4228   1.138   6.115   0.451
    1MUSC O00hP 4229   1.490   6.106   3.461
    1MUSC O00hQ 4230   1.190   6.115   1.240
    1MUSC O00hR 4231   1.277   5.927   3.453
    1MUSC O00hS 4232   0.883   6.295   1.248
    1MUSC O00hT 4233   1.234   5.927   0.245
    1MUSC O00hU 4234   1.445   6.295   0.442
    1MUSC O00hV 4235   1.137   6.175   3.672
    1MUSC O00hW 4236   1.023   6.046   1.029
    1MUSC O00hX 4237   1.374   6.175   0.025
    1MUSC O00hY 4238   1.305   6.046   0.662
    1MUSC O00hZ 4239   1.115   6.212   0.006
    1MUSC O00ha 4240   1.044   6.009   0.681
    1MUSC O00hb 4241   1.396   6.212   3.692
    1MUSC O00hc 4242   1.284   6.009   1.009
    1MUSC O00hd 4243   1.015   5.969   0.006
    1MUSC O00he 4244   1.144   6.253   0.681
    1MUSC O00hf 4245   1.496   5.969   3.691
    1MUSC O00hg 4246   1.184   6.253   1.010
    1MUSC O00hh 4247   1.277   6.285   3.461
    1MUSC O00hi 4248   0.882   5.937   1.240
    1MUSC O00hj 4249   1.234   6.285   0.236
    1MUSC O00hk 4250   1.445   5.937   0.451
    1MUSC O00hl 4251   1.281   5.654   0.236
    1MUSC O00hm 4252   1.398   5.662   0.451
    1MUSC O00hn 4253   1.230   5.654   3.461
    1MUSC O00ho 4254   0.930   5.662   1.240
    1MUSC O00hp 4255   1.537   5.474   3.453
    1MUSC O00hq 4256   1.143   5.842   1.248
    1MUSC O00hr 4257   0.974   5.474   0.245
    1MUSC O00hs 4258   1.185   5.842   0.442
    1MUSC O00ht 4259   1.397   5.723   3.672
    1MUSC O00hu 4260   1.283   5.593   1.029
    1MUSC O00hv 4261   1.114   5.723   0.025
    1MUSC O00hw 4262   1.045   5.593   0.662
    1MUSC O00hx 4263   1.375   5.760   0.006
    1MUSC O00hy 4264   1.304   5.556   0.681
    1MUSC O00hz 4265   1.136   5.760   3.692
    1MUSC O00i0 4266   1.024   5.556   1.009
    1MUSC O00i1 4267   1.275   5.516   0.006
    1MUSC O00i2 4268   1.404   5.800   0.681
    1MUSC O00i3 4269   1.236   5.516   3.691
    1MUSC O00i4 4270   0.924   5.800   1.010
    1MUSC O00i5 4271   1.537   5.832   3.461
    1MUSC O00i6 4272   1.143   5.484   1.240
    1MUSC O00i7 4273   0.974   5.832   0.236
    1MUSC O00i8 4274   1.185   5.484   0.451
    1MUSC K002l 4275   1.072   5.975   1.849
    1MUSC K002m 4276   0.721   6.247   2.852
    1MUSC K002n 4277   0.812   5.522   1.849
    1MUSC K002o 4278   0.981   5.794   2.852
    1MUSC Al07N 4279   0.900   5.958   2.350
    1MUSC Al07O 4280   0.893   6.263   2.351
    1MUSC Al07P 4281   1.245   5.958   1.348
    1MUSC Al07Q 4282   1.069   6.263   3.353
    1MUSC Al07R 4283   1.160   5.505   2.350
    1MUSC Al07S 4284   1.154   5.810   2.351
    1MUSC Al07T 4285   0.985   5.505   1.348
    1MUSC Al07U 4286   0.808   5.810   3.353
    1MUSC Si0Ej 4287   1.076   6.273   1.614
    1MUSC Si0Ek 4288   0.718   5.948   3.087
    1MUSC Si0El 4289   1.069   6.273   2.084
    1MUSC Si0Em 4290   1.244   5.948   2.617
    1MUSC Si0En 4291   0.816   6.118   2.084
    1MUSC Si0Eo 4292   0.977   6.103   2.617
    1MUSC Si0Ep 4293   1.329   6.118   1.613
    1MUSC Si0Eq 4294   0.985   6.103   3.088
    1MUSC Si0Er 4295   1.336   5.820   1.614
    1MUSC Si0Es 4296   0.978   5.495   3.087
    1MUSC Si0Et 4297   0.809   5.820   2.084
    1MUSC Si0Eu 4298   0.984   5.495   2.617
    1MUSC Si0Ev 4299   1.076   5.665   2.084
    1MUSC Si0Ew 4300   1.237   5.651   2.617
    1MUSC Si0Ex 4301   1.069   5.665   1.613
    1MUSC Si0Ey 4302   0.725   5.651   3.088
    1MUSC O00i9 4303   0.838   6.106   2.243
    1MUSC O00iA 4304   0.955   6.115   2.458
    1MUSC O00iB 4305   1.307   6.106   1.454
    1MUSC O00iC 4306   1.007   6.115   3.247
    1MUSC O00iD 4307   1.094   5.927   1.446
    1MUSC O00iE 4308   0.700   6.295   3.255
    1MUSC O00iF 4309   1.051   5.927   2.252
    1MUSC O00iG 4310   1.262   6.295   2.449
    1MUSC O00iH 4311   0.954   6.175   1.665
    1MUSC O00iI 4312   0.840   6.046   3.036
    1MUSC O00iJ 4313   1.191   6.175   2.032
    1MUSC O00iK 4314   1.122   6.046   2.669
    1MUSC O00iL 4315   0.932   6.212   2.013
    1MUSC O00iM 4316   0.861   6.009   2.688
    1MUSC O00iN 4317   1.213   6.212   1.685
    1MUSC O00iO 4318   1.101   6.009   3.016
    1MUSC O00iP 4319   0.832   5.969   2.013
    1MUSC O00iQ 4320   0.961   6.253   2.688
    1MUSC O00iR 4321   1.313   5.969   1.684
    1MUSC O00iS 4322   1.001   6.253   3.017
    1MUSC O00iT 4323   1.094   6.285   1.454
    1MUSC O00iU 4324   0.699   5.937   3.247
    1MUSC O00iV 4325   1.051   6.285   2.243
    1MUSC O00iW 4326   1.262   5.937   2.458
    1MUSC O00iX 4327   1.098   5.654   2.243
    1MUSC O00iY 4328   1.215   5.662   2.458
    1MUSC O00iZ 4329   1.047   5.654   1.454
    1MUSC O00ia 4330   0.747   5.662   3.247
    1MUSC O00ib 4331   1.354   5.474   1.446
    1MUSC O00ic 4332   0.960   5.842   3.255
    1MUSC O00id 4333   0.791   5.474   2.252
    1MUSC O00ie 4334   1.002   5.842   2.449
    1MUSC O00if 4335   1.214   5.723   1.665
    1MUSC O00ig 4336   1.100   5.593   3.036
    1MUSC O00ih 4337   0.931   5.723   2.032
    1MUSC O00ii 4338   0.862   5.593   2.669
    1MUSC O00ij 4339   1.192   5.760   2.013
    1MUSC O00ik 4340   1.121   5.556   2.688
    1MUSC O00il 4341   0.953   5.760   1.685
    1MUSC O00im 4342   0.841   5.556   3.016
    1MUSC O00in 4343   1.092   5.516   2.013
    1MUSC O00io 4344   1.221   5.800   2.688
    1MUSC O00ip 4345   1.053   5.516   1.684
    1MUSC O00iq 4346   0.741   5.800   3.017
    1MUSC O00ir 4347   1.354   5.832   1.454
    1MUSC O00is 4348   0.960   5.484   3.247
    1MUSC O00it 4349   0.791   5.832   2.243
    1MUSC O00iu 4350   1.002   5.484   2.458
    1MUSC K002p 4351   0.904   7.152   0.845
    1MUSC K002q 4352   1.164   6.699   0.845
    1MUSC Al07V 4353   1.083   6.863   0.343
    1MUSC Al07W 4354   1.076   7.168   0.344
    1MUSC Al07X 4355   1.428   6.863   3.355
    1MUSC Al07Y 4356   1.252   7.168   1.346
    1MUSC Al07Z 4357   1.343   6.411   0.343
    1MUSC Al07a 4358   1.337   6.716   0.344
    1MUSC Al07b 4359   1.168   6.411   3.355
    1MUSC Al07c 4360   0.991   6.716   1.346
    1MUSC Si0Ez 4361   1.259   7.178   3.621
    1MUSC Si0F0 4362   0.901   6.853   1.080
    1MUSC Si0F1 4363   1.252   7.178   0.077
    1MUSC Si0F2 4364   1.427   6.853   0.610
    1MUSC Si0F3 4365   0.999   7.023   0.077
    1MUSC Si0F4 4366   1.160   7.009   0.610
    1MUSC Si0F5 4367   1.512   7.023   3.620
    1MUSC Si0F6 4368   1.168   7.009   1.081
    1MUSC Si0F7 4369   1.519   6.726   3.621
    1MUSC Si0F8 4370   1.161   6.401   1.080
    1MUSC Si0F9 4371   0.992   6.726   0.077
    1MUSC Si0FA 4372   1.167   6.401   0.610
    1MUSC Si0FB 4373   1.259   6.570   0.077
    1MUSC Si0FC 4374   1.420   6.556   0.610
    1MUSC Si0FD 4375   1.252   6.570   3.620
    1MUSC Si0FE 4376   0.908   6.556   1.081
    1MUSC O00iv 4377   1.021   7.012   0.236
    1MUSC O00iw 4378   1.138   7.020   0.451
    1MUSC O00ix 4379   1.490   7.012   3.461
    1MUSC O00iy 4380   1.190   7.020   1.240
    1MUSC O00iz 4381   1.277   6.832   3.453
    1MUSC O00j0 4382   0.883   7.200   1.248
    1MUSC O00j1 4383   1.234   6.832   0.245
    1MUSC O00j2 4384   1.445   7.200   0.442
    1MUSC O00j3 4385   1.137   7.080   3.672
    1MUSC O00j4 4386   1.023   6.951   1.029
    1MUSC O00j5 4387   1.374   7.080   0.025
    1MUSC O00j6 4388   1.305   6.951   0.662
    1MUSC O00j7 4389   1.115   7.117   0.006
    1MUSC O00j8 4390   1.044   6.914   0.681
    1MUSC O00j9 4391   1.396   7.117   3.692
    1MUSC O00jA 4392   1.284   6.914   1.009
    1MUSC O00jB 4393   1.015   6.874   0.006
    1MUSC O00jC 4394   1.144   7.158   0.681
    1MUSC O00jD 4395   1.496   6.874   3.691
    1MUSC O00jE 4396   1.184   7.158   1.010
    1MUSC O00jF 4397   1.277   7.190   3.461
    1MUSC O00jG 4398   0.882   6.842   1.240
    1MUSC O00jH 4399   1.234   7.190   0.236
    1MUSC O00jI 4400   1.445   6.842   0.451
    1MUSC O00jJ 4401   1.281   6.559   0.236
    1MUSC O00jK 4402   1.398   6.567   0.451
    1MUSC O00jL 4403   1.230   6.559   3.461
    1MUSC O00jM 4404   0.930   6.567   1.240
    1MUSC O00jN 4405   1.537   6.379   3.453
    1MUSC O00jO 4406   1.143   6.747   1.248
    1MUSC O00jP 4407   0.974   6.379   0.245
    1MUSC O00jQ 4408   1.185   6.747   0.442
    1MUSC O00jR 4409   1.397   6.628   3.672
    1MUSC O00jS 4410   1.283   6.499   1.029
    1MUSC O00jT 4411   1.114   6.628   0.025
    1MUSC O00jU 4412   1.045   6.499   0.662
    1MUSC O00jV 4413   1.375   6.665   0.006
    1MUSC O00jW 4414   1.304   6.462   0.681
    1MUSC O00jX 4415   1.136   6.665   3.692
    1MUSC O00jY 4416   1.024   6.462   1.009
    1MUSC O00jZ 4417   1.275   6.421   0.006
    1MUSC O00ja 4418   1.404   6.705   0.681
    1MUSC O00jb 4419   1.236   6.421   3.691
    1MUSC O00jc 4420   0.924   6.705   1.010
    1MUSC O00jd 4421   1.537   6.737   3.461
    1MUSC O00je 4422   1.143   6.389   1.240
    1MUSC O00jf 4423   0.974   6.737   0.236
    1MUSC O00jg 4424   1.185   6.389   0.451
    1MUSC K002r 4425   1.072   6.880   1.849
    1MUSC K002s 4426   0.721   7.152   2.852
    1MUSC K002t 4427   0.812   6.427   1.849
    1MUSC K002u 4428   0.981   6.699   2.852
    1MUSC Al07d 4429   0.900   6.863   2.350
    1MUSC Al07e 4430   0.893   7.168   2.351
    1MUSC Al07f 4431   1.245   6.863   1.348
    1MUSC Al07g 4432   1.069   7.168   3.353
    1MUSC Al07h 4433   1.160   6.411   2.350
    1MUSC Al07i 4434   1.154   6.716   2.351
    1MUSC Al07j 4435   0.985   6.411   1.348
    1MUSC Al07k 4436   0.808   6.716   3.353
    1MUSC Si0FF 4437   1.076   7.178   1.614
    1MUSC Si0FG 4438   0.718   6.853   3.087
    1MUSC Si0FH 4439   1.069   7.178   2.084
    1MUSC Si0FI 4440   1.244   6.853   2.617
    1MUSC Si0FJ 4441   0.816   7.023   2.084
    1MUSC Si0FK 4442   0.977   7.009   2.617
    1MUSC Si0FL 4443   1.329   7.023   1.613
    1MUSC Si0FM 4444   0.985   7.009   3.088
    1MUSC Si0FN 4445   1.336   6.726   1.614
    1MUSC Si0FO 4446   0.978   6.401   3.087
    1MUSC Si0FP 4447   0.809   6.726   2.084
    1MUSC Si0FQ 4448   0.984   6.401   2.617
    1MUSC Si0FR 4449   1.076   6.570   2.084
    1MUSC Si0FS 4450   1.237   6.556   2.617
    1MUSC Si0FT 4451   1.069   6.570   1.613
    1MUSC Si0FU 4452   0.725   6.556   3.088
    1MUSC O00jh 4453   0.838   7.012   2.243
    1MUSC O00ji 4454   0.955   7.020   2.458
    1MUSC O00jj 4455   1.307   7.012   1.454
    1MUSC O00jk 4456   1.007   7.020   3.247
    1MUSC O00jl 4457   1.094   6.832   1.446
    1MUSC O00jm 4458   0.700   7.200   3.255
    1MUSC O00jn 4459   1.051   6.832   2.252
    1MUSC O00jo 4460   1.262   7.200   2.449
    1MUSC O00jp 4461   0.954   7.080   1.665
    1MUSC O00jq 4462   0.840   6.951   3.036
    1MUSC O00jr 4463   1.191   7.080   2.032
    1MUSC O00js 4464   1.122   6.951   2.669
    1MUSC O00jt 4465   0.932   7.117   2.013
    1MUSC O00ju 4466   0.861   6.914   2.688
    1MUSC O00jv 4467   1.213   7.117   1.685
    1MUSC O00jw 4468   1.101   6.914   3.016
    1MUSC O00jx 4469   0.832   6.874   2.013
    1MUSC O00jy 4470   0.961   7.158   2.688
    1MUSC O00jz 4471   1.313   6.874   1.684
    1MUSC O00k0 4472   1.001   7.158   3.017
    1MUSC O00k1 4473   1.094   7.190   1.454
    1MUSC O00k2 4474   0.699   6.842   3.247
    1MUSC O00k3 4475   1.051   7.190   2.243
    1MUSC O00k4 4476   1.262   6.842   2.458
    1MUSC O00k5 4477   1.098   6.559   2.243
    1MUSC O00k6 4478   1.215   6.567   2.458
    1MUSC O00k7 4479   1.047   6.559   1.454
    1MUSC O00k8 4480   0.747   6.567   3.247
    1MUSC O00k9 4481   1.354   6.379   1.446
    1MUSC O00kA 4482   0.960   6.747   3.255
    1MUSC O00kB 4483   0.791   6.379   2.252
    1MUSC O00kC 4484   1.002   6.747   2.449
    1MUSC O00kD 4485   1.214   6.628   1.665
    1MUSC O00kE 4486   1.100   6.499   3.036
    1MUSC O00kF 4487   0.931   6.628   2.032
    1MUSC O00kG 4488   0.862   6.499   2.669
    1MUSC O00kH 4489   1.192   6.665   2.013
    1MUSC O00kI 4490   1.121   6.462   2.688
    1MUSC O00kJ 4491   0.953   6.665   1.685
    1MUSC O00kK 4492   0.841   6.462   3.016
    1MUSC O00kL 4493   1.092   6.421   2.013
    1MUSC O00kM 4494   1.221   6.705   2.688
    1MUSC O00kN 4495   1.053   6.421   1.684
    1MUSC O00kO 4496   0.741   6.705   3.017
    1MUSC O00kP 4497   1.354   6.737   1.454
    1MUSC O00kQ 4498   0.960   6.389   3.247
    1MUSC O00kR 4499   0.791   6.737   2.243
    1MUSC O00kS 4500   1.002   6.389   2.458
    1MUSC K002v 4501   0.904   8.057   0.845
    1MUSC K002w 4502   1.164   7.605   0.845
    1MUSC Al07l 4503   1.083   7.769   0.343
    1MUSC Al07m 4504   1.076   8.074   0.344
    1MUSC Al07n 4505   1.428   7.769   3.355
    1MUSC Al07o 4506   1.252   8.074   1.346
    1MUSC Al07p 4507   1.343   7.316   0.343
    1MUSC Al07q 4508   1.337   7.621   0.344
    1MUSC Al07r 4509   1.168   7.316   3.355
    1MUSC Al07s 4510   0.991   7.621   1.346
    1MUSC Si0FV 4511   1.259   8.084   3.621
    1MUSC Si0FW 4512   0.901   7.759   1.080
    1MUSC Si0FX 4513   1.252   8.084   0.077
    1MUSC Si0FY 4514   1.427   7.759   0.610
    1MUSC Si0FZ 4515   0.999   7.928   0.077
    1MUSC Si0Fa 4516   1.160   7.914   0.610
    1MUSC Si0Fb 4517   1.512   7.928   3.620
    1MUSC Si0Fc 4518   1.168   7.914   1.081
    1MUSC Si0Fd 4519   1.519   7.631   3.621
    1MUSC Si0Fe 4520   1.161   7.306   1.080
    1MUSC Si0Ff 4521   0.992   7.631   0.077
    1MUSC Si0Fg 4522   1.167   7.306   0.610
    1MUSC Si0Fh 4523   1.259   7.476   0.077
    1MUSC Si0Fi 4524   1.420   7.461   0.610
    1MUSC Si0Fj 4525   1.252   7.476   3.620
    1MUSC Si0Fk 4526   0.908   7.461   1.081
    1MUSC O00kT 4527   1.021   7.917   0.236
    1MUSC O00kU 4528   1.138   7.925   0.451
    1MUSC O00kV 4529   1.490   7.917   3.461
    1MUSC O00kW 4530   1.190   7.925   1.240
    1MUSC O00kX 4531   1.277   7.737   3.453
    1MUSC O00kY 4532   0.883   8.105   1.248
    1MUSC O00kZ 4533   1.234   7.737   0.245
    1MUSC O00ka 4534   1.445   8.105   0.442
    1MUSC O00kb 4535   1.137   7.986   3.672
    1MUSC O00kc 4536   1.023   7.856   1.029
    1MUSC O00kd 4537   1.374   7.986   0.025
    1MUSC O00ke 4538   1.305   7.856   0.662
    1MUSC O00kf 4539   1.115   8.023   0.006
    1MUSC O00kg 4540   1.044   7.819   0.681
    1MUSC O00kh 4541   1.396   8.023   3.692
    1MUSC O00ki 4542   1.284   7.819   1.009
    1MUSC O00kj 4543   1.015   7.779   0.006
    1MUSC O00kk 4544   1.144   8.063   0.681
    1MUSC O00kl 4545   1.496   7.779   3.691
    1MUSC O00km 4546   1.184   8.063   1.010
    1MUSC O00kn 4547   1.277   8.095   3.461
    1MUSC O00ko 4548   0.882   7.747   1.240
    1MUSC O00kp 4549   1.234   8.095   0.236
    1MUSC O00kq 4550   1.445   7.747   0.451
    1MUSC O00kr 4551   1.281   7.464   0.236
    1MUSC O00ks 4552   1.398   7.473   0.451
    1MUSC O00kt 4553   1.230   7.464   3.461
    1MUSC O00ku 4554   0.930   7.473   1.240
    1MUSC O00kv 4555   1.537   7.284   3.453
    1MUSC O00kw 4556   1.143   7.653   1.248
    1MUSC O00kx 4557   0.974   7.284   0.245
    1MUSC O00ky 4558   1.185   7.653   0.442
    1MUSC O00kz 4559   1.397   7.533   3.672
    1MUSC O00l0 4560   1.283   7.404   1.029
    1MUSC O00l1 4561   1.114   7.533   0.025
    1MUSC O00l2 4562   1.045   7.404   0.662
    1MUSC O00l3 4563   1.375   7.570   0.006
    1MUSC O00l4 4564   1.304   7.367   0.681
    1MUSC O00l5 4565   1.136   7.570   3.692
    1MUSC O00l6 4566   1.024   7.367   1.009
    1MUSC O00l7 4567   1.275   7.326   0.006
    1MUSC O00l8 4568   1.404   7.611   0.681
    1MUSC O00l9 4569   1.236   7.326   3.691
    1MUSC O00lA 4570   0.924   7.611   1.010
    1MUSC O00lB 4571   1.537   7.642   3.461
    1MUSC O00lC 4572   1.143   7.295   1.240
    1MUSC O00lD 4573   0.974   7.642   0.236
    1MUSC O00lE 4574   1.185   7.295   0.451
    1MUSC K002x 4575   1.072   7.785   1.849
    1MUSC K002y 4576   0.721   8.057   2.852
    1MUSC K002z 4577   0.812   7.332   1.849
    1MUSC K0030 4578   0.981   7.605   2.852
    1MUSC Al07t 4579   0.900   7.769   2.350
    1MUSC Al07u 4580   0.893   8.074   2.351
    1MUSC Al07v 4581   1.245   7.769   1.348
    1MUSC Al07w 4582   1.069   8.074   3.353
    1MUSC Al07x 4583   1.160   7.316   2.350
    1MUSC Al07y 4584   1.154   7.621   2.351
    1MUSC Al07z 4585   0.985   7.316   1.348
    1MUSC Al080 4586   0.808   7.621   3.353
    1MUSC Si0Fl 4587   1.076   8.084   1.614
    1MUSC Si0Fm 4588   0.718   7.759   3.087
    1MUSC Si0Fn 4589   1.069   8.084   2.084
    1MUSC Si0Fo 4590   1.244   7.759   2.617
    1MUSC Si0Fp 4591   0.816   7.928   2.084
    1MUSC Si0Fq 4592   0.977   7.914   2.617
    1MUSC Si0Fr 4593   1.329   7.928   1.613
    1MUSC Si0Fs 4594   0.985   7.914   3.088
    1MUSC Si0Ft 4595   1.336   7.631   1.614
    1MUSC Si0Fu 4596   0.978   7.306   3.087
    1MUSC Si0Fv 4597   0.809   7.631   2.084
    1MUSC Si0Fw 4598   0.984   7.306   2.617
    1MUSC Si0Fx 4599   1.076   7.476   2.084
    1MUSC Si0Fy 4600   1.237   7.461   2.617
    1MUSC Si0Fz 4601   1.069   7.476   1.613
    1MUSC Si0G0 4602   0.725   7.461   3.088
    1MUSC O00lF 4603   0.838   7.917   2.243
    1MUSC O00lG 4604   0.955   7.925   2.458
    1MUSC O00lH 4605   1.307   7.917   1.454
    1MUSC O00lI 4606   1.007   7.925   3.247
    1MUSC O00lJ 4607   1.094   7.737   1.446
    1MUSC O00lK 4608   0.700   8.105   3.255
    1MUSC O00lL 4609   1.051   7.737   2.252
    1MUSC O00lM 4610   1.262   8.105   2.449
    1MUSC O00lN 4611   0.954   7.986   1.665
    1MUSC O00lO 4612   0.840   7.856   3.036
    1MUSC O00lP 4613   1.191   7.986   2.032
    1MUSC O00lQ 4614   1.122   7.856   2.669
    1MUSC O00lR 4615   0.932   8.023   2.013
    1MUSC O00lS 4616   0.861   7.819   2.688
    1MUSC O00lT 4617   1.213   8.023   1.685
    1MUSC O00lU 4618   1.101   7.819   3.016
    1MUSC O00lV 4619   0.832   7.779   2.013
    1MUSC O00lW 4620   0.961   8.063   2.688
    1MUSC O00lX 4621   1.313   7.779   1.684
    1MUSC O00lY 4622   1.001   8.063   3.017
    1MUSC O00lZ 4623   1.094   8.095   1.454
    1MUSC O00la 4624   0.699   7.747   3.247
    1MUSC O00lb 4625   1.051   8.095   2.243
    1MUSC O00lc 4626   1.262   7.747   2.458
    1MUSC O00ld 4627   1.098   7.464   2.243
    1MUSC O00le 4628   1.215   7.473   2.458
    1MUSC O00lf 4629   1.047   7.464   1.454
    1MUSC O00lg 4630   0.747   7.473   3.247
    1MUSC O00lh 4631   1.354   7.284   1.446
    1MUSC O00li 4632   0.960   7.653   3.255
    1MUSC O00lj 4633   0.791   7.284   2.252
    1MUSC O00lk 4634   1.002   7.653   2.449
    1MUSC O00ll 4635   1.214   7.533   1.665
    1MUSC O00lm 4636   1.100   7.404   3.036
    1MUSC O00ln 4637   0.931   7.533   2.032
    1MUSC O00lo 4638   0.862   7.404   2.669
    1MUSC O00lp 4639   1.192   7.570   2.013
    1MUSC O00lq 4640   1.121   7.367   2.688
    1MUSC O00lr 4641   0.953   7.570   1.685
    1MUSC O00ls 4642   0.841   7.367   3.016
    1MUSC O00lt 4643   1.092   7.326   2.013
    1MUSC O00lu 4644   1.221   7.611   2.688
    1MUSC O00lv 4645   1.053   7.326   1.684
    1MUSC O00lw 4646   0.741   7.611   3.017
    1MUSC O00lx 4647   1.354   7.642   1.454
    1MUSC O00ly 4648   0.960   7.295   3.247
    1MUSC O00lz 4649   0.791   7.642   2.243
    1MUSC O00m0 4650   1.002   7.295   2.458
    1MUSC K0031 4651   0.904   8.962   0.845
    1MUSC K0032 4652   1.164   8.510   0.845
    1MUSC Al081 4653   1.083   8.674   0.343
    1MUSC Al082 4654   1.076   8.979   0.344
    1MUSC Al083 4655   1.428   8.674   3.355
    1MUSC Al084 4656   1.252   8.979   1.346
    1MUSC Al085 4657   1.343   8.221   0.343
    1MUSC Al086 4658   1.337   8.526   0.344
    1MUSC Al087 4659   1.168   8.221   3.355
    1MUSC Al088 4660   0.991   8.526   1.346
    1MUSC Si0G1 4661   1.259   8.989   3.621
    1MUSC Si0G2 4662   0.901   8.664   1.080
    1MUSC Si0G3 4663   1.252   8.989   0.077
    1MUSC Si0G4 4664   1.427   8.664   0.610
    1MUSC Si0G5 4665   0.999   8.834   0.077
    1MUSC Si0G6 4666   1.160   8.819   0.610
    1MUSC Si0G7 4667   1.512   8.834   3.620
    1MUSC Si0G8 4668   1.168   8.819   1.081
    1MUSC Si0G9 4669   1.519   8.536   3.621
    1MUSC Si0GA 4670   1.161   8.211   1.080
    1MUSC Si0GB 4671   0.992   8.536   0.077
    1MUSC Si0GC 4672   1.167   8.211   0.610
    1MUSC Si0GD 4673   1.259   8.381   0.077
    1MUSC Si0GE 4674   1.420   8.367   0.610
    1MUSC Si0GF 4675   1.252   8.381   3.620
    1MUSC Si0GG 4676   0.908   8.367   1.081
    1MUSC O00m1 4677   1.021   8.822   0.236
    1MUSC O00m2 4678   1.138   8.831   0.451
    1MUSC O00m3 4679   1.490   8.822   3.461
    1MUSC O00m4 4680   1.190   8.831   1.240
    1MUSC O00m5 4681   1.277   8.642   3.453
    1MUSC O00m6 4682   0.883   9.010   1.248
    1MUSC O00m7 4683   1.234   8.642   0.245
    1MUSC O00m8 4684   1.445   9.010   0.442
    1MUSC O00m9 4685   1.137   8.891   3.672
    1MUSC O00mA 4686   1.023   8.762   1.029
    1MUSC O00mB 4687   1.374   8.891   0.025
    1MUSC O00mC 4688   1.305   8.762   0.662
    1MUSC O00mD 4689   1.115   8.928   0.006
    1MUSC O00mE 4690   1.044   8.725   0.681
    1MUSC O00mF 4691   1.396   8.928   3.692
    1MUSC O00mG 4692   1.284   8.725   1.009
    1MUSC O00mH 4693   1.015   8.684   0.006
    1MUSC O00mI 4694   1.144   8.968   0.681
    1MUSC O00mJ 4695   1.496   8.684   3.691
    1MUSC O00mK 4696   1.184   8.968   1.010
    1MUSC O00mL 4697   1.277   9.000   3.461
    1MUSC O00mM 4698   0.882   8.652   1.240
    1MUSC O00mN 4699   1.234   9.000   0.236
    1MUSC O00mO 4700   1.445   8.652   0.451
    1MUSC O00mP 4701   1.281   8.370   0.236
    1MUSC O00mQ 4702   1.398   8.378   0.451
    1MUSC O00mR 4703   1.230   8.370   3.461
    1MUSC O00mS 4704   0.930   8.378   1.240
    1MUSC O00mT 4705   1.537   8.190   3.453
    1MUSC O00mU 4706   1.143   8.558   1.248
    1MUSC O00mV 4707   0.974   8.190   0.245
    1MUSC O00mW 4708   1.185   8.558   0.442
    1MUSC O00mX 4709   1.397   8.438   3.672
    1MUSC O00mY 4710   1.283   8.309   1.029
    1MUSC O00mZ 4711   1.114   8.438   0.025
    1MUSC O00ma 4712   1.045   8.309   0.662
    1MUSC O00mb 4713   1.375   8.475   0.006
    1MUSC O00mc 4714   1.304   8.272   0.681
    1MUSC O00md 4715   1.136   8.475   3.692
    1MUSC O00me 4716   1.024   8.272   1.009
    1MUSC O00mf 4717   1.275   8.232   0.006
    1MUSC O00mg 4718   1.404   8.516   0.681
    1MUSC O00mh 4719   1.236   8.232   3.691
    1MUSC O00mi 4720   0.924   8.516   1.010
    1MUSC O00mj 4721   1.537   8.548   3.461
    1MUSC O00mk 4722   1.143   8.200   1.240
    1MUSC O00ml 4723   0.974   8.548   0.236
    1MUSC O00mm 4724   1.185   8.200   0.451
    1MUSC K0033 4725   1.072   8.690   1.849
    1MUSC K0034 4726   0.721   8.962   2.852
    1MUSC K0035 4727   0.812   8.238   1.849
    1MUSC K0036 4728   0.981   8.510   2.852
    1MUSC Al089 4729   0.900   8.674   2.350
    1MUSC Al08A 4730   0.893   8.979   2.351
    1MUSC Al08B 4731   1.245   8.674   1.348
    1MUSC Al08C 4732   1.069   8.979   3.353
    1MUSC Al08D 4733   1.160   8.221   2.350
    1MUSC Al08E 4734   1.154   8.526   2.351
    1MUSC Al08F 4735   0.985   8.221   1.348
    1MUSC Al08G 4736   0.808   8.526   3.353
    1MUSC Si0GH 4737   1.076   8.989   1.614
    1MUSC Si0GI 4738   0.718   8.664   3.087
    1MUSC Si0GJ 4739   1.069   8.989   2.084
    1MUSC Si0GK 4740   1.244   8.664   2.617
    1MUSC Si0GL 4741   0.816   8.834   2.084
    1MUSC Si0GM 4742   0.977   8.819   2.617
    1MUSC Si0GN 4743   1.329   8.834   1.613
    1MUSC Si0GO 4744   0.985   8.819   3.088
    1MUSC Si0GP 4745   1.336   8.536   1.614
    1MUSC Si0GQ 4746   0.978   8.211   3.087
    1MUSC Si0GR 4747   0.809   8.536   2.084
    1MUSC Si0GS 4748   0.984   8.211   2.617
    1MUSC Si0GT 4749   1.076   8.381   2.084
    1MUSC Si0GU 4750   1.237   8.367   2.617
    1MUSC Si0GV 4751   1.069   8.381   1.613
    1MUSC Si0GW 4752   0.725   8.367   3.088
    1MUSC O00mn 4753   0.838   8.822   2.243
    1MUSC O00mo 4754   0.955   8.831   2.458
    1MUSC O00mp 4755   1.307   8.822   1.454
    1MUSC O00mq 4756   1.007   8.831   3.247
    1MUSC O00mr 4757   1.094   8.642   1.446
    1MUSC O00ms 4758   0.700   9.010   3.255
    1MUSC O00mt 4759   1.051   8.642   2.252
    1MUSC O00mu 4760   1.262   9.010   2.449
    1MUSC O00mv 4761   0.954   8.891   1.665
    1MUSC O00mw 4762   0.840   8.762   3.036
    1MUSC O00mx 4763   1.191   8.891   2.032
    1MUSC O00my 4764   1.122   8.762   2.669
    1MUSC O00mz 4765   0.932   8.928   2.013
    1MUSC O00n0 4766   0.861   8.725   2.688
    1MUSC O00n1 4767   1.213   8.928   1.685
    1MUSC O00n2 4768   1.101   8.725   3.016
    1MUSC O00n3 4769   0.832   8.684   2.013
    1MUSC O00n4 4770   0.961   8.968   2.688
    1MUSC O00n5 4771   1.313   8.684   1.684
    1MUSC O00n6 4772   1.001   8.968   3.017
    1MUSC O00n7 4773   1.094   9.000   1.454
    1MUSC O00n8 4774   0.699   8.652   3.247
    1MUSC O00n9 4775   1.051   9.000   2.243
    1MUSC O00nA 4776   1.262   8.652   2.458
    1MUSC O00nB 4777   1.098   8.370   2.243
    1MUSC O00nC 4778   1.215   8.378   2.458
    1MUSC O00nD 4779   1.047   8.370   1.454
    1MUSC O00nE 4780   0.747   8.378   3.247
    1MUSC O00nF 4781   1.354   8.190   1.446
    1MUSC O00nG 4782   0.960   8.558   3.255
    1MUSC O00nH 4783   0.791   8.190   2.252
    1MUSC O00nI 4784   1.002   8.558   2.449
    1MUSC O00nJ 4785   1.214   8.438   1.665
    1MUSC O00nK 4786   1.100   8.309   3.036
    1MUSC O00nL 4787   0.931   8.438   2.032
    1MUSC O00nM 4788   0.862   8.309   2.669
    1MUSC O00nN 4789   1.192   8.475   2.013
    1MUSC O00nO 4790   1.121   8.272   2.688
    1MUSC O00nP 4791   0.953   8.475   1.685
    1MUSC O00nQ 4792   0.841   8.272   3.016
    1MUSC O00nR 4793   1.092   8.232   2.013
    1MUSC O00nS 4794   1.221   8.516   2.688
    1MUSC O00nT 4795   1.053   8.232   1.684
    1MUSC O00nU 4796   0.741   8.516   3.017
    1MUSC O00nV 4797   1.354   8.548   1.454
    1MUSC O00nW 4798   0.960   8.200   3.247
    1MUSC O00nX 4799   0.791   8.548   2.243
    1MUSC O00nY 4800   1.002   8.200   2.458
    1MUSC K0037 4801   0.904   9.868   0.845
    1MUSC K0038 4802   1.164   9.415   0.845
    1MUSC Al08H 4803   1.083   9.579   0.343
    1MUSC Al08I 4804   1.076   9.884   0.344
    1MUSC Al08J 4805   1.428   9.579   3.355
    1MUSC Al08K 4806   1.252   9.884   1.346
    1MUSC Al08L 4807   1.343   9.126   0.343
    1MUSC Al08M 4808   1.337   9.432   0.344
    1MUSC Al08N 4809   1.168   9.126   3.355
    1MUSC Al08O 4810   0.991   9.432   1.346
    1MUSC Si0GX 4811   1.259   9.894   3.621
    1MUSC Si0GY 4812   0.901   9.569   1.080
    1MUSC Si0GZ 4813   1.252   9.894   0.077
    1MUSC Si0Ga 4814   1.427   9.569   0.610
    1MUSC Si0Gb 4815   0.999   9.739   0.077
    1MUSC Si0Gc 4816   1.160   9.724   0.610
    1MUSC Si0Gd 4817   1.512   9.739   3.620
    1MUSC Si0Ge 4818   1.168   9.724   1.081
    1MUSC Si0Gf 4819   1.519   9.441   3.621
    1MUSC Si0Gg 4820   1.161   9.117   1.080
    1MUSC Si0Gh 4821   0.992   9.441   0.077
    1MUSC Si0Gi 4822   1.167   9.117   0.610
    1MUSC Si0Gj 4823   1.259   9.286   0.077
    1MUSC Si0Gk 4824   1.420   9.272   0.610
    1MUSC Si0Gl 4825   1.252   9.286   3.620
    1MUSC Si0Gm 4826   0.908   9.272   1.081
    1MUSC O00nZ 4827   1.021   9.728   0.236
    1MUSC O00na 4828   1.138   9.736   0.451
    1MUSC O00nb 4829   1.490   9.728   3.461
    1MUSC O00nc 4830   1.190   9.736   1.240
    1MUSC O00nd 4831   1.277   9.548   3.453
    1MUSC O00ne 4832   0.883   9.916   1.248
    1MUSC O00nf 4833   1.234   9.548   0.245
    1MUSC O00ng 4834   1.445   9.916   0.442
    1MUSC O00nh 4835   1.137   9.796   3.672
    1MUSC O00ni 4836   1.023   9.667   1.029
    1MUSC O00nj 4837   1.374   9.796   0.025
    1MUSC O00nk 4838   1.305   9.667   0.662
    1MUSC O00nl 4839   1.115   9.833   0.006
    1MUSC O00nm 4840   1.044   9.630   0.681
    1MUSC O00nn 4841   1.396   9.833   3.692
    1MUSC O00no 4842   1.284   9.630   1.009
    1MUSC O00np 4843   1.015   9.590   0.006
    1MUSC O00nq 4844   1.144   9.874   0.681
    1MUSC O00nr 4845   1.496   9.590   3.691
    1MUSC O00ns 4846   1.184   9.874   1.010
    1MUSC O00nt 4847   1.277   9.906   3.461
    1MUSC O00nu 4848   0.882   9.558   1.240
    1MUSC O00nv 4849   1.234   9.906   0.236
    1MUSC O00nw 4850   1.445   9.558   0.451
    1MUSC O00nx 4851   1.281   9.275   0.236
    1MUSC O00ny 4852   1.398   9.283   0.451
    1MUSC O00nz 4853   1.230   9.275   3.461
    1MUSC O00o0 4854   0.930   9.283   1.240
    1MUSC O00o1 4855   1.537   9.095   3.453
    1MUSC O00o2 4856   1.143   9.463   1.248
    1MUSC O00o3 4857   0.974   9.095   0.245
    1MUSC O00o4 4858   1.185   9.463   0.442
    1MUSC O00o5 4859   1.397   9.344   3.672
    1MUSC O00o6 4860   1.283   9.214   1.029
    1MUSC O00o7 4861   1.114   9.344   0.025
    1MUSC O00o8 4862   1.045   9.214   0.662
    1MUSC O00o9 4863   1.375   9.381   0.006
    1MUSC O00oA 4864   1.304   9.177   0.681
    1MUSC O00oB 4865   1.136   9.381   3.692
    1MUSC O00oC 4866   1.024   9.177   1.009
    1MUSC O00oD 4867   1.275   9.137   0.006
    1MUSC O00oE 4868   1.404   9.421   0.681
    1MUSC O00oF 4869   1.236   9.137   3.691
    1MUSC O00oG 4870   0.924   9.421   1.010
    1MUSC O00oH 4871   1.537   9.453   3.461
    1MUSC O00oI 4872   1.143   9.105   1.240
    1MUSC O00oJ 4873   0.974   9.453   0.236
    1MUSC O00oK 4874   1.185   9.105   0.451
    1MUSC K0039 4875   1.072   9.596   1.849
    1MUSC K003A 4876   0.721   9.868   2.852
    1MUSC K003B 4877   0.812   9.143   1.849
    1MUSC K003C 4878   0.981   9.415   2.852
    1MUSC Al08P 4879   0.900   9.579   2.350
    1MUSC Al08Q 4880   0.893   9.884   2.351
    1MUSC Al08R 4881   1.245   9.579   1.348
    1MUSC Al08S 4882   1.069   9.884   3.353
    1MUSC Al08T 4883   1.160   9.126   2.350
    1MUSC Al08U 4884   1.154   9.432   2.351
    1MUSC Al08V 4885   0.985   9.126   1.348
    1MUSC Al08W 4886   0.808   9.432   3.353
    1MUSC Si0Gn 4887   1.076   9.894   1.614
    1MUSC Si0Go 4888   0.718   9.569   3.087
    1MUSC Si0Gp 4889   1.069   9.894   2.084
    1MUSC Si0Gq 4890   1.244   9.569   2.617
    1MUSC Si0Gr 4891   0.816   9.739   2.084
    1MUSC Si0Gs 4892   0.977   9.724   2.617
    1MUSC Si0Gt 4893   1.329   9.739   1.613
    1MUSC Si0Gu 4894   0.985   9.724   3.088
    1MUSC Si0Gv 4895   1.336   9.441   1.614
    1MUSC Si0Gw 4896   0.978   9.117   3.087
    1MUSC Si0Gx 4897   0.809   9.441   2.084
    1MUSC Si0Gy 4898   0.984   9.117   2.617
    1MUSC Si0Gz 4899   1.076   9.286   2.084
    1MUSC Si0H0 4900   1.237   9.272   2.617
    1MUSC Si0H1 4901   1.069   9.286   1.613
    1MUSC Si0H2 4902   0.725   9.272   3.088
    1MUSC O00oL 4903   0.838   9.728   2.243
    1MUSC O00oM 4904   0.955   9.736   2.458
    1MUSC O00oN 4905   1.307   9.728   1.454
    1MUSC O00oO 4906   1.007   9.736   3.247
    1MUSC O00oP 4907   1.094   9.548   1.446
    1MUSC O00oQ 4908   0.700   9.916   3.255
    1MUSC O00oR 4909   1.051   9.548   2.252
    1MUSC O00oS 4910   1.262   9.916   2.449
    1MUSC O00oT 4911   0.954   9.796   1.665
    1MUSC O00oU 4912   0.840   9.667   3.036
    1MUSC O00oV 4913   1.191   9.796   2.032
    1MUSC O00oW 4914   1.122   9.667   2.669
    1MUSC O00oX 4915   0.932   9.833   2.013
    1MUSC O00oY 4916   0.861   9.630   2.688
    1MUSC O00oZ 4917   1.213   9.833   1.685
    1MUSC O00oa 4918   1.101   9.630   3.016
    1MUSC O00ob 4919   0.832   9.590   2.013
    1MUSC O00oc 4920   0.961   9.874   2.688
    1MUSC O00od 4921   1.313   9.590   1.684
    1MUSC O00oe 4922   1.001   9.874   3.017
    1MUSC O00of 4923   1.094   9.906   1.454
    1MUSC O00og 4924   0.699   9.558   3.247
    1MUSC O00oh 4925   1.051   9.906   2.243
    1MUSC O00oi 4926   1.262   9.558   2.458
    1MUSC O00oj 4927   1.098   9.275   2.243
    1MUSC O00ok 4928   1.215   9.283   2.458
    1MUSC O00ol 4929   1.047   9.275   1.454
    1MUSC O00om 4930   0.747   9.283   3.247
    1MUSC O00on 4931   1.354   9.095   1.446
    1MUSC O00oo 4932   0.960   9.463   3.255
    1MUSC O00op 4933   0.791   9.095   2.252
    1MUSC O00oq 4934   1.002   9.463   2.449
    1MUSC O00or 4935   1.214   9.344   1.665
    1MUSC O00os 4936   1.100   9.214   3.036
    1MUSC O00ot 4937   0.931   9.344   2.032
    1MUSC O00ou 4938   0.862   9.214   2.669
    1MUSC O00ov 4939   1.192   9.381   2.013
    1MUSC O00ow 4940   1.121   9.177   2.688
    1MUSC O00ox 4941   0.953   9.381   1.685
    1MUSC O00oy 4942   0.841   9.177   3.016
    1MUSC O00oz 4943   1.092   9.137   2.013
    1MUSC O00p0 4944   1.221   9.421   2.688
    1MUSC O00p1 4945   1.053   9.137   1.684
    1MUSC O00p2 4946   0.741   9.421   3.017
    1MUSC O00p3 4947   1.354   9.453   1.454
    1MUSC O00p4 4948   0.960   9.105   3.247
    1MUSC O00p5 4949   0.791   9.453   2.243
    1MUSC O00p6 4950   1.002   9.105   2.458
    1MUSC K003D 4951   1.424   0.815   0.845
    1MUSC K003E 4952   1.684   0.362   0.845
    1MUSC Al08X 4953   1.603   0.526   0.343
    1MUSC Al08Y 4954   1.597   0.831   0.344
    1MUSC Al08Z 4955   1.949   0.526   3.355
    1MUSC Al08a 4956   1.772   0.831   1.346
    1MUSC Al08b 4957   1.864   0.074   0.343
    1MUSC Al08c 4958   1.857   0.379   0.344
    1MUSC Al08d 4959   1.688   0.074   3.355
    1MUSC Al08e 4960   1.512   0.379   1.346
    1MUSC Si0H3 4961   1.779   0.841   3.621
    1MUSC Si0H4 4962   1.421   0.517   1.080
    1MUSC Si0H5 4963   1.773   0.841   0.077
    1MUSC Si0H6 4964   1.948   0.517   0.610
    1MUSC Si0H7 4965   1.520   0.686   0.077
    1MUSC Si0H8 4966   1.681   0.672   0.610
    1MUSC Si0H9 4967   2.032   0.686   3.620
    1MUSC Si0HA 4968   1.688   0.672   1.081
    1MUSC Si0HB 4969   2.039   0.389   3.621
    1MUSC Si0HC 4970   1.681   0.064   1.080
    1MUSC Si0HD 4971   1.513   0.389   0.077
    1MUSC Si0HE 4972   1.688   0.064   0.610
    1MUSC Si0HF 4973   1.780   0.233   0.077
    1MUSC Si0HG 4974   1.941   0.219   0.610
    1MUSC Si0HH 4975   1.772   0.233   3.620
    1MUSC Si0HI 4976   1.428   0.219   1.081
    1MUSC O00p7 4977   1.542   0.675   0.236
    1MUSC O00p8 4978   1.658   0.683   0.451
    1MUSC O00p9 4979   2.010   0.675   3.461
    1MUSC O00pA 4980   1.710   0.683   1.240
    1MUSC O00pB 4981   1.797   0.495   3.453
    1MUSC O00pC 4982   1.403   0.863   1.248
    1MUSC O00pD 4983   1.755   0.495   0.245
    1MUSC O00pE 4984   1.966   0.863   0.442
    1MUSC O00pF 4985   1.657   0.744   3.672
    1MUSC O00pG 4986   1.543   0.614   1.029
    1MUSC O00pH 4987   1.895   0.744   0.025
    1MUSC O00pI 4988   1.826   0.614   0.662
    1MUSC O00pJ 4989   1.636   0.781   0.006
    1MUSC O00pK 4990   1.565   0.577   0.681
    1MUSC O00pL 4991   1.916   0.781   3.692
    1MUSC O00pM 4992   1.804   0.577   1.009
    1MUSC O00pN 4993   1.536   0.537   0.006
    1MUSC O00pO 4994   1.664   0.821   0.681
    1MUSC O00pP 4995   2.016   0.537   3.691
    1MUSC O00pQ 4996   1.704   0.821   1.010
    1MUSC O00pR 4997   1.797   0.853   3.461
    1MUSC O00pS 4998   1.403   0.505   1.240
    1MUSC O00pT 4999   1.755   0.853   0.236
    1MUSC O00pU 5000   1.966   0.505   0.451
    1MUSC O00pV 5001   1.802   0.222   0.236
    1MUSC O00pW 5002   1.919   0.230   0.451
    1MUSC O00pX 5003   1.750   0.222   3.461
    1MUSC O00pY 5004   1.450   0.230   1.240
    1MUSC O00pZ 5005   2.057   0.042   3.453
    1MUSC O00pa 5006   1.663   0.410   1.248
    1MUSC O00pb 5007   1.495   0.042   0.245
    1MUSC O00pc 5008   1.706   0.410   0.442
    1MUSC O00pd 5009   1.917   0.291   3.672
    1MUSC O00pe 5010   1.803   0.162   1.029
    1MUSC O00pf 5011   1.635   0.291   0.025
    1MUSC O00pg 5012   1.566   0.162   0.662
    1MUSC O00ph 5013   1.896   0.328   0.006
    1MUSC O00pi 5014   1.825   0.125   0.681
    1MUSC O00pj 5015   1.656   0.328   3.692
    1MUSC O00pk 5016   1.544   0.125   1.009
    1MUSC O00pl 5017   1.796   0.084   0.006
    1MUSC O00pm 5018   1.925   0.368   0.681
    1MUSC O00pn 5019   1.756   0.084   3.691
    1MUSC O00po 5020   1.444   0.368   1.010
    1MUSC O00pp 5021   2.057   0.400   3.461
    1MUSC O00pq 5022   1.663   0.052   1.240
    1MUSC O00pr 5023   1.494   0.400   0.236
    1MUSC O00ps 5024   1.706   0.052   0.451
    1MUSC K003F 5025   1.593   0.543   1.849
    1MUSC K003G 5026   1.241   0.815   2.852
    1MUSC K003H 5027   1.333   0.090   1.849
    1MUSC K003I 5028   1.501   0.362   2.852
    1MUSC Al08f 5029   1.420   0.526   2.350
    1MUSC Al08g 5030   1.414   0.831   2.351
    1MUSC Al08h 5031   1.766   0.526   1.348
    1MUSC Al08i 5032   1.589   0.831   3.353
    1MUSC Al08j 5033   1.681   0.074   2.350
    1MUSC Al08k 5034   1.674   0.379   2.351
    1MUSC Al08l 5035   1.505   0.074   1.348
    1MUSC Al08m 5036   1.329   0.379   3.353
    1MUSC Si0HJ 5037   1.596   0.841   1.614
    1MUSC Si0HK 5038   1.238   0.517   3.087
    1MUSC Si0HL 5039   1.590   0.841   2.084
    1MUSC Si0HM 5040   1.765   0.517   2.617
    1MUSC Si0HN 5041   1.337   0.686   2.084
    1MUSC Si0HO 5042   1.498   0.672   2.617
    1MUSC Si0HP 5043   1.849   0.686   1.613
    1MUSC Si0HQ 5044   1.505   0.672   3.088
    1MUSC Si0HR 5045   1.856   0.389   1.614
    1MUSC Si0HS 5046   1.498   0.064   3.087
    1MUSC Si0HT 5047   1.330   0.389   2.084
    1MUSC Si0HU 5048   1.505   0.064   2.617
    1MUSC Si0HV 5049   1.597   0.233   2.084
    1MUSC Si0HW 5050   1.758   0.219   2.617
    1MUSC Si0HX 5051   1.589   0.233   1.613
    1MUSC Si0HY 5052   1.245   0.219   3.088
    1MUSC O00pt 5053   1.359   0.675   2.243
    1MUSC O00pu 5054   1.475   0.683   2.458
    1MUSC O00pv 5055   1.827   0.675   1.454
    1MUSC O00pw 5056   1.527   0.683   3.247
    1MUSC O00px 5057   1.614   0.495   1.446
    1MUSC O00py 5058   1.220   0.863   3.255
    1MUSC O00pz 5059   1.572   0.495   2.252
    1MUSC O00q0 5060   1.783   0.863   2.449
    1MUSC O00q1 5061   1.474   0.744   1.665
    1MUSC O00q2 5062   1.360   0.614   3.036
    1MUSC O00q3 5063   1.712   0.744   2.032
    1MUSC O00q4 5064   1.643   0.614   2.669
    1MUSC O00q5 5065   1.453   0.781   2.013
    1MUSC O00q6 5066   1.382   0.577   2.688
    1MUSC O00q7 5067   1.733   0.781   1.685
    1MUSC O00q8 5068   1.621   0.577   3.016
    1MUSC O00q9 5069   1.353   0.537   2.013
    1MUSC O00qA 5070   1.481   0.821   2.688
    1MUSC O00qB 5071   1.833   0.537   1.684
    1MUSC O00qC 5072   1.521   0.821   3.017
    1MUSC O00qD 5073   1.614   0.853   1.454
    1MUSC O00qE 5074   1.220   0.505   3.247
    1MUSC O00qF 5075   1.572   0.853   2.243
    1MUSC O00qG 5076   1.783   0.505   2.458
    1MUSC O00qH 5077   1.619   0.222   2.243
    1MUSC O00qI 5078   1.736   0.230   2.458
    1MUSC O00qJ 5079   1.567   0.222   1.454
    1MUSC O00qK 5080   1.267   0.230   3.247
    1MUSC O00qL 5081   1.874   0.042   1.446
    1MUSC O00qM 5082   1.480   0.410   3.255
    1MUSC O00qN 5083   1.312   0.042   2.252
    1MUSC O00qO 5084   1.523   0.410   2.449
    1MUSC O00qP 5085   1.734   0.291   1.665
    1MUSC O00qQ 5086   1.620   0.162   3.036
    1MUSC O00qR 5087   1.452   0.291   2.032
    1MUSC O00qS 5088   1.383   0.162   2.669
    1MUSC O00qT 5089   1.713   0.328   2.013
    1MUSC O00qU 5090   1.642   0.125   2.688
    1MUSC O00qV 5091   1.473   0.328   1.685
    1MUSC O00qW 5092   1.361   0.125   3.016
    1MUSC O00qX 5093   1.613   0.084   2.013
    1MUSC O00qY 5094   1.742   0.368   2.688
    1MUSC O00qZ 5095   1.573   0.084   1.684
    1MUSC O00qa 5096   1.261   0.368   3.017
    1MUSC O00qb 5097   1.874   0.400   1.454
    1MUSC O00qc 5098   1.480   0.052   3.247
    1MUSC O00qd 5099   1.311   0.400   2.243
    1MUSC O00qe 5100   1.523   0.052   2.458
    1MUSC K003J 5101   1.424   1.720   0.845
    1MUSC K003K 5102   1.684   1.268   0.845
    1MUSC Al08n 5103   1.603   1.432   0.343
    1MUSC Al08o 5104   1.597   1.737   0.344
    1MUSC Al08p 5105   1.949   1.432   3.355
    1MUSC Al08q 5106   1.772   1.737   1.346
    1MUSC Al08r 5107   1.864   0.979   0.343
    1MUSC Al08s 5108   1.857   1.284   0.344
    1MUSC Al08t 5109   1.688   0.979   3.355
    1MUSC Al08u 5110   1.512   1.284   1.346
    1MUSC Si0HZ 5111   1.779   1.747   3.621
    1MUSC Si0Ha 5112   1.421   1.422   1.080
    1MUSC Si0Hb 5113   1.773   1.747   0.077
    1MUSC Si0Hc 5114   1.948   1.422   0.610
    1MUSC Si0Hd 5115   1.520   1.591   0.077
    1MUSC Si0He 5116   1.681   1.577   0.610
    1MUSC Si0Hf 5117   2.032   1.591   3.620
    1MUSC Si0Hg 5118   1.688   1.577   1.081
    1MUSC Si0Hh 5119   2.039   1.294   3.621
    1MUSC Si0Hi 5120   1.681   0.969   1.080
    1MUSC Si0Hj 5121   1.513   1.294   0.077
    1MUSC Si0Hk 5122   1.688   0.969   0.610
    1MUSC Si0Hl 5123   1.780   1.139   0.077
    1MUSC Si0Hm 5124   1.941   1.124   0.610
    1MUSC Si0Hn 5125   1.772   1.139   3.620
    1MUSC Si0Ho 5126   1.428   1.124   1.081
    1MUSC O00qf 5127   1.542   1.580   0.236
    1MUSC O00qg 5128   1.658   1.588   0.451
    1MUSC O00qh 5129   2.010   1.580   3.461
    1MUSC O00qi 5130   1.710   1.588   1.240
    1MUSC O00qj 5131   1.797   1.400   3.453
    1MUSC O00qk 5132   1.403   1.768   1.248
    1MUSC O00ql 5133   1.755   1.400   0.245
    1MUSC O00qm 5134   1.966   1.768   0.442
    1MUSC O00qn 5135   1.657   1.649   3.672
    1MUSC O00qo 5136   1.543   1.520   1.029
    1MUSC O00qp 5137   1.895   1.649   0.025
    1MUSC O00qq 5138   1.826   1.520   0.662
    1MUSC O00qr 5139   1.636   1.686   0.006
    1MUSC O00qs 5140   1.565   1.483   0.681
    1MUSC O00qt 5141   1.916   1.686   3.692
    1MUSC O00qu 5142   1.804   1.483   1.009
    1MUSC O00qv 5143   1.536   1.442   0.006
    1MUSC O00qw 5144   1.664   1.726   0.681
    1MUSC O00qx 5145   2.016   1.442   3.691
    1MUSC O00qy 5146   1.704   1.726   1.010
    1MUSC O00qz 5147   1.797   1.758   3.461
    1MUSC O00r0 5148   1.403   1.410   1.240
    1MUSC O00r1 5149   1.755   1.758   0.236
    1MUSC O00r2 5150   1.966   1.410   0.451
    1MUSC O00r3 5151   1.802   1.127   0.236
    1MUSC O00r4 5152   1.919   1.136   0.451
    1MUSC O00r5 5153   1.750   1.127   3.461
    1MUSC O00r6 5154   1.450   1.136   1.240
    1MUSC O00r7 5155   2.057   0.948   3.453
    1MUSC O00r8 5156   1.663   1.316   1.248
    1MUSC O00r9 5157   1.495   0.948   0.245
    1MUSC O00rA 5158   1.706   1.316   0.442
    1MUSC O00rB 5159   1.917   1.196   3.672
    1MUSC O00rC 5160   1.803   1.067   1.029
    1MUSC O00rD 5161   1.635   1.196   0.025
    1MUSC O00rE 5162   1.566   1.067   0.662
    1MUSC O00rF 5163   1.896   1.233   0.006
    1MUSC O00rG 5164   1.825   1.030   0.681
    1MUSC O00rH 5165   1.656   1.233   3.692
    1MUSC O00rI 5166   1.544   1.030   1.009
    1MUSC O00rJ 5167   1.796   0.990   0.006
    1MUSC O00rK 5168   1.925   1.274   0.681
    1MUSC O00rL 5169   1.756   0.990   3.691
    1MUSC O00rM 5170   1.444   1.274   1.010
    1MUSC O00rN 5171   2.057   1.306   3.461
    1MUSC O00rO 5172   1.663   0.958   1.240
    1MUSC O00rP 5173   1.494   1.306   0.236
    1MUSC O00rQ 5174   1.706   0.958   0.451
    1MUSC K003L 5175   1.593   1.448   1.849
    1MUSC K003M 5176   1.241   1.720   2.852
    1MUSC K003N 5177   1.333   0.996   1.849
    1MUSC K003O 5178   1.501   1.268   2.852
    1MUSC Al08v 5179   1.420   1.432   2.350
    1MUSC Al08w 5180   1.414   1.737   2.351
    1MUSC Al08x 5181   1.766   1.432   1.348
    1MUSC Al08y 5182   1.589   1.737   3.353
    1MUSC Al08z 5183   1.681   0.979   2.350
    1MUSC Al090 5184   1.674   1.284   2.351
    1MUSC Al091 5185   1.505   0.979   1.348
    1MUSC Al092 5186   1.329   1.284   3.353
    1MUSC Si0Hp 5187   1.596   1.747   1.614
    1MUSC Si0Hq 5188   1.238   1.422   3.087
    1MUSC Si0Hr 5189   1.590   1.747   2.084
    1MUSC Si0Hs 5190   1.765   1.422   2.617
    1MUSC Si0Ht 5191   1.337   1.591   2.084
    1MUSC Si0Hu 5192   1.498   1.577   2.617
    1MUSC Si0Hv 5193   1.849   1.591   1.613
    1MUSC Si0Hw 5194   1.505   1.577   3.088
    1MUSC Si0Hx 5195   1.856   1.294   1.614
    1MUSC Si0Hy 5196   1.498   0.969   3.087
    1MUSC Si0Hz 5197   1.330   1.294   2.084
    1MUSC Si0I0 5198   1.505   0.969   2.617
    1MUSC Si0I1 5199   1.597   1.139   2.084
    1MUSC Si0I2 5200   1.758   1.124   2.617
    1MUSC Si0I3 5201   1.589   1.139   1.613
    1MUSC Si0I4 5202   1.245   1.124   3.088
    1MUSC O00rR 5203   1.359   1.580   2.243
    1MUSC O00rS 5204   1.475   1.588   2.458
    1MUSC O00rT 5205   1.827   1.580   1.454
    1MUSC O00rU 5206   1.527   1.588   3.247
    1MUSC O00rV 5207   1.614   1.400   1.446
    1MUSC O00rW 5208   1.220   1.768   3.255
    1MUSC O00rX 5209   1.572   1.400   2.252
    1MUSC O00rY 5210   1.783   1.768   2.449
    1MUSC O00rZ 5211   1.474   1.649   1.665
    1MUSC O00ra 5212   1.360   1.520   3.036
    1MUSC O00rb 5213   1.712   1.649   2.032
    1MUSC O00rc 5214   1.643   1.520   2.669
    1MUSC O00rd 5215   1.453   1.686   2.013
    1MUSC O00re 5216   1.382   1.483   2.688
    1MUSC O00rf 5217   1.733   1.686   1.685
    1MUSC O00rg 5218   1.621   1.483   3.016
    1MUSC O00rh 5219   1.353   1.442   2.013
    1MUSC O00ri 5220   1.481   1.726   2.688
    1MUSC O00rj 5221   1.833   1.442   1.684
    1MUSC O00rk 5222   1.521   1.726   3.017
    1MUSC O00rl 5223   1.614   1.758   1.454
    1MUSC O00rm 5224   1.220   1.410   3.247
    1MUSC O00rn 5225   1.572   1.758   2.243
    1MUSC O00ro 5226   1.783   1.410   2.458
    1MUSC O00rp 5227   1.619   1.127   2.243
    1MUSC O00rq 5228   1.736   1.136   2.458
    1MUSC O00rr 5229   1.567   1.127   1.454
    1MUSC O00rs 5230   1.267   1.136   3.247
    1MUSC O00rt 5231   1.874   0.948   1.446
    1MUSC O00ru 5232   1.480   1.316   3.255
    1MUSC O00rv 5233   1.312   0.948   2.252
    1MUSC O00rw 5234   1.523   1.316   2.449
    1MUSC O00rx 5235   1.734   1.196   1.665
    1MUSC O00ry 5236   1.620   1.067   3.036
    1MUSC O00rz 5237   1.452   1.196   2.032
    1MUSC O00s0 5238   1.383   1.067   2.669
    1MUSC O00s1 5239   1.713   1.233   2.013
    1MUSC O00s2 5240   1.642   1.030   2.688
    1MUSC O00s3 5241   1.473   1.233   1.685
    1MUSC O00s4 5242   1.361   1.030   3.016
    1MUSC O00s5 5243   1.613   0.990   2.013
    1MUSC O00s6 5244   1.742   1.274   2.688
    1MUSC O00s7 5245   1.573   0.990   1.684
    1MUSC O00s8 5246   1.261   1.274   3.017
    1MUSC O00s9 5247   1.874   1.306   1.454
    1MUSC O00sA 5248   1.480   0.958   3.247
    1MUSC O00sB 5249   1.311   1.306   2.243
    1MUSC O00sC 5250   1.523   0.958   2.458
    1MUSC K003P 5251   1.424   2.626   0.845
    1MUSC K003Q 5252   1.684   2.173   0.845
    1MUSC Al093 5253   1.603   2.337   0.343
    1MUSC Al094 5254   1.597   2.642   0.344
    1MUSC Al095 5255   1.949   2.337   3.355
    1MUSC Al096 5256   1.772   2.642   1.346
    1MUSC Al097 5257   1.864   1.884   0.343
    1MUSC Al098 5258   1.857   2.189   0.344
    1MUSC Al099 5259   1.688   1.884   3.355
    1MUSC Al09A 5260   1.512   2.189   1.346
    1MUSC Si0I5 5261   1.779   2.652   3.621
    1MUSC Si0I6 5262   1.421   2.327   1.080
    1MUSC Si0I7 5263   1.773   2.652   0.077
    1MUSC Si0I8 5264   1.948   2.327   0.610
    1MUSC Si0I9 5265   1.520   2.497   0.077
    1MUSC Si0IA 5266   1.681   2.482   0.610
    1MUSC Si0IB 5267   2.032   2.497   3.620
    1MUSC Si0IC 5268   1.688   2.482   1.081
    1MUSC Si0ID 5269   2.039   2.199   3.621
    1MUSC Si0IE 5270   1.681   1.874   1.080
    1MUSC Si0IF 5271   1.513   2.199   0.077
    1MUSC Si0IG 5272   1.688   1.874   0.610
    1MUSC Si0IH 5273   1.780   2.044   0.077
    1MUSC Si0II 5274   1.941   2.030   0.610
    1MUSC Si0IJ 5275   1.772   2.044   3.620
    1MUSC Si0IK 5276   1.428   2.030   1.081
    1MUSC O00sD 5277   1.542   2.485   0.236
    1MUSC O00sE 5278   1.658   2.494   0.451
    1MUSC O00sF 5279   2.010   2.485   3.461
    1MUSC O00sG 5280   1.710   2.494   1.240
    1MUSC O00sH 5281   1.797   2.305   3.453
    1MUSC O00sI 5282   1.403   2.674   1.248
    1MUSC O00sJ 5283   1.755   2.305   0.245
    1MUSC O00sK 5284   1.966   2.674   0.442
    1MUSC O00sL 5285   1.657   2.554   3.672
    1MUSC O00sM 5286   1.543   2.425   1.029
    1MUSC O00sN 5287   1.895   2.554   0.025
    1MUSC O00sO 5288   1.826   2.425   0.662
    1MUSC O00sP 5289   1.636   2.591   0.006
    1MUSC O00sQ 5290   1.565   2.388   0.681
    1MUSC O00sR 5291   1.916   2.591   3.692
    1MUSC O00sS 5292   1.804   2.388   1.009
    1MUSC O00sT 5293   1.536   2.347   0.006
    1MUSC O00sU 5294   1.664   2.632   0.681
    1MUSC O00sV 5295   2.016   2.347   3.691
    1MUSC O00sW 5296   1.704   2.632   1.010
    1MUSC O00sX 5297   1.797   2.663   3.461
    1MUSC O00sY 5298   1.403   2.316   1.240
    1MUSC O00sZ 5299   1.755   2.663   0.236
    1MUSC O00sa 5300   1.966   2.316   0.451
    1MUSC O00sb 5301   1.802   2.033   0.236
    1MUSC O00sc 5302   1.919   2.041   0.451
    1MUSC O00sd 5303   1.750   2.033   3.461
    1MUSC O00se 5304   1.450   2.041   1.240
    1MUSC O00sf 5305   2.057   1.853   3.453
    1MUSC O00sg 5306   1.663   2.221   1.248
    1MUSC O00sh 5307   1.495   1.853   0.245
    1MUSC O00si 5308   1.706   2.221   0.442
    1MUSC O00sj 5309   1.917   2.101   3.672
    1MUSC O00sk 5310   1.803   1.972   1.029
    1MUSC O00sl 5311   1.635   2.101   0.025
    1MUSC O00sm 5312   1.566   1.972   0.662
    1MUSC O00sn 5313   1.896   2.139   0.006
    1MUSC O00so 5314   1.825   1.935   0.681
    1MUSC O00sp 5315   1.656   2.139   3.692
    1MUSC O00sq 5316   1.544   1.935   1.009
    1MUSC O00sr 5317   1.796   1.895   0.006
    1MUSC O00ss 5318   1.925   2.179   0.681
    1MUSC O00st 5319   1.756   1.895   3.691
    1MUSC O00su 5320   1.444   2.179   1.010
    1MUSC O00sv 5321   2.057   2.211   3.461
    1MUSC O00sw 5322   1.663   1.863   1.240
    1MUSC O00sx 5323   1.494   2.211   0.236
    1MUSC O00sy 5324   1.706   1.863   0.451
    1MUSC K003R 5325   1.593   2.353   1.849
    1MUSC K003S 5326   1.241   2.626   2.852
    1MUSC K003T 5327   1.333   1.901   1.849
    1MUSC K003U 5328   1.501   2.173   2.852
    1MUSC Al09B 5329   1.420   2.337   2.350
    1MUSC Al09C 5330   1.414   2.642   2.351
    1MUSC Al09D 5331   1.766   2.337   1.348
    1MUSC Al09E 5332   1.589   2.642   3.353
    1MUSC Al09F 5333   1.681   1.884   2.350
    1MUSC Al09G 5334   1.674   2.189   2.351
    1MUSC Al09H 5335   1.505   1.884   1.348
    1MUSC Al09I 5336   1.329   2.189   3.353
    1MUSC Si0IL 5337   1.596   2.652   1.614
    1MUSC Si0IM 5338   1.238   2.327   3.087
    1MUSC Si0IN 5339   1.590   2.652   2.084
    1MUSC Si0IO 5340   1.765   2.327   2.617
    1MUSC Si0IP 5341   1.337   2.497   2.084
    1MUSC Si0IQ 5342   1.498   2.482   2.617
    1MUSC Si0IR 5343   1.849   2.497   1.613
    1MUSC Si0IS 5344   1.505   2.482   3.088
    1MUSC Si0IT 5345   1.856   2.199   1.614
    1MUSC Si0IU 5346   1.498   1.874   3.087
    1MUSC Si0IV 5347   1.330   2.199   2.084
    1MUSC Si0IW 5348   1.505   1.874   2.617
    1MUSC Si0IX 5349   1.597   2.044   2.084
    1MUSC Si0IY 5350   1.758   2.030   2.617
    1MUSC Si0IZ 5351   1.589   2.044   1.613
    1MUSC Si0Ia 5352   1.245   2.030   3.088
    1MUSC O00sz 5353   1.359   2.485   2.243
    1MUSC O00t0 5354   1.475   2.494   2.458
    1MUSC O00t1 5355   1.827   2.485   1.454
    1MUSC O00t2 5356   1.527   2.494   3.247
    1MUSC O00t3 5357   1.614   2.305   1.446
    1MUSC O00t4 5358   1.220   2.674   3.255
    1MUSC O00t5 5359   1.572   2.305   2.252
    1MUSC O00t6 5360   1.783   2.674   2.449
    1MUSC O00t7 5361   1.474   2.554   1.665
    1MUSC O00t8 5362   1.360   2.425   3.036
    1MUSC O00t9 5363   1.712   2.554   2.032
    1MUSC O00tA 5364   1.643   2.425   2.669
    1MUSC O00tB 5365   1.453   2.591   2.013
    1MUSC O00tC 5366   1.382   2.388   2.688
    1MUSC O00tD 5367   1.733   2.591   1.685
    1MUSC O00tE 5368   1.621   2.388   3.016
    1MUSC O00tF 5369   1.353   2.347   2.013
    1MUSC O00tG 5370   1.481   2.632   2.688
    1MUSC O00tH 5371   1.833   2.347   1.684
    1MUSC O00tI 5372   1.521   2.632   3.017
    1MUSC O00tJ 5373   1.614   2.663   1.454
    1MUSC O00tK 5374   1.220   2.316   3.247
    1MUSC O00tL 5375   1.572   2.663   2.243
    1MUSC O00tM 5376   1.783   2.316   2.458
    1MUSC O00tN 5377   1.619   2.033   2.243
    1MUSC O00tO 5378   1.736   2.041   2.458
    1MUSC O00tP 5379   1.567   2.033   1.454
    1MUSC O00tQ 5380   1.267   2.041   3.247
    1MUSC O00tR 5381   1.874   1.853   1.446
    1MUSC O00tS 5382   1.480   2.221   3.255
    1MUSC O00tT 5383   1.312   1.853   2.252
    1MUSC O00tU 5384   1.523   2.221   2.449
    1MUSC O00tV 5385   1.734   2.101   1.665
    1MUSC O00tW 5386   1.620   1.972   3.036
    1MUSC O00tX 5387   1.452   2.101   2.032
    1MUSC O00tY 5388   1.383   1.972   2.669
    1MUSC O00tZ 5389   1.713   2.139   2.013
    1MUSC O00ta 5390   1.642   1.935   2.688
    1MUSC O00tb 5391   1.473   2.139   1.685
    1MUSC O00tc 5392   1.361   1.935   3.016
    1MUSC O00td 5393   1.613   1.895   2.013
    1MUSC O00te 5394   1.742   2.179   2.688
    1MUSC O00tf 5395   1.573   1.895   1.684
    1MUSC O00tg 5396   1.261   2.179   3.017
    1MUSC O00th 5397   1.874   2.211   1.454
    1MUSC O00ti 5398   1.480   1.863   3.247
    1MUSC O00tj 5399   1.311   2.211   2.243
    1MUSC O00tk 5400   1.523   1.863   2.458
    1MUSC K003V 5401   1.424   3.531   0.845
    1MUSC K003W 5402   1.684   3.078   0.845
    1MUSC Al09J 5403   1.603   3.242   0.343
    1MUSC Al09K 5404   1.597   3.547   0.344
    1MUSC Al09L 5405   1.949   3.242   3.355
    1MUSC Al09M 5406   1.772   3.547   1.346
    1MUSC Al09N 5407   1.864   2.790   0.343
    1MUSC Al09O 5408   1.857   3.095   0.344
    1MUSC Al09P 5409   1.688   2.790   3.355
    1MUSC Al09Q 5410   1.512   3.095   1.346
    1MUSC Si0Ib 5411   1.779   3.557   3.621
    1MUSC Si0Ic 5412   1.421   3.232   1.080
    1MUSC Si0Id 5413   1.773   3.557   0.077
    1MUSC Si0Ie 5414   1.948   3.232   0.610
    1MUSC Si0If 5415   1.520   3.402   0.077
    1MUSC Si0Ig 5416   1.681   3.388   0.610
    1MUSC Si0Ih 5417   2.032   3.402   3.620
    1MUSC Si0Ii 5418   1.688   3.388   1.081
    1MUSC Si0Ij 5419   2.039   3.105   3.621
    1MUSC Si0Ik 5420   1.681   2.780   1.080
    1MUSC Si0Il 5421   1.513   3.105   0.077
    1MUSC Si0Im 5422   1.688   2.780   0.610
    1MUSC Si0In 5423   1.780   2.949   0.077
    1MUSC Si0Io 5424   1.941   2.935   0.610
    1MUSC Si0Ip 5425   1.772   2.949   3.620
    1MUSC Si0Iq 5426   1.428   2.935   1.081
    1MUSC O00tl 5427   1.542   3.391   0.236
    1MUSC O00tm 5428   1.658   3.399   0.451
    1MUSC O00tn 5429   2.010   3.391   3.461
    1MUSC O00to 5430   1.710   3.399   1.240
    1MUSC O00tp 5431   1.797   3.211   3.453
    1MUSC O00tq 5432   1.403   3.579   1.248
    1MUSC O00tr 5433   1.755   3.211   0.245
    1MUSC O00ts 5434   1.966   3.579   0.442
    1MUSC O00tt 5435   1.657   3.459   3.672
    1MUSC O00tu 5436   1.543   3.330   1.029
    1MUSC O00tv 5437   1.895   3.459   0.025
    1MUSC O00tw 5438   1.826   3.330   0.662
    1MUSC O00tx 5439   1.636   3.496   0.006
    1MUSC O00ty 5440   1.565   3.293   0.681
    1MUSC O00tz 5441   1.916   3.496   3.692
    1MUSC O00u0 5442   1.804   3.293   1.009
    1MUSC O00u1 5443   1.536   3.253   0.006
    1MUSC O00u2 5444   1.664   3.537   0.681
    1MUSC O00u3 5445   2.016   3.253   3.691
    1MUSC O00u4 5446   1.704   3.537   1.010
    1MUSC O00u5 5447   1.797   3.569   3.461
    1MUSC O00u6 5448   1.403   3.221   1.240
    1MUSC O00u7 5449   1.755   3.569   0.236
    1MUSC O00u8 5450   1.966   3.221   0.451
    1MUSC O00u9 5451   1.802   2.938   0.236
    1MUSC O00uA 5452   1.919   2.946   0.451
    1MUSC O00uB 5453   1.750   2.938   3.461
    1MUSC O00uC 5454   1.450   2.946   1.240
    1MUSC O00uD 5455   2.057   2.758   3.453
    1MUSC O00uE 5456   1.663   3.126   1.248
    1MUSC O00uF 5457   1.495   2.758   0.245
    1MUSC O00uG 5458   1.706   3.126   0.442
    1MUSC O00uH 5459   1.917   3.007   3.672
    1MUSC O00uI 5460   1.803   2.877   1.029
    1MUSC O00uJ 5461   1.635   3.007   0.025
    1MUSC O00uK 5462   1.566   2.877   0.662
    1MUSC O00uL 5463   1.896   3.044   0.006
    1MUSC O00uM 5464   1.825   2.840   0.681
    1MUSC O00uN 5465   1.656   3.044   3.692
    1MUSC O00uO 5466   1.544   2.840   1.009
    1MUSC O00uP 5467   1.796   2.800   0.006
    1MUSC O00uQ 5468   1.925   3.084   0.681
    1MUSC O00uR 5469   1.756   2.800   3.691
    1MUSC O00uS 5470   1.444   3.084   1.010
    1MUSC O00uT 5471   2.057   3.116   3.461
    1MUSC O00uU 5472   1.663   2.768   1.240
    1MUSC O00uV 5473   1.494   3.116   0.236
    1MUSC O00uW 5474   1.706   2.768   0.451
    1MUSC K003X 5475   1.593   3.259   1.849
    1MUSC K003Y 5476   1.241   3.531   2.852
    1MUSC K003Z 5477   1.333   2.806   1.849
    1MUSC K003a 5478   1.501   3.078   2.852
    1MUSC Al09R 5479   1.420   3.242   2.350
    1MUSC Al09S 5480   1.414   3.547   2.351
    1MUSC Al09T 5481   1.766   3.242   1.348
    1MUSC Al09U 5482   1.589   3.547   3.353
    1MUSC Al09V 5483   1.681   2.790   2.350
    1MUSC Al09W 5484   1.674   3.095   2.351
    1MUSC Al09X 5485   1.505   2.790   1.348
    1MUSC Al09Y 5486   1.329   3.095   3.353
    1MUSC Si0Ir 5487   1.596   3.557   1.614
    1MUSC Si0Is 5488   1.238   3.232   3.087
    1MUSC Si0It 5489   1.590   3.557   2.084
    1MUSC Si0Iu 5490   1.765   3.232   2.617
    1MUSC Si0Iv 5491   1.337   3.402   2.084
    1MUSC Si0Iw 5492   1.498   3.388   2.617
    1MUSC Si0Ix 5493   1.849   3.402   1.613
    1MUSC Si0Iy 5494   1.505   3.388   3.088
    1MUSC Si0Iz 5495   1.856   3.105   1.614
    1MUSC Si0J0 5496   1.498   2.780   3.087
    1MUSC Si0J1 5497   1.330   3.105   2.084
    1MUSC Si0J2 5498   1.505   2.780   2.617
    1MUSC Si0J3 5499   1.597   2.949   2.084
    1MUSC Si0J4 5500   1.758   2.935   2.617
    1MUSC Si0J5 5501   1.589   2.949   1.613
    1MUSC Si0J6 5502   1.245   2.935   3.088
    1MUSC O00uX 5503   1.359   3.391   2.243
    1MUSC O00uY 5504   1.475   3.399   2.458
    1MUSC O00uZ 5505   1.827   3.391   1.454
    1MUSC O00ua 5506   1.527   3.399   3.247
    1MUSC O00ub 5507   1.614   3.211   1.446
    1MUSC O00uc 5508   1.220   3.579   3.255
    1MUSC O00ud 5509   1.572   3.211   2.252
    1MUSC O00ue 5510   1.783   3.579   2.449
    1MUSC O00uf 5511   1.474   3.459   1.665
    1MUSC O00ug 5512   1.360   3.330   3.036
    1MUSC O00uh 5513   1.712   3.459   2.032
    1MUSC O00ui 5514   1.643   3.330   2.669
    1MUSC O00uj 5515   1.453   3.496   2.013
    1MUSC O00uk 5516   1.382   3.293   2.688
    1MUSC O00ul 5517   1.733   3.496   1.685
    1MUSC O00um 5518   1.621   3.293   3.016
    1MUSC O00un 5519   1.353   3.253   2.013
    1MUSC O00uo 5520   1.481   3.537   2.688
    1MUSC O00up 5521   1.833   3.253   1.684
    1MUSC O00uq 5522   1.521   3.537   3.017
    1MUSC O00ur 5523   1.614   3.569   1.454
    1MUSC O00us 5524   1.220   3.221   3.247
    1MUSC O00ut 5525   1.572   3.569   2.243
    1MUSC O00uu 5526   1.783   3.221   2.458
    1MUSC O00uv 5527   1.619   2.938   2.243
    1MUSC O00uw 5528   1.736   2.946   2.458
    1MUSC O00ux 5529   1.567   2.938   1.454
    1MUSC O00uy 5530   1.267   2.946   3.247
    1MUSC O00uz 5531   1.874   2.758   1.446
    1MUSC O00v0 5532   1.480   3.126   3.255
    1MUSC O00v1 5533   1.312   2.758   2.252
    1MUSC O00v2 5534   1.523   3.126   2.449
    1MUSC O00v3 5535   1.734   3.007   1.665
    1MUSC O00v4 5536   1.620   2.877   3.036
    1MUSC O00v5 5537   1.452   3.007   2.032
    1MUSC O00v6 5538   1.383   2.877   2.669
    1MUSC O00v7 5539   1.713   3.044   2.013
    1MUSC O00v8 5540   1.642   2.840   2.688
    1MUSC O00v9 5541   1.473   3.044   1.685
    1MUSC O00vA 5542   1.361   2.840   3.016
    1MUSC O00vB 5543   1.613   2.800   2.013
    1MUSC O00vC 5544   1.742   3.084   2.688
    1MUSC O00vD 5545   1.573   2.800   1.684
    1MUSC O00vE 5546   1.261   3.084   3.017
    1MUSC O00vF 5547   1.874   3.116   1.454
    1MUSC O00vG 5548   1.480   2.768   3.247
    1MUSC O00vH 5549   1.311   3.116   2.243
    1MUSC O00vI 5550   1.523   2.768   2.458
    1MUSC K003b 5551   1.424   4.436   0.845
    1MUSC K003c 5552   1.684   3.983   0.845
    1MUSC Al09Z 5553   1.603   4.147   0.343
    1MUSC Al09a 5554   1.597   4.453   0.344
    1MUSC Al09b 5555   1.949   4.147   3.355
    1MUSC Al09c 5556   1.772   4.453   1.346
    1MUSC Al09d 5557   1.864   3.695   0.343
    1MUSC Al09e 5558   1.857   4.000   0.344
    1MUSC Al09f 5559   1.688   3.695   3.355
    1MUSC Al09g 5560   1.512   4.000   1.346
    1MUSC Si0J7 5561   1.779   4.462   3.621
    1MUSC Si0J8 5562   1.421   4.138   1.080
    1MUSC Si0J9 5563   1.773   4.462   0.077
    1MUSC Si0JA 5564   1.948   4.138   0.610
    1MUSC Si0JB 5565   1.520   4.307   0.077
    1MUSC Si0JC 5566   1.681   4.293   0.610
    1MUSC Si0JD 5567   2.032   4.307   3.620
    1MUSC Si0JE 5568   1.688   4.293   1.081
    1MUSC Si0JF 5569   2.039   4.010   3.621
    1MUSC Si0JG 5570   1.681   3.685   1.080
    1MUSC Si0JH 5571   1.513   4.010   0.077
    1MUSC Si0JI 5572   1.688   3.685   0.610
    1MUSC Si0JJ 5573   1.780   3.855   0.077
    1MUSC Si0JK 5574   1.941   3.840   0.610
    1MUSC Si0JL 5575   1.772   3.855   3.620
    1MUSC Si0JM 5576   1.428   3.840   1.081
    1MUSC O00vJ 5577   1.542   4.296   0.236
    1MUSC O00vK 5578   1.658   4.304   0.451
    1MUSC O00vL 5579   2.010   4.296   3.461
    1MUSC O00vM 5580   1.710   4.304   1.240
    1MUSC O00vN 5581   1.797   4.116   3.453
    1MUSC O00vO 5582   1.403   4.484   1.248
    1MUSC O00vP 5583   1.755   4.116   0.245
    1MUSC O00vQ 5584   1.966   4.484   0.442
    1MUSC O00vR 5585   1.657   4.365   3.672
    1MUSC O00vS 5586   1.543   4.235   1.029
    1MUSC O00vT 5587   1.895   4.365   0.025
    1MUSC O00vU 5588   1.826   4.235   0.662
    1MUSC O00vV 5589   1.636   4.402   0.006
    1MUSC O00vW 5590   1.565   4.198   0.681
    1MUSC O00vX 5591   1.916   4.402   3.692
    1MUSC O00vY 5592   1.804   4.198   1.009
    1MUSC O00vZ 5593   1.536   4.158   0.006
    1MUSC O00va 5594   1.664   4.442   0.681
    1MUSC O00vb 5595   2.016   4.158   3.691
    1MUSC O00vc 5596   1.704   4.442   1.010
    1MUSC O00vd 5597   1.797   4.474   3.461
    1MUSC O00ve 5598   1.403   4.126   1.240
    1MUSC O00vf 5599   1.755   4.474   0.236
    1MUSC O00vg 5600   1.966   4.126   0.451
    1MUSC O00vh 5601   1.802   3.843   0.236
    1MUSC O00vi 5602   1.919   3.852   0.451
    1MUSC O00vj 5603   1.750   3.843   3.461
    1MUSC O00vk 5604   1.450   3.852   1.240
    1MUSC O00vl 5605   2.057   3.663   3.453
    1MUSC O00vm 5606   1.663   4.031   1.248
    1MUSC O00vn 5607   1.495   3.663   0.245
    1MUSC O00vo 5608   1.706   4.031   0.442
    1MUSC O00vp 5609   1.917   3.912   3.672
    1MUSC O00vq 5610   1.803   3.783   1.029
    1MUSC O00vr 5611   1.635   3.912   0.025
    1MUSC O00vs 5612   1.566   3.783   0.662
    1MUSC O00vt 5613   1.896   3.949   0.006
    1MUSC O00vu 5614   1.825   3.746   0.681
    1MUSC O00vv 5615   1.656   3.949   3.692
    1MUSC O00vw 5616   1.544   3.746   1.009
    1MUSC O00vx 5617   1.796   3.705   0.006
    1MUSC O00vy 5618   1.925   3.989   0.681
    1MUSC O00vz 5619   1.756   3.705   3.691
    1MUSC O00w0 5620   1.444   3.989   1.010
    1MUSC O00w1 5621   2.057   4.021   3.461
    1MUSC O00w2 5622   1.663   3.673   1.240
    1MUSC O00w3 5623   1.494   4.021   0.236
    1MUSC O00w4 5624   1.706   3.673   0.451
    1MUSC K003d 5625   1.593   4.164   1.849
    1MUSC K003e 5626   1.241   4.436   2.852
    1MUSC K003f 5627   1.333   3.711   1.849
    1MUSC K003g 5628   1.501   3.983   2.852
    1MUSC Al09h 5629   1.420   4.147   2.350
    1MUSC Al09i 5630   1.414   4.453   2.351
    1MUSC Al09j 5631   1.766   4.147   1.348
    1MUSC Al09k 5632   1.589   4.453   3.353
    1MUSC Al09l 5633   1.681   3.695   2.350
    1MUSC Al09m 5634   1.674   4.000   2.351
    1MUSC Al09n 5635   1.505   3.695   1.348
    1MUSC Al09o 5636   1.329   4.000   3.353
    1MUSC Si0JN 5637   1.596   4.462   1.614
    1MUSC Si0JO 5638   1.238   4.138   3.087
    1MUSC Si0JP 5639   1.590   4.462   2.084
    1MUSC Si0JQ 5640   1.765   4.138   2.617
    1MUSC Si0JR 5641   1.337   4.307   2.084
    1MUSC Si0JS 5642   1.498   4.293   2.617
    1MUSC Si0JT 5643   1.849   4.307   1.613
    1MUSC Si0JU 5644   1.505   4.293   3.088
    1MUSC Si0JV 5645   1.856   4.010   1.614
    1MUSC Si0JW 5646   1.498   3.685   3.087
    1MUSC Si0JX 5647   1.330   4.010   2.084
    1MUSC Si0JY 5648   1.505   3.685   2.617
    1MUSC Si0JZ 5649   1.597   3.855   2.084
    1MUSC Si0Ja 5650   1.758   3.840   2.617
    1MUSC Si0Jb 5651   1.589   3.855   1.613
    1MUSC Si0Jc 5652   1.245   3.840   3.088
    1MUSC O00w5 5653   1.359   4.296   2.243
    1MUSC O00w6 5654   1.475   4.304   2.458
    1MUSC O00w7 5655   1.827   4.296   1.454
    1MUSC O00w8 5656   1.527   4.304   3.247
    1MUSC O00w9 5657   1.614   4.116   1.446
    1MUSC O00wA 5658   1.220   4.484   3.255
    1MUSC O00wB 5659   1.572   4.116   2.252
    1MUSC O00wC 5660   1.783   4.484   2.449
    1MUSC O00wD 5661   1.474   4.365   1.665
    1MUSC O00wE 5662   1.360   4.235   3.036
    1MUSC O00wF 5663   1.712   4.365   2.032
    1MUSC O00wG 5664   1.643   4.235   2.669
    1MUSC O00wH 5665   1.453   4.402   2.013
    1MUSC O00wI 5666   1.382   4.198   2.688
    1MUSC O00wJ 5667   1.733   4.402   1.685
    1MUSC O00wK 5668   1.621   4.198   3.016
    1MUSC O00wL 5669   1.353   4.158   2.013
    1MUSC O00wM 5670   1.481   4.442   2.688
    1MUSC O00wN 5671   1.833   4.158   1.684
    1MUSC O00wO 5672   1.521   4.442   3.017
    1MUSC O00wP 5673   1.614   4.474   1.454
    1MUSC O00wQ 5674   1.220   4.126   3.247
    1MUSC O00wR 5675   1.572   4.474   2.243
    1MUSC O00wS 5676   1.783   4.126   2.458
    1MUSC O00wT 5677   1.619   3.843   2.243
    1MUSC O00wU 5678   1.736   3.852   2.458
    1MUSC O00wV 5679   1.567   3.843   1.454
    1MUSC O00wW 5680   1.267   3.852   3.247
    1MUSC O00wX 5681   1.874   3.663   1.446
    1MUSC O00wY 5682   1.480   4.031   3.255
    1MUSC O00wZ 5683   1.312   3.663   2.252
    1MUSC O00wa 5684   1.523   4.031   2.449
    1MUSC O00wb 5685   1.734   3.912   1.665
    1MUSC O00wc 5686   1.620   3.783   3.036
    1MUSC O00wd 5687   1.452   3.912   2.032
    1MUSC O00we 5688   1.383   3.783   2.669
    1MUSC O00wf 5689   1.713   3.949   2.013
    1MUSC O00wg 5690   1.642   3.746   2.688
    1MUSC O00wh 5691   1.473   3.949   1.685
    1MUSC O00wi 5692   1.361   3.746   3.016
    1MUSC O00wj 5693   1.613   3.705   2.013
    1MUSC O00wk 5694   1.742   3.989   2.688
    1MUSC O00wl 5695   1.573   3.705   1.684
    1MUSC O00wm 5696   1.261   3.989   3.017
    1MUSC O00wn 5697   1.874   4.021   1.454
    1MUSC O00wo 5698   1.480   3.673   3.247
    1MUSC O00wp 5699   1.311   4.021   2.243
    1MUSC O00wq 5700   1.523   3.673   2.458
    1MUSC K003h 5701   1.424   5.341   0.845
    1MUSC K003i 5702   1.684   4.889   0.845
    1MUSC Al09p 5703   1.603   5.053   0.343
    1MUSC Al09q 5704   1.597   5.358   0.344
    1MUSC Al09r 5705   1.949   5.053   3.355
    1MUSC Al09s 5706   1.772   5.358   1.346
    1MUSC Al09t 5707   1.864   4.600   0.343
    1MUSC Al09u 5708   1.857   4.905   0.344
    1MUSC Al09v 5709   1.688   4.600   3.355
    1MUSC Al09w 5710   1.512   4.905   1.346
    1MUSC Si0Jd 5711   1.779   5.368   3.621
    1MUSC Si0Je 5712   1.421   5.043   1.080
    1MUSC Si0Jf 5713   1.773   5.368   0.077
    1MUSC Si0Jg 5714   1.948   5.043   0.610
    1MUSC Si0Jh 5715   1.520   5.212   0.077
    1MUSC Si0Ji 5716   1.681   5.198   0.610
    1MUSC Si0Jj 5717   2.032   5.212   3.620
    1MUSC Si0Jk 5718   1.688   5.198   1.081
    1MUSC Si0Jl 5719   2.039   4.915   3.621
    1MUSC Si0Jm 5720   1.681   4.590   1.080
    1MUSC Si0Jn 5721   1.513   4.915   0.077
    1MUSC Si0Jo 5722   1.688   4.590   0.610
    1MUSC Si0Jp 5723   1.780   4.760   0.077
    1MUSC Si0Jq 5724   1.941   4.746   0.610
    1MUSC Si0Jr 5725   1.772   4.760   3.620
    1MUSC Si0Js 5726   1.428   4.746   1.081
    1MUSC O00wr 5727   1.542   5.201   0.236
    1MUSC O00ws 5728   1.658   5.209   0.451
    1MUSC O00wt 5729   2.010   5.201   3.461
    1MUSC O00wu 5730   1.710   5.209   1.240
    1MUSC O00wv 5731   1.797   5.021   3.453
    1MUSC O00ww 5732   1.403   5.389   1.248
    1MUSC O00wx 5733   1.755   5.021   0.245
    1MUSC O00wy 5734   1.966   5.389   0.442
    1MUSC O00wz 5735   1.657   5.270   3.672
    1MUSC O00x0 5736   1.543   5.141   1.029
    1MUSC O00x1 5737   1.895   5.270   0.025
    1MUSC O00x2 5738   1.826   5.141   0.662
    1MUSC O00x3 5739   1.636   5.307   0.006
    1MUSC O00x4 5740   1.565   5.104   0.681
    1MUSC O00x5 5741   1.916   5.307   3.692
    1MUSC O00x6 5742   1.804   5.104   1.009
    1MUSC O00x7 5743   1.536   5.063   0.006
    1MUSC O00x8 5744   1.664   5.347   0.681
    1MUSC O00x9 5745   2.016   5.063   3.691
    1MUSC O00xA 5746   1.704   5.347   1.010
    1MUSC O00xB 5747   1.797   5.379   3.461
    1MUSC O00xC 5748   1.403   5.031   1.240
    1MUSC O00xD 5749   1.755   5.379   0.236
    1MUSC O00xE 5750   1.966   5.031   0.451
    1MUSC O00xF 5751   1.802   4.749   0.236
    1MUSC O00xG 5752   1.919   4.757   0.451
    1MUSC O00xH 5753   1.750   4.749   3.461
    1MUSC O00xI 5754   1.450   4.757   1.240
    1MUSC O00xJ 5755   2.057   4.569   3.453
    1MUSC O00xK 5756   1.663   4.937   1.248
    1MUSC O00xL 5757   1.495   4.569   0.245
    1MUSC O00xM 5758   1.706   4.937   0.442
    1MUSC O00xN 5759   1.917   4.817   3.672
    1MUSC O00xO 5760   1.803   4.688   1.029
    1MUSC O00xP 5761   1.635   4.817   0.025
    1MUSC O00xQ 5762   1.566   4.688   0.662
    1MUSC O00xR 5763   1.896   4.854   0.006
    1MUSC O00xS 5764   1.825   4.651   0.681
    1MUSC O00xT 5765   1.656   4.854   3.692
    1MUSC O00xU 5766   1.544   4.651   1.009
    1MUSC O00xV 5767   1.796   4.611   0.006
    1MUSC O00xW 5768   1.925   4.895   0.681
    1MUSC O00xX 5769   1.756   4.611   3.691
    1MUSC O00xY 5770   1.444   4.895   1.010
    1MUSC O00xZ 5771   2.057   4.927   3.461
    1MUSC O00xa 5772   1.663   4.579   1.240
    1MUSC O00xb 5773   1.494   4.927   0.236
    1MUSC O00xc 5774   1.706   4.579   0.451
    1MUSC K003j 5775   1.593   5.069   1.849
    1MUSC K003k 5776   1.241   5.341   2.852
    1MUSC K003l 5777   1.333   4.617   1.849
    1MUSC K003m 5778   1.501   4.889   2.852
    1MUSC Al09x 5779   1.420   5.053   2.350
    1MUSC Al09y 5780   1.414   5.358   2.351
    1MUSC Al09z 5781   1.766   5.053   1.348
    1MUSC Al0A0 5782   1.589   5.358   3.353
    1MUSC Al0A1 5783   1.681   4.600   2.350
    1MUSC Al0A2 5784   1.674   4.905   2.351
    1MUSC Al0A3 5785   1.505   4.600   1.348
    1MUSC Al0A4 5786   1.329   4.905   3.353
    1MUSC Si0Jt 5787   1.596   5.368   1.614
    1MUSC Si0Ju 5788   1.238   5.043   3.087
    1MUSC Si0Jv 5789   1.590   5.368   2.084
    1MUSC Si0Jw 5790   1.765   5.043   2.617
    1MUSC Si0Jx 5791   1.337   5.212   2.084
    1MUSC Si0Jy 5792   1.498   5.198   2.617
    1MUSC Si0Jz 5793   1.849   5.212   1.613
    1MUSC Si0K0 5794   1.505   5.198   3.088
    1MUSC Si0K1 5795   1.856   4.915   1.614
    1MUSC Si0K2 5796   1.498   4.590   3.087
    1MUSC Si0K3 5797   1.330   4.915   2.084
    1MUSC Si0K4 5798   1.505   4.590   2.617
    1MUSC Si0K5 5799   1.597   4.760   2.084
    1MUSC Si0K6 5800   1.758   4.746   2.617
    1MUSC Si0K7 5801   1.589   4.760   1.613
    1MUSC Si0K8 5802   1.245   4.746   3.088
    1MUSC O00xd 5803   1.359   5.201   2.243
    1MUSC O00xe 5804   1.475   5.209   2.458
    1MUSC O00xf 5805   1.827   5.201   1.454
    1MUSC O00xg 5806   1.527   5.209   3.247
    1MUSC O00xh 5807   1.614   5.021   1.446
    1MUSC O00xi 5808   1.220   5.389   3.255
    1MUSC O00xj 5809   1.572   5.021   2.252
    1MUSC O00xk 5810   1.783   5.389   2.449
    1MUSC O00xl 5811   1.474   5.270   1.665
    1MUSC O00xm 5812   1.360   5.141   3.036
    1MUSC O00xn 5813   1.712   5.270   2.032
    1MUSC O00xo 5814   1.643   5.141   2.669
    1MUSC O00xp 5815   1.453   5.307   2.013
    1MUSC O00xq 5816   1.382   5.104   2.688
    1MUSC O00xr 5817   1.733   5.307   1.685
    1MUSC O00xs 5818   1.621   5.104   3.016
    1MUSC O00xt 5819   1.353   5.063   2.013
    1MUSC O00xu 5820   1.481   5.347   2.688
    1MUSC O00xv 5821   1.833   5.063   1.684
    1MUSC O00xw 5822   1.521   5.347   3.017
    1MUSC O00xx 5823   1.614   5.379   1.454
    1MUSC O00xy 5824   1.220   5.031   3.247
    1MUSC O00xz 5825   1.572   5.379   2.243
    1MUSC O00y0 5826   1.783   5.031   2.458
    1MUSC O00y1 5827   1.619   4.749   2.243
    1MUSC O00y2 5828   1.736   4.757   2.458
    1MUSC O00y3 5829   1.567   4.749   1.454
    1MUSC O00y4 5830   1.267   4.757   3.247
    1MUSC O00y5 5831   1.874   4.569   1.446
    1MUSC O00y6 5832   1.480   4.937   3.255
    1MUSC O00y7 5833   1.312   4.569   2.252
    1MUSC O00y8 5834   1.523   4.937   2.449
    1MUSC O00y9 5835   1.734   4.817   1.665
    1MUSC O00yA 5836   1.620   4.688   3.036
    1MUSC O00yB 5837   1.452   4.817   2.032
    1MUSC O00yC 5838   1.383   4.688   2.669
    1MUSC O00yD 5839   1.713   4.854   2.013
    1MUSC O00yE 5840   1.642   4.651   2.688
    1MUSC O00yF 5841   1.473   4.854   1.685
    1MUSC O00yG 5842   1.361   4.651   3.016
    1MUSC O00yH 5843   1.613   4.611   2.013
    1MUSC O00yI 5844   1.742   4.895   2.688
    1MUSC O00yJ 5845   1.573   4.611   1.684
    1MUSC O00yK 5846   1.261   4.895   3.017
    1MUSC O00yL 5847   1.874   4.927   1.454
    1MUSC O00yM 5848   1.480   4.579   3.247
    1MUSC O00yN 5849   1.311   4.927   2.243
    1MUSC O00yO 5850   1.523   4.579   2.458
    1MUSC K003n 5851   1.424   6.247   0.845
    1MUSC K003o 5852   1.684   5.794   0.845
    1MUSC Al0A5 5853   1.603   5.958   0.343
    1MUSC Al0A6 5854   1.597   6.263   0.344
    1MUSC Al0A7 5855   1.949   5.958   3.355
    1MUSC Al0A8 5856   1.772   6.263   1.346
    1MUSC Al0A9 5857   1.864   5.505   0.343
    1MUSC Al0AA 5858   1.857   5.810   0.344
    1MUSC Al0AB 5859   1.688   5.505   3.355
    1MUSC Al0AC 5860   1.512   5.810   1.346
    1MUSC Si0K9 5861   1.779   6.273   3.621
    1MUSC Si0KA 5862   1.421   5.948   1.080
    1MUSC Si0KB 5863   1.773   6.273   0.077
    1MUSC Si0KC 5864   1.948   5.948   0.610
    1MUSC Si0KD 5865   1.520   6.118   0.077
    1MUSC Si0KE 5866   1.681   6.103   0.610
    1MUSC Si0KF 5867   2.032   6.118   3.620
    1MUSC Si0KG 5868   1.688   6.103   1.081
    1MUSC Si0KH 5869   2.039   5.820   3.621
    1MUSC Si0KI 5870   1.681   5.495   1.080
    1MUSC Si0KJ 5871   1.513   5.820   0.077
    1MUSC Si0KK 5872   1.688   5.495   0.610
    1MUSC Si0KL 5873   1.780   5.665   0.077
    1MUSC Si0KM 5874   1.941   5.651   0.610
    1MUSC Si0KN 5875   1.772   5.665   3.620
    1MUSC Si0KO 5876   1.428   5.651   1.081
    1MUSC O00yP 5877   1.542   6.106   0.236
    1MUSC O00yQ 5878   1.658   6.115   0.451
    1MUSC O00yR 5879   2.010   6.106   3.461
    1MUSC O00yS 5880   1.710   6.115   1.240
    1MUSC O00yT 5881   1.797   5.927   3.453
    1MUSC O00yU 5882   1.403   6.295   1.248
    1MUSC O00yV 5883   1.755   5.927   0.245
    1MUSC O00yW 5884   1.966   6.295   0.442
    1MUSC O00yX 5885   1.657   6.175   3.672
    1MUSC O00yY 5886   1.543   6.046   1.029
    1MUSC O00yZ 5887   1.895   6.175   0.025
    1MUSC O00ya 5888   1.826   6.046   0.662
    1MUSC O00yb 5889   1.636   6.212   0.006
    1MUSC O00yc 5890   1.565   6.009   0.681
    1MUSC O00yd 5891   1.916   6.212   3.692
    1MUSC O00ye 5892   1.804   6.009   1.009
    1MUSC O00yf 5893   1.536   5.969   0.006
    1MUSC O00yg 5894   1.664   6.253   0.681
    1MUSC O00yh 5895   2.016   5.969   3.691
    1MUSC O00yi 5896   1.704   6.253   1.010
    1MUSC O00yj 5897   1.797   6.285   3.461
    1MUSC O00yk 5898   1.403   5.937   1.240
    1MUSC O00yl 5899   1.755   6.285   0.236
    1MUSC O00ym 5900   1.966   5.937   0.451
    1MUSC O00yn 5901   1.802   5.654   0.236
    1MUSC O00yo 5902   1.919   5.662   0.451
    1MUSC O00yp 5903   1.750   5.654   3.461
    1MUSC O00yq 5904   1.450   5.662   1.240
    1MUSC O00yr 5905   2.057   5.474   3.453
    1MUSC O00ys 5906   1.663   5.842   1.248
    1MUSC O00yt 5907   1.495   5.474   0.245
    1MUSC O00yu 5908   1.706   5.842   0.442
    1MUSC O00yv 5909   1.917   5.723   3.672
    1MUSC O00yw 5910   1.803   5.593   1.029
    1MUSC O00yx 5911   1.635   5.723   0.025
    1MUSC O00yy 5912   1.566   5.593   0.662
    1MUSC O00yz 5913   1.896   5.760   0.006
    1MUSC O00z0 5914   1.825   5.556   0.681
    1MUSC O00z1 5915   1.656   5.760   3.692
    1MUSC O00z2 5916   1.544   5.556   1.009
    1MUSC O00z3 5917   1.796   5.516   0.006
    1MUSC O00z4 5918   1.925   5.800   0.681
    1MUSC O00z5 5919   1.756   5.516   3.691
    1MUSC O00z6 5920   1.444   5.800   1.010
    1MUSC O00z7 5921   2.057   5.832   3.461
    1MUSC O00z8 5922   1.663   5.484   1.240
    1MUSC O00z9 5923   1.494   5.832   0.236
    1MUSC O00zA 5924   1.706   5.484   0.451
    1MUSC K003p 5925   1.593   5.975   1.849
    1MUSC K003q 5926   1.241   6.247   2.852
    1MUSC K003r 5927   1.333   5.522   1.849
    1MUSC K003s 5928   1.501   5.794   2.852
    1MUSC Al0AD 5929   1.420   5.958   2.350
    1MUSC Al0AE 5930   1.414   6.263   2.351
    1MUSC Al0AF 5931   1.766   5.958   1.348
    1MUSC Al0AG 5932   1.589   6.263   3.353
    1MUSC Al0AH 5933   1.681   5.505   2.350
    1MUSC Al0AI 5934   1.674   5.810   2.351
    1MUSC Al0AJ 5935   1.505   5.505   1.348
    1MUSC Al0AK 5936   1.329   5.810   3.353
    1MUSC Si0KP 5937   1.596   6.273   1.614
    1MUSC Si0KQ 5938   1.238   5.948   3.087
    1MUSC Si0KR 5939   1.590   6.273   2.084
    1MUSC Si0KS 5940   1.765   5.948   2.617
    1MUSC Si0KT 5941   1.337   6.118   2.084
    1MUSC Si0KU 5942   1.498   6.103   2.617
    1MUSC Si0KV 5943   1.849   6.118   1.613
    1MUSC Si0KW 5944   1.505   6.103   3.088
    1MUSC Si0KX 5945   1.856   5.820   1.614
    1MUSC Si0KY 5946   1.498   5.495   3.087
    1MUSC Si0KZ 5947   1.330   5.820   2.084
    1MUSC Si0Ka 5948   1.505   5.495   2.617
    1MUSC Si0Kb 5949   1.597   5.665   2.084
    1MUSC Si0Kc 5950   1.758   5.651   2.617
    1MUSC Si0Kd 5951   1.589   5.665   1.613
    1MUSC Si0Ke 5952   1.245   5.651   3.088
    1MUSC O00zB 5953   1.359   6.106   2.243
    1MUSC O00zC 5954   1.475   6.115   2.458
    1MUSC O00zD 5955   1.827   6.106   1.454
    1MUSC O00zE 5956   1.527   6.115   3.247
    1MUSC O00zF 5957   1.614   5.927   1.446
    1MUSC O00zG 5958   1.220   6.295   3.255
    1MUSC O00zH 5959   1.572   5.927   2.252
    1MUSC O00zI 5960   1.783   6.295   2.449
    1MUSC O00zJ 5961   1.474   6.175   1.665
    1MUSC O00zK 5962   1.360   6.046   3.036
    1MUSC O00zL 5963   1.712   6.175   2.032
    1MUSC O00zM 5964   1.643   6.046   2.669
    1MUSC O00zN 5965   1.453   6.212   2.013
    1MUSC O00zO 5966   1.382   6.009   2.688
    1MUSC O00zP 5967   1.733   6.212   1.685
    1MUSC O00zQ 5968   1.621   6.009   3.016
    1MUSC O00zR 5969   1.353   5.969   2.013
    1MUSC O00zS 5970   1.481   6.253   2.688
    1MUSC O00zT 5971   1.833   5.969   1.684
    1MUSC O00zU 5972   1.521   6.253   3.017
    1MUSC O00zV 5973   1.614   6.285   1.454
    1MUSC O00zW 5974   1.220   5.937   3.247
    1MUSC O00zX 5975   1.572   6.285   2.243
    1MUSC O00zY 5976   1.783   5.937   2.458
    1MUSC O00zZ 5977   1.619   5.654   2.243
    1MUSC O00za 5978   1.736   5.662   2.458
    1MUSC O00zb 5979   1.567   5.654   1.454
    1MUSC O00zc 5980   1.267   5.662   3.247
    1MUSC O00zd 5981   1.874   5.474   1.446
    1MUSC O00ze 5982   1.480   5.842   3.255
    1MUSC O00zf 5983   1.312   5.474   2.252
    1MUSC O00zg 5984   1.523   5.842   2.449
    1MUSC O00zh 5985   1.734   5.723   1.665
    1MUSC O00zi 5986   1.620   5.593   3.036
    1MUSC O00zj 5987   1.452   5.723   2.032
    1MUSC O00zk 5988   1.383   5.593   2.669
    1MUSC O00zl 5989   1.713   5.760   2.013
    1MUSC O00zm 5990   1.642   5.556   2.688
    1MUSC O00zn 5991   1.473   5.760   1.685
    1MUSC O00zo 5992   1.361   5.556   3.016
    1MUSC O00zp 5993   1.613   5.516   2.013
    1MUSC O00zq 5994   1.742   5.800   2.688
    1MUSC O00zr 5995   1.573   5.516   1.684
    1MUSC O00zs 5996   1.261   5.800   3.017
    1MUSC O00zt 5997   1.874   5.832   1.454
    1MUSC O00zu 5998   1.480   5.484   3.247
    1MUSC O00zv 5999   1.311   5.832   2.243
    1MUSC O00zw 6000   1.523   5.484   2.458
    1MUSC K003t 6001   1.424   7.152   0.845
    1MUSC K003u 6002   1.684   6.699   0.845
    1MUSC Al0AL 6003   1.603   6.863   0.343
    1MUSC Al0AM 6004   1.597   7.168   0.344
    1MUSC Al0AN 6005   1.949   6.863   3.355
    1MUSC Al0AO 6006   1.772   7.168   1.346
    1MUSC Al0AP 6007   1.864   6.411   0.343
    1MUSC Al0AQ 6008   1.857   6.716   0.344
    1MUSC Al0AR 6009   1.688   6.411   3.355
    1MUSC Al0AS 6010   1.512   6.716   1.346
    1MUSC Si0Kf 6011   1.779   7.178   3.621
    1MUSC Si0Kg 6012   1.421   6.853   1.080
    1MUSC Si0Kh 6013   1.773   7.178   0.077
    1MUSC Si0Ki 6014   1.948   6.853   0.610
    1MUSC Si0Kj 6015   1.520   7.023   0.077
    1MUSC Si0Kk 6016   1.681   7.009   0.610
    1MUSC Si0Kl 6017   2.032   7.023   3.620
    1MUSC Si0Km 6018   1.688   7.009   1.081
    1MUSC Si0Kn 6019   2.039   6.726   3.621
    1MUSC Si0Ko 6020   1.681   6.401   1.080
    1MUSC Si0Kp 6021   1.513   6.726   0.077
    1MUSC Si0Kq 6022   1.688   6.401   0.610
    1MUSC Si0Kr 6023   1.780   6.570   0.077
    1MUSC Si0Ks 6024   1.941   6.556   0.610
    1MUSC Si0Kt 6025   1.772   6.570   3.620
    1MUSC Si0Ku 6026   1.428   6.556   1.081
    1MUSC O00zx 6027   1.542   7.012   0.236
    1MUSC O00zy 6028   1.658   7.020   0.451
    1MUSC O00zz 6029   2.010   7.012   3.461
    1MUSC O0100 6030   1.710   7.020   1.240
    1MUSC O0101 6031   1.797   6.832   3.453
    1MUSC O0102 6032   1.403   7.200   1.248
    1MUSC O0103 6033   1.755   6.832   0.245
    1MUSC O0104 6034   1.966   7.200   0.442
    1MUSC O0105 6035   1.657   7.080   3.672
    1MUSC O0106 6036   1.543   6.951   1.029
    1MUSC O0107 6037   1.895   7.080   0.025
    1MUSC O0108 6038   1.826   6.951   0.662
    1MUSC O0109 6039   1.636   7.117   0.006
    1MUSC O010A 6040   1.565   6.914   0.681
    1MUSC O010B 6041   1.916   7.117   3.692
    1MUSC O010C 6042   1.804   6.914   1.009
    1MUSC O010D 6043   1.536   6.874   0.006
    1MUSC O010E 6044   1.664   7.158   0.681
    1MUSC O010F 6045   2.016   6.874   3.691
    1MUSC O010G 6046   1.704   7.158   1.010
    1MUSC O010H 6047   1.797   7.190   3.461
    1MUSC O010I 6048   1.403   6.842   1.240
    1MUSC O010J 6049   1.755   7.190   0.236
    1MUSC O010K 6050   1.966   6.842   0.451
    1MUSC O010L 6051   1.802   6.559   0.236
    1MUSC O010M 6052   1.919   6.567   0.451
    1MUSC O010N 6053   1.750   6.559   3.461
    1MUSC O010O 6054   1.450   6.567   1.240
    1MUSC O010P 6055   2.057   6.379   3.453
    1MUSC O010Q 6056   1.663   6.747   1.248
    1MUSC O010R 6057   1.495   6.379   0.245
    1MUSC O010S 6058   1.706   6.747   0.442
    1MUSC O010T 6059   1.917   6.628   3.672
    1MUSC O010U 6060   1.803   6.499   1.029
    1MUSC O010V 6061   1.635   6.628   0.025
    1MUSC O010W 6062   1.566   6.499   0.662
    1MUSC O010X 6063   1.896   6.665   0.006
    1MUSC O010Y 6064   1.825   6.462   0.681
    1MUSC O010Z 6065   1.656   6.665   3.692
    1MUSC O010a 6066   1.544   6.462   1.009
    1MUSC O010b 6067   1.796   6.421   0.006
    1MUSC O010c 6068   1.925   6.705   0.681
    1MUSC O010d 6069   1.756   6.421   3.691
    1MUSC O010e 6070   1.444   6.705   1.010
    1MUSC O010f 6071   2.057   6.737   3.461
    1MUSC O010g 6072   1.663   6.389   1.240
    1MUSC O010h 6073   1.494   6.737   0.236
    1MUSC O010i 6074   1.706   6.389   0.451
    1MUSC K003v 6075   1.593   6.880   1.849
    1MUSC K003w 6076   1.241   7.152   2.852
    1MUSC K003x 6077   1.333   6.427   1.849
    1MUSC K003y 6078   1.501   6.699   2.852
    1MUSC Al0AT 6079   1.420   6.863   2.350
    1MUSC Al0AU 6080   1.414   7.168   2.351
    1MUSC Al0AV 6081   1.766   6.863   1.348
    1MUSC Al0AW 6082   1.589   7.168   3.353
    1MUSC Al0AX 6083   1.681   6.411   2.350
    1MUSC Al0AY 6084   1.674   6.716   2.351
    1MUSC Al0AZ 6085   1.505   6.411   1.348
    1MUSC Al0Aa 6086   1.329   6.716   3.353
    1MUSC Si0Kv 6087   1.596   7.178   1.614
    1MUSC Si0Kw 6088   1.238   6.853   3.087
    1MUSC Si0Kx 6089   1.590   7.178   2.084
    1MUSC Si0Ky 6090   1.765   6.853   2.617
    1MUSC Si0Kz 6091   1.337   7.023   2.084
    1MUSC Si0L0 6092   1.498   7.009   2.617
    1MUSC Si0L1 6093   1.849   7.023   1.613
    1MUSC Si0L2 6094   1.505   7.009   3.088
    1MUSC Si0L3 6095   1.856   6.726   1.614
    1MUSC Si0L4 6096   1.498   6.401   3.087
    1MUSC Si0L5 6097   1.330   6.726   2.084
    1MUSC Si0L6 6098   1.505   6.401   2.617
    1MUSC Si0L7 6099   1.597   6.570   2.084
    1MUSC Si0L8 6100   1.758   6.556   2.617
    1MUSC Si0L9 6101   1.589   6.570   1.613
    1MUSC Si0LA 6102   1.245   6.556   3.088
    1MUSC O010j 6103   1.359   7.012   2.243
    1MUSC O010k 6104   1.475   7.020   2.458
    1MUSC O010l 6105   1.827   7.012   1.454
    1MUSC O010m 6106   1.527   7.020   3.247
    1MUSC O010n 6107   1.614   6.832   1.446
    1MUSC O010o 6108   1.220   7.200   3.255
    1MUSC O010p 6109   1.572   6.832   2.252
    1MUSC O010q 6110   1.783   7.200   2.449
    1MUSC O010r 6111   1.474   7.080   1.665
    1MUSC O010s 6112   1.360   6.951   3.036
    1MUSC O010t 6113   1.712   7.080   2.032
    1MUSC O010u 6114   1.643   6.951   2.669
    1MUSC O010v 6115   1.453   7.117   2.013
    1MUSC O010w 6116   1.382   6.914   2.688
    1MUSC O010x 6117   1.733   7.117   1.685
    1MUSC O010y 6118   1.621   6.914   3.016
    1MUSC O010z 6119   1.353   6.874   2.013
    1MUSC O0110 6120   1.481   7.158   2.688
    1MUSC O0111 6121   1.833   6.874   1.684
    1MUSC O0112 6122   1.521   7.158   3.017
    1MUSC O0113 6123   1.614   7.190   1.454
    1MUSC O0114 6124   1.220   6.842   3.247
    1MUSC O0115 6125   1.572   7.190   2.243
    1MUSC O0116 6126   1.783   6.842   2.458
    1MUSC O0117 6127   1.619   6.559   2.243
    1MUSC O0118 6128   1.736   6.567   2.458
    1MUSC O0119 6129   1.567   6.559   1.454
    1MUSC O011A 6130   1.267   6.567   3.247
    1MUSC O011B 6131   1.874   6.379   1.446
    1MUSC O011C 6132   1.480   6.747   3.255
    1MUSC O011D 6133   1.312   6.379   2.252
    1MUSC O011E 6134   1.523   6.747   2.449
    1MUSC O011F 6135   1.734   6.628   1.665
    1MUSC O011G 6136   1.620   6.499   3.036
    1MUSC O011H 6137   1.452   6.628   2.032
    1MUSC O011I 6138   1.383   6.499   2.669
    1MUSC O011J 6139   1.713   6.665   2.013
    1MUSC O011K 6140   1.642   6.462   2.688
    1MUSC O011L 6141   1.473   6.665   1.685
    1MUSC O011M 6142   1.361   6.462   3.016
    1MUSC O011N 6143   1.613   6.421   2.013
    1MUSC O011O 6144   1.742   6.705   2.688
    1MUSC O011P 6145   1.573   6.421   1.684
    1MUSC O011Q 6146   1.261   6.705   3.017
    1MUSC O011R 6147   1.874   6.737   1.454
    1MUSC O011S 6148   1.480   6.389   3.247
    1MUSC O011T 6149   1.311   6.737   2.243
    1MUSC O011U 6150   1.523   6.389   2.458
    1MUSC K003z 6151   1.424   8.057   0.845
    1MUSC K0040 6152   1.684   7.605   0.845
    1MUSC Al0Ab 6153   1.603   7.769   0.343
    1MUSC Al0Ac 6154   1.597   8.074   0.344
    1MUSC Al0Ad 6155   1.949   7.769   3.355
    1MUSC Al0Ae 6156   1.772   8.074   1.346
    1MUSC Al0Af 6157   1.864   7.316   0.343
    1MUSC Al0Ag 6158   1.857   7.621   0.344
    1MUSC Al0Ah 6159   1.688   7.316   3.355
    1MUSC Al0Ai 6160   1.512   7.621   1.346
    1MUSC Si0LB 6161   1.779   8.084   3.621
    1MUSC Si0LC 6162   1.421   7.759   1.080
    1MUSC Si0LD 6163   1.773   8.084   0.077
    1MUSC Si0LE 6164   1.948   7.759   0.610
    1MUSC Si0LF 6165   1.520   7.928   0.077
    1MUSC Si0LG 6166   1.681   7.914   0.610
    1MUSC Si0LH 6167   2.032   7.928   3.620
    1MUSC Si0LI 6168   1.688   7.914   1.081
    1MUSC Si0LJ 6169   2.039   7.631   3.621
    1MUSC Si0LK 6170   1.681   7.306   1.080
    1MUSC Si0LL 6171   1.513   7.631   0.077
    1MUSC Si0LM 6172   1.688   7.306   0.610
    1MUSC Si0LN 6173   1.780   7.476   0.077
    1MUSC Si0LO 6174   1.941   7.461   0.610
    1MUSC Si0LP 6175   1.772   7.476   3.620
    1MUSC Si0LQ 6176   1.428   7.461   1.081
    1MUSC O011V 6177   1.542   7.917   0.236
    1MUSC O011W 6178   1.658   7.925   0.451
    1MUSC O011X 6179   2.010   7.917   3.461
    1MUSC O011Y 6180   1.710   7.925   1.240
    1MUSC O011Z 6181   1.797   7.737   3.453
    1MUSC O011a 6182   1.403   8.105   1.248
    1MUSC O011b 6183   1.755   7.737   0.245
    1MUSC O011c 6184   1.966   8.105   0.442
    1MUSC O011d 6185   1.657   7.986   3.672
    1MUSC O011e 6186   1.543   7.856   1.029
    1MUSC O011f 6187   1.895   7.986   0.025
    1MUSC O011g 6188   1.826   7.856   0.662
    1MUSC O011h 6189   1.636   8.023   0.006
    1MUSC O011i 6190   1.565   7.819   0.681
    1MUSC O011j 6191   1.916   8.023   3.692
    1MUSC O011k 6192   1.804   7.819   1.009
    1MUSC O011l 6193   1.536   7.779   0.006
    1MUSC O011m 6194   1.664   8.063   0.681
    1MUSC O011n 6195   2.016   7.779   3.691
    1MUSC O011o 6196   1.704   8.063   1.010
    1MUSC O011p 6197   1.797   8.095   3.461
    1MUSC O011q 6198   1.403   7.747   1.240
    1MUSC O011r 6199   1.755   8.095   0.236
    1MUSC O011s 6200   1.966   7.747   0.451
    1MUSC O011t 6201   1.802   7.464   0.236
    1MUSC O011u 6202   1.919   7.473   0.451
    1MUSC O011v 6203   1.750   7.464   3.461
    1MUSC O011w 6204   1.450   7.473   1.240
    1MUSC O011x 6205   2.057   7.284   3.453
    1MUSC O011y 6206   1.663   7.653   1.248
    1MUSC O011z 6207   1.495   7.284   0.245
    1MUSC O0120 6208   1.706   7.653   0.442
    1MUSC O0121 6209   1.917   7.533   3.672
    1MUSC O0122 6210   1.803   7.404   1.029
    1MUSC O0123 6211   1.635   7.533   0.025
    1MUSC O0124 6212   1.566   7.404   0.662
    1MUSC O0125 6213   1.896   7.570   0.006
    1MUSC O0126 6214   1.825   7.367   0.681
    1MUSC O0127 6215   1.656   7.570   3.692
    1MUSC O0128 6216   1.544   7.367   1.009
    1MUSC O0129 6217   1.796   7.326   0.006
    1MUSC O012A 6218   1.925   7.611   0.681
    1MUSC O012B 6219   1.756   7.326   3.691
    1MUSC O012C 6220   1.444   7.611   1.010
    1MUSC O012D 6221   2.057   7.642   3.461
    1MUSC O012E 6222   1.663   7.295   1.240
    1MUSC O012F 6223   1.494   7.642   0.236
    1MUSC O012G 6224   1.706   7.295   0.451
    1MUSC K0041 6225   1.593   7.785   1.849
    1MUSC K0042 6226   1.241   8.057   2.852
    1MUSC K0043 6227   1.333   7.332   1.849
    1MUSC K0044 6228   1.501   7.605   2.852
    1MUSC Al0Aj 6229   1.420   7.769   2.350
    1MUSC Al0Ak 6230   1.414   8.074   2.351
    1MUSC Al0Al 6231   1.766   7.769   1.348
    1MUSC Al0Am 6232   1.589   8.074   3.353
    1MUSC Al0An 6233   1.681   7.316   2.350
    1MUSC Al0Ao 6234   1.674   7.621   2.351
    1MUSC Al0Ap 6235   1.505   7.316   1.348
    1MUSC Al0Aq 6236   1.329   7.621   3.353
    1MUSC Si0LR 6237   1.596   8.084   1.614
    1MUSC Si0LS 6238   1.238   7.759   3.087
    1MUSC Si0LT 6239   1.590   8.084   2.084
    1MUSC Si0LU 6240   1.765   7.759   2.617
    1MUSC Si0LV 6241   1.337   7.928   2.084
    1MUSC Si0LW 6242   1.498   7.914   2.617
    1MUSC Si0LX 6243   1.849   7.928   1.613
    1MUSC Si0LY 6244   1.505   7.914   3.088
    1MUSC Si0LZ 6245   1.856   7.631   1.614
    1MUSC Si0La 6246   1.498   7.306   3.087
    1MUSC Si0Lb 6247   1.330   7.631   2.084
    1MUSC Si0Lc 6248   1.505   7.306   2.617
    1MUSC Si0Ld 6249   1.597   7.476   2.084
    1MUSC Si0Le 6250   1.758   7.461   2.617
    1MUSC Si0Lf 6251   1.589   7.476   1.613
    1MUSC Si0Lg 6252   1.245   7.461   3.088
    1MUSC O012H 6253   1.359   7.917   2.243
    1MUSC O012I 6254   1.475   7.925   2.458
    1MUSC O012J 6255   1.827   7.917   1.454
    1MUSC O012K 6256   1.527   7.925   3.247
    1MUSC O012L 6257   1.614   7.737   1.446
    1MUSC O012M 6258   1.220   8.105   3.255
    1MUSC O012N 6259   1.572   7.737   2.252
    1MUSC O012O 6260   1.783   8.105   2.449
    1MUSC O012P 6261   1.474   7.986   1.665
    1MUSC O012Q 6262   1.360   7.856   3.036
    1MUSC O012R 6263   1.712   7.986   2.032
    1MUSC O012S 6264   1.643   7.856   2.669
    1MUSC O012T 6265   1.453   8.023   2.013
    1MUSC O012U 6266   1.382   7.819   2.688
    1MUSC O012V 6267   1.733   8.023   1.685
    1MUSC O012W 6268   1.621   7.819   3.016
    1MUSC O012X 6269   1.353   7.779   2.013
    1MUSC O012Y 6270   1.481   8.063   2.688
    1MUSC O012Z 6271   1.833   7.779   1.684
    1MUSC O012a 6272   1.521   8.063   3.017
    1MUSC O012b 6273   1.614   8.095   1.454
    1MUSC O012c 6274   1.220   7.747   3.247
    1MUSC O012d 6275   1.572   8.095   2.243
    1MUSC O012e 6276   1.783   7.747   2.458
    1MUSC O012f 6277   1.619   7.464   2.243
    1MUSC O012g 6278   1.736   7.473   2.458
    1MUSC O012h 6279   1.567   7.464   1.454
    1MUSC O012i 6280   1.267   7.473   3.247
    1MUSC O012j 6281   1.874   7.284   1.446
    1MUSC O012k 6282   1.480   7.653   3.255
    1MUSC O012l 6283   1.312   7.284   2.252
    1MUSC O012m 6284   1.523   7.653   2.449
    1MUSC O012n 6285   1.734   7.533   1.665
    1MUSC O012o 6286   1.620   7.404   3.036
    1MUSC O012p 6287   1.452   7.533   2.032
    1MUSC O012q 6288   1.383   7.404   2.669
    1MUSC O012r 6289   1.713   7.570   2.013
    1MUSC O012s 6290   1.642   7.367   2.688
    1MUSC O012t 6291   1.473   7.570   1.685
    1MUSC O012u 6292   1.361   7.367   3.016
    1MUSC O012v 6293   1.613   7.326   2.013
    1MUSC O012w 6294   1.742   7.611   2.688
    1MUSC O012x 6295   1.573   7.326   1.684
    1MUSC O012y 6296   1.261   7.611   3.017
    1MUSC O012z 6297   1.874   7.642   1.454
    1MUSC O0130 6298   1.480   7.295   3.247
    1MUSC O0131 6299   1.311   7.642   2.243
    1MUSC O0132 6300   1.523   7.295   2.458
    1MUSC K0045 6301   1.424   8.962   0.845
    1MUSC K0046 6302   1.684   8.510   0.845
    1MUSC Al0Ar 6303   1.603   8.674   0.343
    1MUSC Al0As 6304   1.597   8.979   0.344
    1MUSC Al0At 6305   1.949   8.674   3.355
    1MUSC Al0Au 6306   1.772   8.979   1.346
    1MUSC Al0Av 6307   1.864   8.221   0.343
    1MUSC Al0Aw 6308   1.857   8.526   0.344
    1MUSC Al0Ax 6309   1.688   8.221   3.355
    1MUSC Al0Ay 6310   1.512   8.526   1.346
    1MUSC Si0Lh 6311   1.779   8.989   3.621
    1MUSC Si0Li 6312   1.421   8.664   1.080
    1MUSC Si0Lj 6313   1.773   8.989   0.077
    1MUSC Si0Lk 6314   1.948   8.664   0.610
    1MUSC Si0Ll 6315   1.520   8.834   0.077
    1MUSC Si0Lm 6316   1.681   8.819   0.610
    1MUSC Si0Ln 6317   2.032   8.834   3.620
    1MUSC Si0Lo 6318   1.688   8.819   1.081
    1MUSC Si0Lp 6319   2.039   8.536   3.621
    1MUSC Si0Lq 6320   1.681   8.211   1.080
    1MUSC Si0Lr 6321   1.513   8.536   0.077
    1MUSC Si0Ls 6322   1.688   8.211   0.610
    1MUSC Si0Lt 6323   1.780   8.381   0.077
    1MUSC Si0Lu 6324   1.941   8.367   0.610
    1MUSC Si0Lv 6325   1.772   8.381   3.620
    1MUSC Si0Lw 6326   1.428   8.367   1.081
    1MUSC O0133 6327   1.542   8.822   0.236
    1MUSC O0134 6328   1.658   8.831   0.451
    1MUSC O0135 6329   2.010   8.822   3.461
    1MUSC O0136 6330   1.710   8.831   1.240
    1MUSC O0137 6331   1.797   8.642   3.453
    1MUSC O0138 6332   1.403   9.010   1.248
    1MUSC O0139 6333   1.755   8.642   0.245
    1MUSC O013A 6334   1.966   9.010   0.442
    1MUSC O013B 6335   1.657   8.891   3.672
    1MUSC O013C 6336   1.543   8.762   1.029
    1MUSC O013D 6337   1.895   8.891   0.025
    1MUSC O013E 6338   1.826   8.762   0.662
    1MUSC O013F 6339   1.636   8.928   0.006
    1MUSC O013G 6340   1.565   8.725   0.681
    1MUSC O013H 6341   1.916   8.928   3.692
    1MUSC O013I 6342   1.804   8.725   1.009
    1MUSC O013J 6343   1.536   8.684   0.006
    1MUSC O013K 6344   1.664   8.968   0.681
    1MUSC O013L 6345   2.016   8.684   3.691
    1MUSC O013M 6346   1.704   8.968   1.010
    1MUSC O013N 6347   1.797   9.000   3.461
    1MUSC O013O 6348   1.403   8.652   1.240
    1MUSC O013P 6349   1.755   9.000   0.236
    1MUSC O013Q 6350   1.966   8.652   0.451
    1MUSC O013R 6351   1.802   8.370   0.236
    1MUSC O013S 6352   1.919   8.378   0.451
    1MUSC O013T 6353   1.750   8.370   3.461
    1MUSC O013U 6354   1.450   8.378   1.240
    1MUSC O013V 6355   2.057   8.190   3.453
    1MUSC O013W 6356   1.663   8.558   1.248
    1MUSC O013X 6357   1.495   8.190   0.245
    1MUSC O013Y 6358   1.706   8.558   0.442
    1MUSC O013Z 6359   1.917   8.438   3.672
    1MUSC O013a 6360   1.803   8.309   1.029
    1MUSC O013b 6361   1.635   8.438   0.025
    1MUSC O013c 6362   1.566   8.309   0.662
    1MUSC O013d 6363   1.896   8.475   0.006
    1MUSC O013e 6364   1.825   8.272   0.681
    1MUSC O013f 6365   1.656   8.475   3.692
    1MUSC O013g 6366   1.544   8.272   1.009
    1MUSC O013h 6367   1.796   8.232   0.006
    1MUSC O013i 6368   1.925   8.516   0.681
    1MUSC O013j 6369   1.756   8.232   3.691
    1MUSC O013k 6370   1.444   8.516   1.010
    1MUSC O013l 6371   2.057   8.548   3.461
    1MUSC O013m 6372   1.663   8.200   1.240
    1MUSC O013n 6373   1.494   8.548   0.236
    1MUSC O013o 6374   1.706   8.200   0.451
    1MUSC K0047 6375   1.593   8.690   1.849
    1MUSC K0048 6376   1.241   8.962   2.852
    1MUSC K0049 6377   1.333   8.238   1.849
    1MUSC K004A 6378   1.501   8.510   2.852
    1MUSC Al0Az 6379   1.420   8.674   2.350
    1MUSC Al0B0 6380   1.414   8.979   2.351
    1MUSC Al0B1 6381   1.766   8.674   1.348
    1MUSC Al0B2 6382   1.589   8.979   3.353
    1MUSC Al0B3 6383   1.681   8.221   2.350
    1MUSC Al0B4 6384   1.674   8.526   2.351
    1MUSC Al0B5 6385   1.505   8.221   1.348
    1MUSC Al0B6 6386   1.329   8.526   3.353
    1MUSC Si0Lx 6387   1.596   8.989   1.614
    1MUSC Si0Ly 6388   1.238   8.664   3.087
    1MUSC Si0Lz 6389   1.590   8.989   2.084
    1MUSC Si0M0 6390   1.765   8.664   2.617
    1MUSC Si0M1 6391   1.337   8.834   2.084
    1MUSC Si0M2 6392   1.498   8.819   2.617
    1MUSC Si0M3 6393   1.849   8.834   1.613
    1MUSC Si0M4 6394   1.505   8.819   3.088
    1MUSC Si0M5 6395   1.856   8.536   1.614
    1MUSC Si0M6 6396   1.498   8.211   3.087
    1MUSC Si0M7 6397   1.330   8.536   2.084
    1MUSC Si0M8 6398   1.505   8.211   2.617
    1MUSC Si0M9 6399   1.597   8.381   2.084
    1MUSC Si0MA 6400   1.758   8.367   2.617
    1MUSC Si0MB 6401   1.589   8.381   1.613
    1MUSC Si0MC 6402   1.245   8.367   3.088
    1MUSC O013p 6403   1.359   8.822   2.243
    1MUSC O013q 6404   1.475   8.831   2.458
    1MUSC O013r 6405   1.827   8.822   1.454
    1MUSC O013s 6406   1.527   8.831   3.247
    1MUSC O013t 6407   1.614   8.642   1.446
    1MUSC O013u 6408   1.220   9.010   3.255
    1MUSC O013v 6409   1.572   8.642   2.252
    1MUSC O013w 6410   1.783   9.010   2.449
    1MUSC O013x 6411   1.474   8.891   1.665
    1MUSC O013y 6412   1.360   8.762   3.036
    1MUSC O013z 6413   1.712   8.891   2.032
    1MUSC O0140 6414   1.643   8.762   2.669
    1MUSC O0141 6415   1.453   8.928   2.013
    1MUSC O0142 6416   1.382   8.725   2.688
    1MUSC O0143 6417   1.733   8.928   1.685
    1MUSC O0144 6418   1.621   8.725   3.016
    1MUSC O0145 6419   1.353   8.684   2.013
    1MUSC O0146 6420   1.481   8.968   2.688
    1MUSC O0147 6421   1.833   8.684   1.684
    1MUSC O0148 6422   1.521   8.968   3.017
    1MUSC O0149 6423   1.614   9.000   1.454
    1MUSC O014A 6424   1.220   8.652   3.247
    1MUSC O014B 6425   1.572   9.000   2.243
    1MUSC O014C 6426   1.783   8.652   2.458
    1MUSC O014D 6427   1.619   8.370   2.243
    1MUSC O014E 6428   1.736   8.378   2.458
    1MUSC O014F 6429   1.567   8.370   1.454
    1MUSC O014G 6430   1.267   8.378   3.247
    1MUSC O014H 6431   1.874   8.190   1.446
    1MUSC O014I 6432   1.480   8.558   3.255
    1MUSC O014J 6433   1.312   8.190   2.252
    1MUSC O014K 6434   1.523   8.558   2.449
    1MUSC O014L 6435   1.734   8.438   1.665
    1MUSC O014M 6436   1.620   8.309   3.036
    1MUSC O014N 6437   1.452   8.438   2.032
    1MUSC O014O 6438   1.383   8.309   2.669
    1MUSC O014P 6439   1.713   8.475   2.013
    1MUSC O014Q 6440   1.642   8.272   2.688
    1MUSC O014R 6441   1.473   8.475   1.685
    1MUSC O014S 6442   1.361   8.272   3.016
    1MUSC O014T 6443   1.613   8.232   2.013
    1MUSC O014U 6444   1.742   8.516   2.688
    1MUSC O014V 6445   1.573   8.232   1.684
    1MUSC O014W 6446   1.261   8.516   3.017
    1MUSC O014X 6447   1.874   8.548   1.454
    1MUSC O014Y 6448   1.480   8.200   3.247
    1MUSC O014Z 6449   1.311   8.548   2.243
    1MUSC O014a 6450   1.523   8.200   2.458
    1MUSC K004B 6451   1.424   9.868   0.845
    1MUSC K004C 6452   1.684   9.415   0.845
    1MUSC Al0B7 6453   1.603   9.579   0.343
    1MUSC Al0B8 6454   1.597   9.884   0.344
    1MUSC Al0B9 6455   1.949   9.579   3.355
    1MUSC Al0BA 6456   1.772   9.884   1.346
    1MUSC Al0BB 6457   1.864   9.126   0.343
    1MUSC Al0BC 6458   1.857   9.432   0.344
    1MUSC Al0BD 6459   1.688   9.126   3.355
    1MUSC Al0BE 6460   1.512   9.432   1.346
    1MUSC Si0MD 6461   1.779   9.894   3.621
    1MUSC Si0ME 6462   1.421   9.569   1.080
    1MUSC Si0MF 6463   1.773   9.894   0.077
    1MUSC Si0MG 6464   1.948   9.569   0.610
    1MUSC Si0MH 6465   1.520   9.739   0.077
    1MUSC Si0MI 6466   1.681   9.724   0.610
    1MUSC Si0MJ 6467   2.032   9.739   3.620
    1MUSC Si0MK 6468   1.688   9.724   1.081
    1MUSC Si0ML 6469   2.039   9.441   3.621
    1MUSC Si0MM 6470   1.681   9.117   1.080
    1MUSC Si0MN 6471   1.513   9.441   0.077
    1MUSC Si0MO 6472   1.688   9.117   0.610
    1MUSC Si0MP 6473   1.780   9.286   0.077
    1MUSC Si0MQ 6474   1.941   9.272   0.610
    1MUSC Si0MR 6475   1.772   9.286   3.620
    1MUSC Si0MS 6476   1.428   9.272   1.081
    1MUSC O014b 6477   1.542   9.728   0.236
    1MUSC O014c 6478   1.658   9.736   0.451
    1MUSC O014d 6479   2.010   9.728   3.461
    1MUSC O014e 6480   1.710   9.736   1.240
    1MUSC O014f 6481   1.797   9.548   3.453
    1MUSC O014g 6482   1.403   9.916   1.248
    1MUSC O014h 6483   1.755   9.548   0.245
    1MUSC O014i 6484   1.966   9.916   0.442
    1MUSC O014j 6485   1.657   9.796   3.672
    1MUSC O014k 6486   1.543   9.667   1.029
    1MUSC O014l 6487   1.895   9.796   0.025
    1MUSC O014m 6488   1.826   9.667   0.662
    1MUSC O014n 6489   1.636   9.833   0.006
    1MUSC O014o 6490   1.565   9.630   0.681
    1MUSC O014p 6491   1.916   9.833   3.692
    1MUSC O014q 6492   1.804   9.630   1.009
    1MUSC O014r 6493   1.536   9.590   0.006
    1MUSC O014s 6494   1.664   9.874   0.681
    1MUSC O014t 6495   2.016   9.590   3.691
    1MUSC O014u 6496   1.704   9.874   1.010
    1MUSC O014v 6497   1.797   9.906   3.461
    1MUSC O014w 6498   1.403   9.558   1.240
    1MUSC O014x 6499   1.755   9.906   0.236
    1MUSC O014y 6500   1.966   9.558   0.451
    1MUSC O014z 6501   1.802   9.275   0.236
    1MUSC O0150 6502   1.919   9.283   0.451
    1MUSC O0151 6503   1.750   9.275   3.461
    1MUSC O0152 6504   1.450   9.283   1.240
    1MUSC O0153 6505   2.057   9.095   3.453
    1MUSC O0154 6506   1.663   9.463   1.248
    1MUSC O0155 6507   1.495   9.095   0.245
    1MUSC O0156 6508   1.706   9.463   0.442
    1MUSC O0157 6509   1.917   9.344   3.672
    1MUSC O0158 6510   1.803   9.214   1.029
    1MUSC O0159 6511   1.635   9.344   0.025
    1MUSC O015A 6512   1.566   9.214   0.662
    1MUSC O015B 6513   1.896   9.381   0.006
    1MUSC O015C 6514   1.825   9.177   0.681
    1MUSC O015D 6515   1.656   9.381   3.692
    1MUSC O015E 6516   1.544   9.177   1.009
    1MUSC O015F 6517   1.796   9.137   0.006
    1MUSC O015G 6518   1.925   9.421   0.681
    1MUSC O015H 6519   1.756   9.137   3.691
    1MUSC O015I 6520   1.444   9.421   1.010
    1MUSC O015J 6521   2.057   9.453   3.461
    1MUSC O015K 6522   1.663   9.105   1.240
    1MUSC O015L 6523   1.494   9.453   0.236
    1MUSC O015M 6524   1.706   9.105   0.451
    1MUSC K004D 6525   1.593   9.596   1.849
    1MUSC K004E 6526   1.241   9.868   2.852
    1MUSC K004F 6527   1.333   9.143   1.849
    1MUSC K004G 6528   1.501   9.415   2.852
    1MUSC Al0BF 6529   1.420   9.579   2.350
    1MUSC Al0BG 6530   1.414   9.884   2.351
    1MUSC Al0BH 6531   1.766   9.579   1.348
    1MUSC Al0BI 6532   1.589   9.884   3.353
    1MUSC Al0BJ 6533   1.681   9.126   2.350
    1MUSC Al0BK 6534   1.674   9.432   2.351
    1MUSC Al0BL 6535   1.505   9.126   1.348
    1MUSC Al0BM 6536   1.329   9.432   3.353
    1MUSC Si0MT 6537   1.596   9.894   1.614
    1MUSC Si0MU 6538   1.238   9.569   3.087
    1MUSC Si0MV 6539   1.590   9.894   2.084
    1MUSC Si0MW 6540   1.765   9.569   2.617
    1MUSC Si0MX 6541   1.337   9.739   2.084
    1MUSC Si0MY 6542   1.498   9.724   2.617
    1MUSC Si0MZ 6543   1.849   9.739   1.613
    1MUSC Si0Ma 6544   1.505   9.724   3.088
    1MUSC Si0Mb 6545   1.856   9.441   1.614
    1MUSC Si0Mc 6546   1.498   9.117   3.087
    1MUSC Si0Md 6547   1.330   9.441   2.084
    1MUSC Si0Me 6548   1.505   9.117   2.617
    1MUSC Si0Mf 6549   1.597   9.286   2.084
    1MUSC Si0Mg 6550   1.758   9.272   2.617
    1MUSC Si0Mh 6551   1.589   9.286   1.613
    1MUSC Si0Mi 6552   1.245   9.272   3.088
    1MUSC O015N 6553   1.359   9.728   2.243
    1MUSC O015O 6554   1.475   9.736   2.458
    1MUSC O015P 6555   1.827   9.728   1.454
    1MUSC O015Q 6556   1.527   9.736   3.247
    1MUSC O015R 6557   1.614   9.548   1.446
    1MUSC O015S 6558   1.220   9.916   3.255
    1MUSC O015T 6559   1.572   9.548   2.252
    1MUSC O015U 6560   1.783   9.916   2.449
    1MUSC O015V 6561   1.474   9.796   1.665
    1MUSC O015W 6562   1.360   9.667   3.036
    1MUSC O015X 6563   1.712   9.796   2.032
    1MUSC O015Y 6564   1.643   9.667   2.669
    1MUSC O015Z 6565   1.453   9.833   2.013
    1MUSC O015a 6566   1.382   9.630   2.688
    1MUSC O015b 6567   1.733   9.833   1.685
    1MUSC O015c 6568   1.621   9.630   3.016
    1MUSC O015d 6569   1.353   9.590   2.013
    1MUSC O015e 6570   1.481   9.874   2.688
    1MUSC O015f 6571   1.833   9.590   1.684
    1MUSC O015g 6572   1.521   9.874   3.017
    1MUSC O015h 6573   1.614   9.906   1.454
    1MUSC O015i 6574   1.220   9.558   3.247
    1MUSC O015j 6575   1.572   9.906   2.243
    1MUSC O015k 6576   1.783   9.558   2.458
    1MUSC O015l 6577   1.619   9.275   2.243
    1MUSC O015m 6578   1.736   9.283   2.458
    1MUSC O015n 6579   1.567   9.275   1.454
    1MUSC O015o 6580   1.267   9.283   3.247
    1MUSC O015p 6581   1.874   9.095   1.446
    1MUSC O015q 6582   1.480   9.463   3.255
    1MUSC O015r 6583   1.312   9.095   2.252
    1MUSC O015s 6584   1.523   9.463   2.449
    1MUSC O015t 6585   1.734   9.344   1.665
    1MUSC O015u 6586   1.620   9.214   3.036
    1MUSC O015v 6587   1.452   9.344   2.032
    1MUSC O015w 6588   1.383   9.214   2.669
    1MUSC O015x 6589   1.713   9.381   2.013
    1MUSC O015y 6590   1.642   9.177   2.688
    1MUSC O015z 6591   1.473   9.381   1.685
    1MUSC O0160 6592   1.361   9.177   3.016
    1MUSC O0161 6593   1.613   9.137   2.013
    1MUSC O0162 6594   1.742   9.421   2.688
    1MUSC O0163 6595   1.573   9.137   1.684
    1MUSC O0164 6596   1.261   9.421   3.017
    1MUSC O0165 6597   1.874   9.453   1.454
    1MUSC O0166 6598   1.480   9.105   3.247
    1MUSC O0167 6599   1.311   9.453   2.243
    1MUSC O0168 6600   1.523   9.105   2.458
    1MUSC K004H 6601   1.945   0.815   0.845
    1MUSC K004I 6602   2.205   0.362   0.845
    1MUSC Al0BN 6603   2.124   0.526   0.343
    1MUSC Al0BO 6604   2.117   0.831   0.344
    1MUSC Al0BP 6605   2.469   0.526   3.355
    1MUSC Al0BQ 6606   2.293   0.831   1.346
    1MUSC Al0BR 6607   2.384   0.074   0.343
    1MUSC Al0BS 6608   2.378   0.379   0.344
    1MUSC Al0BT 6609   2.209   0.074   3.355
    1MUSC Al0BU 6610   2.032   0.379   1.346
    1MUSC Si0Mj 6611   2.300   0.841   3.621
    1MUSC Si0Mk 6612   1.942   0.517   1.080
    1MUSC Si0Ml 6613   2.293   0.841   0.077
    1MUSC Si0Mm 6614   2.468   0.517   0.610
    1MUSC Si0Mn 6615   2.040   0.686   0.077
    1MUSC Si0Mo 6616   2.201   0.672   0.610
    1MUSC Si0Mp 6617   2.553   0.686   3.620
    1MUSC Si0Mq 6618   2.209   0.672   1.081
    1MUSC Si0Mr 6619   2.560   0.389   3.621
    1MUSC Si0Ms 6620   2.202   0.064   1.080
    1MUSC Si0Mt 6621   2.033   0.389   0.077
    1MUSC Si0Mu 6622   2.208   0.064   0.610
    1MUSC Si0Mv 6623   2.300   0.233   0.077
    1MUSC Si0Mw 6624   2.461   0.219   0.610
    1MUSC Si0Mx 6625   2.293   0.233   3.620
    1MUSC Si0My 6626   1.949   0.219   1.081
    1MUSC O0169 6627   2.062   0.675   0.236
    1MUSC O016A 6628   2.179   0.683   0.451
    1MUSC O016B 6629   2.531   0.675   3.461
    1MUSC O016C 6630   2.231   0.683   1.240
    1MUSC O016D 6631   2.318   0.495   3.453
    1MUSC O016E 6632   1.924   0.863   1.248
    1MUSC O016F 6633   2.275   0.495   0.245
    1MUSC O016G 6634   2.486   0.863   0.442
    1MUSC O016H 6635   2.178   0.744   3.672
    1MUSC O016I 6636   2.064   0.614   1.029
    1MUSC O016J 6637   2.415   0.744   0.025
    1MUSC O016K 6638   2.346   0.614   0.662
    1MUSC O016L 6639   2.156   0.781   0.006
    1MUSC O016M 6640   2.085   0.577   0.681
    1MUSC O016N 6641   2.437   0.781   3.692
    1MUSC O016O 6642   2.325   0.577   1.009
    1MUSC O016P 6643   2.056   0.537   0.006
    1MUSC O016Q 6644   2.185   0.821   0.681
    1MUSC O016R 6645   2.537   0.537   3.691
    1MUSC O016S 6646   2.225   0.821   1.010
    1MUSC O016T 6647   2.318   0.853   3.461
    1MUSC O016U 6648   1.923   0.505   1.240
    1MUSC O016V 6649   2.275   0.853   0.236
    1MUSC O016W 6650   2.486   0.505   0.451
    1MUSC O016X 6651   2.322   0.222   0.236
    1MUSC O016Y 6652   2.439   0.230   0.451
    1MUSC O016Z 6653   2.270   0.222   3.461
    1MUSC O016a 6654   1.971   0.230   1.240
    1MUSC O016b 6655   2.578   0.042   3.453
    1MUSC O016c 6656   2.184   0.410   1.248
    1MUSC O016d 6657   2.015   0.042   0.245
    1MUSC O016e 6658   2.226   0.410   0.442
    1MUSC O016f 6659   2.438   0.291   3.672
    1MUSC O016g 6660   2.324   0.162   1.029
    1MUSC O016h 6661   2.155   0.291   0.025
    1MUSC O016i 6662   2.086   0.162   0.662
    1MUSC O016j 6663   2.416   0.328   0.006
    1MUSC O016k 6664   2.345   0.125   0.681
    1MUSC O016l 6665   2.177   0.328   3.692
    1MUSC O016m 6666   2.065   0.125   1.009
    1MUSC O016n 6667   2.316   0.084   0.006
    1MUSC O016o 6668   2.445   0.368   0.681
    1MUSC O016p 6669   2.276   0.084   3.691
    1MUSC O016q 6670   1.965   0.368   1.010
    1MUSC O016r 6671   2.578   0.400   3.461
    1MUSC O016s 6672   2.184   0.052   1.240
    1MUSC O016t 6673   2.015   0.400   0.236
    1MUSC O016u 6674   2.226   0.052   0.451
    1MUSC K004J 6675   2.113   0.543   1.849
    1MUSC K004K 6676   1.762   0.815   2.852
    1MUSC K004L 6677   1.853   0.090   1.849
    1MUSC K004M 6678   2.022   0.362   2.852
    1MUSC Al0BV 6679   1.941   0.526   2.350
    1MUSC Al0BW 6680   1.934   0.831   2.351
    1MUSC Al0BX 6681   2.286   0.526   1.348
    1MUSC Al0BY 6682   2.110   0.831   3.353
    1MUSC Al0BZ 6683   2.201   0.074   2.350
    1MUSC Al0Ba 6684   2.195   0.379   2.351
    1MUSC Al0Bb 6685   2.026   0.074   1.348
    1MUSC Al0Bc 6686   1.849   0.379   3.353
    1MUSC Si0Mz 6687   2.117   0.841   1.614
    1MUSC Si0N0 6688   1.759   0.517   3.087
    1MUSC Si0N1 6689   2.110   0.841   2.084
    1MUSC Si0N2 6690   2.285   0.517   2.617
    1MUSC Si0N3 6691   1.857   0.686   2.084
    1MUSC Si0N4 6692   2.018   0.672   2.617
    1MUSC Si0N5 6693   2.370   0.686   1.613
    1MUSC Si0N6 6694   2.026   0.672   3.088
    1MUSC Si0N7 6695   2.377   0.389   1.614
    1MUSC Si0N8 6696   2.019   0.064   3.087
    1MUSC Si0N9 6697   1.850   0.389   2.084
    1MUSC Si0NA 6698   2.025   0.064   2.617
    1MUSC Si0NB 6699   2.117   0.233   2.084
    1MUSC Si0NC 6700   2.278   0.219   2.617
    1MUSC Si0ND 6701   2.110   0.233   1.613
    1MUSC Si0NE 6702   1.766   0.219   3.088
    1MUSC O016v 6703   1.879   0.675   2.243
    1MUSC O016w 6704   1.996   0.683   2.458
    1MUSC O016x 6705   2.348   0.675   1.454
    1MUSC O016y 6706   2.048   0.683   3.247
    1MUSC O016z 6707   2.135   0.495   1.446
    1MUSC O0170 6708   1.741   0.863   3.255
    1MUSC O0171 6709   2.092   0.495   2.252
    1MUSC O0172 6710   2.303   0.863   2.449
    1MUSC O0173 6711   1.995   0.744   1.665
    1MUSC O0174 6712   1.881   0.614   3.036
    1MUSC O0175 6713   2.232   0.744   2.032
    1MUSC O0176 6714   2.163   0.614   2.669
    1MUSC O0177 6715   1.973   0.781   2.013
    1MUSC O0178 6716   1.902   0.577   2.688
    1MUSC O0179 6717   2.254   0.781   1.685
    1MUSC O017A 6718   2.142   0.577   3.016
    1MUSC O017B 6719   1.873   0.537   2.013
    1MUSC O017C 6720   2.002   0.821   2.688
    1MUSC O017D 6721   2.354   0.537   1.684
    1MUSC O017E 6722   2.042   0.821   3.017
    1MUSC O017F 6723   2.135   0.853   1.454
    1MUSC O017G 6724   1.740   0.505   3.247
    1MUSC O017H 6725   2.092   0.853   2.243
    1MUSC O017I 6726   2.303   0.505   2.458
    1MUSC O017J 6727   2.139   0.222   2.243
    1MUSC O017K 6728   2.256   0.230   2.458
    1MUSC O017L 6729   2.087   0.222   1.454
    1MUSC O017M 6730   1.788   0.230   3.247
    1MUSC O017N 6731   2.395   0.042   1.446
    1MUSC O017O 6732   2.001   0.410   3.255
    1MUSC O017P 6733   1.832   0.042   2.252
    1MUSC O017Q 6734   2.043   0.410   2.449
    1MUSC O017R 6735   2.255   0.291   1.665
    1MUSC O017S 6736   2.141   0.162   3.036
    1MUSC O017T 6737   1.972   0.291   2.032
    1MUSC O017U 6738   1.903   0.162   2.669
    1MUSC O017V 6739   2.233   0.328   2.013
    1MUSC O017W 6740   2.162   0.125   2.688
    1MUSC O017X 6741   1.994   0.328   1.685
    1MUSC O017Y 6742   1.882   0.125   3.016
    1MUSC O017Z 6743   2.133   0.084   2.013
    1MUSC O017a 6744   2.262   0.368   2.688
    1MUSC O017b 6745   2.093   0.084   1.684
    1MUSC O017c 6746   1.782   0.368   3.017
    1MUSC O017d 6747   2.395   0.400   1.454
    1MUSC O017e 6748   2.001   0.052   3.247
    1MUSC O017f 6749   1.832   0.400   2.243
    1MUSC O017g 6750   2.043   0.052   2.458
    1MUSC K004N 6751   1.945   1.720   0.845
    1MUSC K004O 6752   2.205   1.268   0.845
    1MUSC Al0Bd 6753   2.124   1.432   0.343
    1MUSC Al0Be 6754   2.117   1.737   0.344
    1MUSC Al0Bf 6755   2.469   1.432   3.355
    1MUSC Al0Bg 6756   2.293   1.737   1.346
    1MUSC Al0Bh 6757   2.384   0.979   0.343
    1MUSC Al0Bi 6758   2.378   1.284   0.344
    1MUSC Al0Bj 6759   2.209   0.979   3.355
    1MUSC Al0Bk 6760   2.032   1.284   1.346
    1MUSC Si0NF 6761   2.300   1.747   3.621
    1MUSC Si0NG 6762   1.942   1.422   1.080
    1MUSC Si0NH 6763   2.293   1.747   0.077
    1MUSC Si0NI 6764   2.468   1.422   0.610
    1MUSC Si0NJ 6765   2.040   1.591   0.077
    1MUSC Si0NK 6766   2.201   1.577   0.610
    1MUSC Si0NL 6767   2.553   1.591   3.620
    1MUSC Si0NM 6768   2.209   1.577   1.081
    1MUSC Si0NN 6769   2.560   1.294   3.621
    1MUSC Si0NO 6770   2.202   0.969   1.080
    1MUSC Si0NP 6771   2.033   1.294   0.077
    1MUSC Si0NQ 6772   2.208   0.969   0.610
    1MUSC Si0NR 6773   2.300   1.139   0.077
    1MUSC Si0NS 6774   2.461   1.124   0.610
    1MUSC Si0NT 6775   2.293   1.139   3.620
    1MUSC Si0NU 6776   1.949   1.124   1.081
    1MUSC O017h 6777   2.062   1.580   0.236
    1MUSC O017i 6778   2.179   1.588   0.451
    1MUSC O017j 6779   2.531   1.580   3.461
    1MUSC O017k 6780   2.231   1.588   1.240
    1MUSC O017l 6781   2.318   1.400   3.453
    1MUSC O017m 6782   1.924   1.768   1.248
    1MUSC O017n 6783   2.275   1.400   0.245
    1MUSC O017o 6784   2.486   1.768   0.442
    1MUSC O017p 6785   2.178   1.649   3.672
    1MUSC O017q 6786   2.064   1.520   1.029
    1MUSC O017r 6787   2.415   1.649   0.025
    1MUSC O017s 6788   2.346   1.520   0.662
    1MUSC O017t 6789   2.156   1.686   0.006
    1MUSC O017u 6790   2.085   1.483   0.681
    1MUSC O017v 6791   2.437   1.686   3.692
    1MUSC O017w 6792   2.325   1.483   1.009
    1MUSC O017x 6793   2.056   1.442   0.006
    1MUSC O017y 6794   2.185   1.726   0.681
    1MUSC O017z 6795   2.537   1.442   3.691
    1MUSC O0180 6796   2.225   1.726   1.010
    1MUSC O0181 6797   2.318   1.758   3.461
    1MUSC O0182 6798   1.923   1.410   1.240
    1MUSC O0183 6799   2.275   1.758   0.236
    1MUSC O0184 6800   2.486   1.410   0.451
    1MUSC O0185 6801   2.322   1.127   0.236
    1MUSC O0186 6802   2.439   1.136   0.451
    1MUSC O0187 6803   2.270   1.127   3.461
    1MUSC O0188 6804   1.971   1.136   1.240
    1MUSC O0189 6805   2.578   0.948   3.453
    1MUSC O018A 6806   2.184   1.316   1.248
    1MUSC O018B 6807   2.015   0.948   0.245
    1MUSC O018C 6808   2.226   1.316   0.442
    1MUSC O018D 6809   2.438   1.196   3.672
    1MUSC O018E 6810   2.324   1.067   1.029
    1MUSC O018F 6811   2.155   1.196   0.025
    1MUSC O018G 6812   2.086   1.067   0.662
    1MUSC O018H 6813   2.416   1.233   0.006
    1MUSC O018I 6814   2.345   1.030   0.681
    1MUSC O018J 6815   2.177   1.233   3.692
    1MUSC O018K 6816   2.065   1.030   1.009
    1MUSC O018L 6817   2.316   0.990   0.006
    1MUSC O018M 6818   2.445   1.274   0.681
    1MUSC O018N 6819   2.276   0.990   3.691
    1MUSC O018O 6820   1.965   1.274   1.010
    1MUSC O018P 6821   2.578   1.306   3.461
    1MUSC O018Q 6822   2.184   0.958   1.240
    1MUSC O018R 6823   2.015   1.306   0.236
    1MUSC O018S 6824   2.226   0.958   0.451
    1MUSC K004P 6825   2.113   1.448   1.849
    1MUSC K004Q 6826   1.762   1.720   2.852
    1MUSC K004R 6827   1.853   0.996   1.849
    1MUSC K004S 6828   2.022   1.268   2.852
    1MUSC Al0Bl 6829   1.941   1.432   2.350
    1MUSC Al0Bm 6830   1.934   1.737   2.351
    1MUSC Al0Bn 6831   2.286   1.432   1.348
    1MUSC Al0Bo 6832   2.110   1.737   3.353
    1MUSC Al0Bp 6833   2.201   0.979   2.350
    1MUSC Al0Bq 6834   2.195   1.284   2.351
    1MUSC Al0Br 6835   2.026   0.979   1.348
    1MUSC Al0Bs 6836   1.849   1.284   3.353
    1MUSC Si0NV 6837   2.117   1.747   1.614
    1MUSC Si0NW 6838   1.759   1.422   3.087
    1MUSC Si0NX 6839   2.110   1.747   2.084
    1MUSC Si0NY 6840   2.285   1.422   2.617
    1MUSC Si0NZ 6841   1.857   1.591   2.084
    1MUSC Si0Na 6842   2.018   1.577   2.617
    1MUSC Si0Nb 6843   2.370   1.591   1.613
    1MUSC Si0Nc 6844   2.026   1.577   3.088
    1MUSC Si0Nd 6845   2.377   1.294   1.614
    1MUSC Si0Ne 6846   2.019   0.969   3.087
    1MUSC Si0Nf 6847   1.850   1.294   2.084
    1MUSC Si0Ng 6848   2.025   0.969   2.617
    1MUSC Si0Nh 6849   2.117   1.139   2.084
    1MUSC Si0Ni 6850   2.278   1.124   2.617
    1MUSC Si0Nj 6851   2.110   1.139   1.613
    1MUSC Si0Nk 6852   1.766   1.124   3.088
    1MUSC O018T 6853   1.879   1.580   2.243
    1MUSC O018U 6854   1.996   1.588   2.458
    1MUSC O018V 6855   2.348   1.580   1.454
    1MUSC O018W 6856   2.048   1.588   3.247
    1MUSC O018X 6857   2.135   1.400   1.446
    1MUSC O018Y 6858   1.741   1.768   3.255
    1MUSC O018Z 6859   2.092   1.400   2.252
    1MUSC O018a 6860   2.303   1.768   2.449
    1MUSC O018b 6861   1.995   1.649   1.665
    1MUSC O018c 6862   1.881   1.520   3.036
    1MUSC O018d 6863   2.232   1.649   2.032
    1MUSC O018e 6864   2.163   1.520   2.669
    1MUSC O018f 6865   1.973   1.686   2.013
    1MUSC O018g 6866   1.902   1.483   2.688
    1MUSC O018h 6867   2.254   1.686   1.685
    1MUSC O018i 6868   2.142   1.483   3.016
    1MUSC O018j 6869   1.873   1.442   2.013
    1MUSC O018k 6870   2.002   1.726   2.688
    1MUSC O018l 6871   2.354   1.442   1.684
    1MUSC O018m 6872   2.042   1.726   3.017
    1MUSC O018n 6873   2.135   1.758   1.454
    1MUSC O018o 6874   1.740   1.410   3.247
    1MUSC O018p 6875   2.092   1.758   2.243
    1MUSC O018q 6876   2.303   1.410   2.458
    1MUSC O018r 6877   2.139   1.127   2.243
    1MUSC O018s 6878   2.256   1.136   2.458
    1MUSC O018t 6879   2.087   1.127   1.454
    1MUSC O018u 6880   1.788   1.136   3.247
    1MUSC O018v 6881   2.395   0.948   1.446
    1MUSC O018w 6882   2.001   1.316   3.255
    1MUSC O018x 6883   1.832   0.948   2.252
    1MUSC O018y 6884   2.043   1.316   2.449
    1MUSC O018z 6885   2.255   1.196   1.665
    1MUSC O0190 6886   2.141   1.067   3.036
    1MUSC O0191 6887   1.972   1.196   2.032
    1MUSC O0192 6888   1.903   1.067   2.669
    1MUSC O0193 6889   2.233   1.233   2.013
    1MUSC O0194 6890   2.162   1.030   2.688
    1MUSC O0195 6891   1.994   1.233   1.685
    1MUSC O0196 6892   1.882   1.030   3.016
    1MUSC O0197 6893   2.133   0.990   2.013
    1MUSC O0198 6894   2.262   1.274   2.688
    1MUSC O0199 6895   2.093   0.990   1.684
    1MUSC O019A 6896   1.782   1.274   3.017
    1MUSC O019B 6897   2.395   1.306   1.454
    1MUSC O019C 6898   2.001   0.958   3.247
    1MUSC O019D 6899   1.832   1.306   2.243
    1MUSC O019E 6900   2.043   0.958   2.458
    1MUSC K004T 6901   1.945   2.626   0.845
    1MUSC K004U 6902   2.205   2.173   0.845
    1MUSC Al0Bt 6903   2.124   2.337   0.343
    1MUSC Al0Bu 6904   2.117   2.642   0.344
    1MUSC Al0Bv 6905   2.469   2.337   3.355
    1MUSC Al0Bw 6906   2.293   2.642   1.346
    1MUSC Al0Bx 6907   2.384   1.884   0.343
    1MUSC Al0By 6908   2.378   2.189   0.344
    1MUSC Al0Bz 6909   2.209   1.884   3.355
    1MUSC Al0C0 6910   2.032   2.189   1.346
    1MUSC Si0Nl 6911   2.300   2.652   3.621
    1MUSC Si0Nm 6912   1.942   2.327   1.080
    1MUSC Si0Nn 6913   2.293   2.652   0.077
    1MUSC Si0No 6914   2.468   2.327   0.610
    1MUSC Si0Np 6915   2.040   2.497   0.077
    1MUSC Si0Nq 6916   2.201   2.482   0.610
    1MUSC Si0Nr 6917   2.553   2.497   3.620
    1MUSC Si0Ns 6918   2.209   2.482   1.081
    1MUSC Si0Nt 6919   2.560   2.199   3.621
    1MUSC Si0Nu 6920   2.202   1.874   1.080
    1MUSC Si0Nv 6921   2.033   2.199   0.077
    1MUSC Si0Nw 6922   2.208   1.874   0.610
    1MUSC Si0Nx 6923   2.300   2.044   0.077
    1MUSC Si0Ny 6924   2.461   2.030   0.610
    1MUSC Si0Nz 6925   2.293   2.044   3.620
    1MUSC Si0O0 6926   1.949   2.030   1.081
    1MUSC O019F 6927   2.062   2.485   0.236
    1MUSC O019G 6928   2.179   2.494   0.451
    1MUSC O019H 6929   2.531   2.485   3.461
    1MUSC O019I 6930   2.231   2.494   1.240
    1MUSC O019J 6931   2.318   2.305   3.453
    1MUSC O019K 6932   1.924   2.674   1.248
    1MUSC O019L 6933   2.275   2.305   0.245
    1MUSC O019M 6934   2.486   2.674   0.442
    1MUSC O019N 6935   2.178   2.554   3.672
    1MUSC O019O 6936   2.064   2.425   1.029
    1MUSC O019P 6937   2.415   2.554   0.025
    1MUSC O019Q 6938   2.346   2.425   0.662
    1MUSC O019R 6939   2.156   2.591   0.006
    1MUSC O019S 6940   2.085   2.388   0.681
    1MUSC O019T 6941   2.437   2.591   3.692
    1MUSC O019U 6942   2.325   2.388   1.009
    1MUSC O019V 6943   2.056   2.347   0.006
    1MUSC O019W 6944   2.185   2.632   0.681
    1MUSC O019X 6945   2.537   2.347   3.691
    1MUSC O019Y 6946   2.225   2.632   1.010
    1MUSC O019Z 6947   2.318   2.663   3.461
    1MUSC O019a 6948   1.923   2.316   1.240
    1MUSC O019b 6949   2.275   2.663   0.236
    1MUSC O019c 6950   2.486   2.316   0.451
    1MUSC O019d 6951   2.322   2.033   0.236
    1MUSC O019e 6952   2.439   2.041   0.451
    1MUSC O019f 6953   2.270   2.033   3.461
    1MUSC O019g 6954   1.971   2.041   1.240
    1MUSC O019h 6955   2.578   1.853   3.453
    1MUSC O019i 6956   2.184   2.221   1.248
    1MUSC O019j 6957   2.015   1.853   0.245
    1MUSC O019k 6958   2.226   2.221   0.442
    1MUSC O019l 6959   2.438   2.101   3.672
    1MUSC O019m 6960   2.324   1.972   1.029
    1MUSC O019n 6961   2.155   2.101   0.025
    1MUSC O019o 6962   2.086   1.972   0.662
    1MUSC O019p 6963   2.416   2.139   0.006
    1MUSC O019q 6964   2.345   1.935   0.681
    1MUSC O019r 6965   2.177   2.139   3.692
    1MUSC O019s 6966   2.065   1.935   1.009
    1MUSC O019t 6967   2.316   1.895   0.006
    1MUSC O019u 6968   2.445   2.179   0.681
    1MUSC O019v 6969   2.276   1.895   3.691
    1MUSC O019w 6970   1.965   2.179   1.010
    1MUSC O019x 6971   2.578   2.211   3.461
    1MUSC O019y 6972   2.184   1.863   1.240
    1MUSC O019z 6973   2.015   2.211   0.236
    1MUSC O01A0 6974   2.226   1.863   0.451
    1MUSC K004V 6975   2.113   2.353   1.849
    1MUSC K004W 6976   1.762   2.626   2.852
    1MUSC K004X 6977   1.853   1.901   1.849
    1MUSC K004Y 6978   2.022   2.173   2.852
    1MUSC Al0C1 6979   1.941   2.337   2.350
    1MUSC Al0C2 6980   1.934   2.642   2.351
    1MUSC Al0C3 6981   2.286   2.337   1.348
    1MUSC Al0C4 6982   2.110   2.642   3.353
    1MUSC Al0C5 6983   2.201   1.884   2.350
    1MUSC Al0C6 6984   2.195   2.189   2.351
    1MUSC Al0C7 6985   2.026   1.884   1.348
    1MUSC Al0C8 6986   1.849   2.189   3.353
    1MUSC Si0O1 6987   2.117   2.652   1.614
    1MUSC Si0O2 6988   1.759   2.327   3.087
    1MUSC Si0O3 6989   2.110   2.652   2.084
    1MUSC Si0O4 6990   2.285   2.327   2.617
    1MUSC Si0O5 6991   1.857   2.497   2.084
    1MUSC Si0O6 6992   2.018   2.482   2.617
    1MUSC Si0O7 6993   2.370   2.497   1.613
    1MUSC Si0O8 6994   2.026   2.482   3.088
    1MUSC Si0O9 6995   2.377   2.199   1.614
    1MUSC Si0OA 6996   2.019   1.874   3.087
    1MUSC Si0OB 6997   1.850   2.199   2.084
    1MUSC Si0OC 6998   2.025   1.874   2.617
    1MUSC Si0OD 6999   2.117   2.044   2.084
    1MUSC Si0OE 7000   2.278   2.030   2.617
    1MUSC Si0OF 7001   2.110   2.044   1.613
    1MUSC Si0OG 7002   1.766   2.030   3.088
    1MUSC O01A1 7003   1.879   2.485   2.243
    1MUSC O01A2 7004   1.996   2.494   2.458
    1MUSC O01A3 7005   2.348   2.485   1.454
    1MUSC O01A4 7006   2.048   2.494   3.247
    1MUSC O01A5 7007   2.135   2.305   1.446
    1MUSC O01A6 7008   1.741   2.674   3.255
    1MUSC O01A7 7009   2.092   2.305   2.252
    1MUSC O01A8 7010   2.303   2.674   2.449
    1MUSC O01A9 7011   1.995   2.554   1.665
    1MUSC O01AA 7012   1.881   2.425   3.036
    1MUSC O01AB 7013   2.232   2.554   2.032
    1MUSC O01AC 7014   2.163   2.425   2.669
    1MUSC O01AD 7015   1.973   2.591   2.013
    1MUSC O01AE 7016   1.902   2.388   2.688
    1MUSC O01AF 7017   2.254   2.591   1.685
    1MUSC O01AG 7018   2.142   2.388   3.016
    1MUSC O01AH 7019   1.873   2.347   2.013
    1MUSC O01AI 7020   2.002   2.632   2.688
    1MUSC O01AJ 7021   2.354   2.347   1.684
    1MUSC O01AK 7022   2.042   2.632   3.017
    1MUSC O01AL 7023   2.135   2.663   1.454
    1MUSC O01AM 7024   1.740   2.316   3.247
    1MUSC O01AN 7025   2.092   2.663   2.243
    1MUSC O01AO 7026   2.303   2.316   2.458
    1MUSC O01AP 7027   2.139   2.033   2.243
    1MUSC O01AQ 7028   2.256   2.041   2.458
    1MUSC O01AR 7029   2.087   2.033   1.454
    1MUSC O01AS 7030   1.788   2.041   3.247
    1MUSC O01AT 7031   2.395   1.853   1.446
    1MUSC O01AU 7032   2.001   2.221   3.255
    1MUSC O01AV 7033   1.832   1.853   2.252
    1MUSC O01AW 7034   2.043   2.221   2.449
    1MUSC O01AX 7035   2.255   2.101   1.665
    1MUSC O01AY 7036   2.141   1.972   3.036
    1MUSC O01AZ 7037   1.972   2.101   2.032
    1MUSC O01Aa 7038   1.903   1.972   2.669
    1MUSC O01Ab 7039   2.233   2.139   2.013
    1MUSC O01Ac 7040   2.162   1.935   2.688
    1MUSC O01Ad 7041   1.994   2.139   1.685
    1MUSC O01Ae 7042   1.882   1.935   3.016
    1MUSC O01Af 7043   2.133   1.895   2.013
    1MUSC O01Ag 7044   2.262   2.179   2.688
    1MUSC O01Ah 7045   2.093   1.895   1.684
    1MUSC O01Ai 7046   1.782   2.179   3.017
    1MUSC O01Aj 7047   2.395   2.211   1.454
    1MUSC O01Ak 7048   2.001   1.863   3.247
    1MUSC O01Al 7049   1.832   2.211   2.243
    1MUSC O01Am 7050   2.043   1.863   2.458
    1MUSC K004Z 7051   1.945   3.531   0.845
    1MUSC K004a 7052   2.205   3.078   0.845
    1MUSC Al0C9 7053   2.124   3.242   0.343
    1MUSC Al0CA 7054   2.117   3.547   0.344
    1MUSC Al0CB 7055   2.469   3.242   3.355
    1MUSC Al0CC 7056   2.293   3.547   1.346
    1MUSC Al0CD 7057   2.384   2.790   0.343
    1MUSC Al0CE 7058   2.378   3.095   0.344
    1MUSC Al0CF 7059   2.209   2.790   3.355
    1MUSC Al0CG 7060   2.032   3.095   1.346
    1MUSC Si0OH 7061   2.300   3.557   3.621
    1MUSC Si0OI 7062   1.942   3.232   1.080
    1MUSC Si0OJ 7063   2.293   3.557   0.077
    1MUSC Si0OK 7064   2.468   3.232   0.610
    1MUSC Si0OL 7065   2.040   3.402   0.077
    1MUSC Si0OM 7066   2.201   3.388   0.610
    1MUSC Si0ON 7067   2.553   3.402   3.620
    1MUSC Si0OO 7068   2.209   3.388   1.081
    1MUSC Si0OP 7069   2.560   3.105   3.621
    1MUSC Si0OQ 7070   2.202   2.780   1.080
    1MUSC Si0OR 7071   2.033   3.105   0.077
    1MUSC Si0OS 7072   2.208   2.780   0.610
    1MUSC Si0OT 7073   2.300   2.949   0.077
    1MUSC Si0OU 7074   2.461   2.935   0.610
    1MUSC Si0OV 7075   2.293   2.949   3.620
    1MUSC Si0OW 7076   1.949   2.935   1.081
    1MUSC O01An 7077   2.062   3.391   0.236
    1MUSC O01Ao 7078   2.179   3.399   0.451
    1MUSC O01Ap 7079   2.531   3.391   3.461
    1MUSC O01Aq 7080   2.231   3.399   1.240
    1MUSC O01Ar 7081   2.318   3.211   3.453
    1MUSC O01As 7082   1.924   3.579   1.248
    1MUSC O01At 7083   2.275   3.211   0.245
    1MUSC O01Au 7084   2.486   3.579   0.442
    1MUSC O01Av 7085   2.178   3.459   3.672
    1MUSC O01Aw 7086   2.064   3.330   1.029
    1MUSC O01Ax 7087   2.415   3.459   0.025
    1MUSC O01Ay 7088   2.346   3.330   0.662
    1MUSC O01Az 7089   2.156   3.496   0.006
    1MUSC O01B0 7090   2.085   3.293   0.681
    1MUSC O01B1 7091   2.437   3.496   3.692
    1MUSC O01B2 7092   2.325   3.293   1.009
    1MUSC O01B3 7093   2.056   3.253   0.006
    1MUSC O01B4 7094   2.185   3.537   0.681
    1MUSC O01B5 7095   2.537   3.253   3.691
    1MUSC O01B6 7096   2.225   3.537   1.010
    1MUSC O01B7 7097   2.318   3.569   3.461
    1MUSC O01B8 7098   1.923   3.221   1.240
    1MUSC O01B9 7099   2.275   3.569   0.236
    1MUSC O01BA 7100   2.486   3.221   0.451
    1MUSC O01BB 7101   2.322   2.938   0.236
    1MUSC O01BC 7102   2.439   2.946   0.451
    1MUSC O01BD 7103   2.270   2.938   3.461
    1MUSC O01BE 7104   1.971   2.946   1.240
    1MUSC O01BF 7105   2.578   2.758   3.453
    1MUSC O01BG 7106   2.184   3.126   1.248
    1MUSC O01BH 7107   2.015   2.758   0.245
    1MUSC O01BI 7108   2.226   3.126   0.442
    1MUSC O01BJ 7109   2.438   3.007   3.672
    1MUSC O01BK 7110   2.324   2.877   1.029
    1MUSC O01BL 7111   2.155   3.007   0.025
    1MUSC O01BM 7112   2.086   2.877   0.662
    1MUSC O01BN 7113   2.416   3.044   0.006
    1MUSC O01BO 7114   2.345   2.840   0.681
    1MUSC O01BP 7115   2.177   3.044   3.692
    1MUSC O01BQ 7116   2.065   2.840   1.009
    1MUSC O01BR 7117   2.316   2.800   0.006
    1MUSC O01BS 7118   2.445   3.084   0.681
    1MUSC O01BT 7119   2.276   2.800   3.691
    1MUSC O01BU 7120   1.965   3.084   1.010
    1MUSC O01BV 7121   2.578   3.116   3.461
    1MUSC O01BW 7122   2.184   2.768   1.240
    1MUSC O01BX 7123   2.015   3.116   0.236
    1MUSC O01BY 7124   2.226   2.768   0.451
    1MUSC K004b 7125   2.113   3.259   1.849
    1MUSC K004c 7126   1.762   3.531   2.852
    1MUSC K004d 7127   1.853   2.806   1.849
    1MUSC K004e 7128   2.022   3.078   2.852
    1MUSC Al0CH 7129   1.941   3.242   2.350
    1MUSC Al0CI 7130   1.934   3.547   2.351
    1MUSC Al0CJ 7131   2.286   3.242   1.348
    1MUSC Al0CK 7132   2.110   3.547   3.353
    1MUSC Al0CL 7133   2.201   2.790   2.350
    1MUSC Al0CM 7134   2.195   3.095   2.351
    1MUSC Al0CN 7135   2.026   2.790   1.348
    1MUSC Al0CO 7136   1.849   3.095   3.353
    1MUSC Si0OX 7137   2.117   3.557   1.614
    1MUSC Si0OY 7138   1.759   3.232   3.087
    1MUSC Si0OZ 7139   2.110   3.557   2.084
    1MUSC Si0Oa 7140   2.285   3.232   2.617
    1MUSC Si0Ob 7141   1.857   3.402   2.084
    1MUSC Si0Oc 7142   2.018   3.388   2.617
    1MUSC Si0Od 7143   2.370   3.402   1.613
    1MUSC Si0Oe 7144   2.026   3.388   3.088
    1MUSC Si0Of 7145   2.377   3.105   1.614
    1MUSC Si0Og 7146   2.019   2.780   3.087
    1MUSC Si0Oh 7147   1.850   3.105   2.084
    1MUSC Si0Oi 7148   2.025   2.780   2.617
    1MUSC Si0Oj 7149   2.117   2.949   2.084
    1MUSC Si0Ok 7150   2.278   2.935   2.617
    1MUSC Si0Ol 7151   2.110   2.949   1.613
    1MUSC Si0Om 7152   1.766   2.935   3.088
    1MUSC O01BZ 7153   1.879   3.391   2.243
    1MUSC O01Ba 7154   1.996   3.399   2.458
    1MUSC O01Bb 7155   2.348   3.391   1.454
    1MUSC O01Bc 7156   2.048   3.399   3.247
    1MUSC O01Bd 7157   2.135   3.211   1.446
    1MUSC O01Be 7158   1.741   3.579   3.255
    1MUSC O01Bf 7159   2.092   3.211   2.252
    1MUSC O01Bg 7160   2.303   3.579   2.449
    1MUSC O01Bh 7161   1.995   3.459   1.665
    1MUSC O01Bi 7162   1.881   3.330   3.036
    1MUSC O01Bj 7163   2.232   3.459   2.032
    1MUSC O01Bk 7164   2.163   3.330   2.669
    1MUSC O01Bl 7165   1.973   3.496   2.013
    1MUSC O01Bm 7166   1.902   3.293   2.688
    1MUSC O01Bn 7167   2.254   3.496   1.685
    1MUSC O01Bo 7168   2.142   3.293   3.016
    1MUSC O01Bp 7169   1.873   3.253   2.013
    1MUSC O01Bq 7170   2.002   3.537   2.688
    1MUSC O01Br 7171   2.354   3.253   1.684
    1MUSC O01Bs 7172   2.042   3.537   3.017
    1MUSC O01Bt 7173   2.135   3.569   1.454
    1MUSC O01Bu 7174   1.740   3.221   3.247
    1MUSC O01Bv 7175   2.092   3.569   2.243
    1MUSC O01Bw 7176   2.303   3.221   2.458
    1MUSC O01Bx 7177   2.139   2.938   2.243
    1MUSC O01By 7178   2.256   2.946   2.458
    1MUSC O01Bz 7179   2.087   2.938   1.454
    1MUSC O01C0 7180   1.788   2.946   3.247
    1MUSC O01C1 7181   2.395   2.758   1.446
    1MUSC O01C2 7182   2.001   3.126   3.255
    1MUSC O01C3 7183   1.832   2.758   2.252
    1MUSC O01C4 7184   2.043   3.126   2.449
    1MUSC O01C5 7185   2.255   3.007   1.665
    1MUSC O01C6 7186   2.141   2.877   3.036
    1MUSC O01C7 7187   1.972   3.007   2.032
    1MUSC O01C8 7188   1.903   2.877   2.669
    1MUSC O01C9 7189   2.233   3.044   2.013
    1MUSC O01CA 7190   2.162   2.840   2.688
    1MUSC O01CB 7191   1.994   3.044   1.685
    1MUSC O01CC 7192   1.882   2.840   3.016
    1MUSC O01CD 7193   2.133   2.800   2.013
    1MUSC O01CE 7194   2.262   3.084   2.688
    1MUSC O01CF 7195   2.093   2.800   1.684
    1MUSC O01CG 7196   1.782   3.084   3.017
    1MUSC O01CH 7197   2.395   3.116   1.454
    1MUSC O01CI 7198   2.001   2.768   3.247
    1MUSC O01CJ 7199   1.832   3.116   2.243
    1MUSC O01CK 7200   2.043   2.768   2.458
    1MUSC K004f 7201   1.945   4.436   0.845
    1MUSC K004g 7202   2.205   3.983   0.845
    1MUSC Al0CP 7203   2.124   4.147   0.343
    1MUSC Al0CQ 7204   2.117   4.453   0.344
    1MUSC Al0CR 7205   2.469   4.147   3.355
    1MUSC Al0CS 7206   2.293   4.453   1.346
    1MUSC Al0CT 7207   2.384   3.695   0.343
    1MUSC Al0CU 7208   2.378   4.000   0.344
    1MUSC Al0CV 7209   2.209   3.695   3.355
    1MUSC Al0CW 7210   2.032   4.000   1.346
    1MUSC Si0On 7211   2.300   4.462   3.621
    1MUSC Si0Oo 7212   1.942   4.138   1.080
    1MUSC Si0Op 7213   2.293   4.462   0.077
    1MUSC Si0Oq 7214   2.468   4.138   0.610
    1MUSC Si0Or 7215   2.040   4.307   0.077
    1MUSC Si0Os 7216   2.201   4.293   0.610
    1MUSC Si0Ot 7217   2.553   4.307   3.620
    1MUSC Si0Ou 7218   2.209   4.293   1.081
    1MUSC Si0Ov 7219   2.560   4.010   3.621
    1MUSC Si0Ow 7220   2.202   3.685   1.080
    1MUSC Si0Ox 7221   2.033   4.010   0.077
    1MUSC Si0Oy 7222   2.208   3.685   0.610
    1MUSC Si0Oz 7223   2.300   3.855   0.077
    1MUSC Si0P0 7224   2.461   3.840   0.610
    1MUSC Si0P1 7225   2.293   3.855   3.620
    1MUSC Si0P2 7226   1.949   3.840   1.081
    1MUSC O01CL 7227   2.062   4.296   0.236
    1MUSC O01CM 7228   2.179   4.304   0.451
    1MUSC O01CN 7229   2.531   4.296   3.461
    1MUSC O01CO 7230   2.231   4.304   1.240
    1MUSC O01CP 7231   2.318   4.116   3.453
    1MUSC O01CQ 7232   1.924   4.484   1.248
    1MUSC O01CR 7233   2.275   4.116   0.245
    1MUSC O01CS 7234   2.486   4.484   0.442
    1MUSC O01CT 7235   2.178   4.365   3.672
    1MUSC O01CU 7236   2.064   4.235   1.029
    1MUSC O01CV 7237   2.415   4.365   0.025
    1MUSC O01CW 7238   2.346   4.235   0.662
    1MUSC O01CX 7239   2.156   4.402   0.006
    1MUSC O01CY 7240   2.085   4.198   0.681
    1MUSC O01CZ 7241   2.437   4.402   3.692
    1MUSC O01Ca 7242   2.325   4.198   1.009
    1MUSC O01Cb 7243   2.056   4.158   0.006
    1MUSC O01Cc 7244   2.185   4.442   0.681
    1MUSC O01Cd 7245   2.537   4.158   3.691
    1MUSC O01Ce 7246   2.225   4.442   1.010
    1MUSC O01Cf 7247   2.318   4.474   3.461
    1MUSC O01Cg 7248   1.923   4.126   1.240
    1MUSC O01Ch 7249   2.275   4.474   0.236
    1MUSC O01Ci 7250   2.486   4.126   0.451
    1MUSC O01Cj 7251   2.322   3.843   0.236
    1MUSC O01Ck 7252   2.439   3.852   0.451
    1MUSC O01Cl 7253   2.270   3.843   3.461
    1MUSC O01Cm 7254   1.971   3.852   1.240
    1MUSC O01Cn 7255   2.578   3.663   3.453
    1MUSC O01Co 7256   2.184   4.031   1.248
    1MUSC O01Cp 7257   2.015   3.663   0.245
    1MUSC O01Cq 7258   2.226   4.031   0.442
    1MUSC O01Cr 7259   2.438   3.912   3.672
    1MUSC O01Cs 7260   2.324   3.783   1.029
    1MUSC O01Ct 7261   2.155   3.912   0.025
    1MUSC O01Cu 7262   2.086   3.783   0.662
    1MUSC O01Cv 7263   2.416   3.949   0.006
    1MUSC O01Cw 7264   2.345   3.746   0.681
    1MUSC O01Cx 7265   2.177   3.949   3.692
    1MUSC O01Cy 7266   2.065   3.746   1.009
    1MUSC O01Cz 7267   2.316   3.705   0.006
    1MUSC O01D0 7268   2.445   3.989   0.681
    1MUSC O01D1 7269   2.276   3.705   3.691
    1MUSC O01D2 7270   1.965   3.989   1.010
    1MUSC O01D3 7271   2.578   4.021   3.461
    1MUSC O01D4 7272   2.184   3.673   1.240
    1MUSC O01D5 7273   2.015   4.021   0.236
    1MUSC O01D6 7274   2.226   3.673   0.451
    1MUSC K004h 7275   2.113   4.164   1.849
    1MUSC K004i 7276   1.762   4.436   2.852
    1MUSC K004j 7277   1.853   3.711   1.849
    1MUSC K004k 7278   2.022   3.983   2.852
    1MUSC Al0CX 7279   1.941   4.147   2.350
    1MUSC Al0CY 7280   1.934   4.453   2.351
    1MUSC Al0CZ 7281   2.286   4.147   1.348
    1MUSC Al0Ca 7282   2.110   4.453   3.353
    1MUSC Al0Cb 7283   2.201   3.695   2.350
    1MUSC Al0Cc 7284   2.195   4.000   2.351
    1MUSC Al0Cd 7285   2.026   3.695   1.348
    1MUSC Al0Ce 7286   1.849   4.000   3.353
    1MUSC Si0P3 7287   2.117   4.462   1.614
    1MUSC Si0P4 7288   1.759   4.138   3.087
    1MUSC Si0P5 7289   2.110   4.462   2.084
    1MUSC Si0P6 7290   2.285   4.138   2.617
    1MUSC Si0P7 7291   1.857   4.307   2.084
    1MUSC Si0P8 7292   2.018   4.293   2.617
    1MUSC Si0P9 7293   2.370   4.307   1.613
    1MUSC Si0PA 7294   2.026   4.293   3.088
    1MUSC Si0PB 7295   2.377   4.010   1.614
    1MUSC Si0PC 7296   2.019   3.685   3.087
    1MUSC Si0PD 7297   1.850   4.010   2.084
    1MUSC Si0PE 7298   2.025   3.685   2.617
    1MUSC Si0PF 7299   2.117   3.855   2.084
    1MUSC Si0PG 7300   2.278   3.840   2.617
    1MUSC Si0PH 7301   2.110   3.855   1.613
    1MUSC Si0PI 7302   1.766   3.840   3.088
    1MUSC O01D7 7303   1.879   4.296   2.243
    1MUSC O01D8 7304   1.996   4.304   2.458
    1MUSC O01D9 7305   2.348   4.296   1.454
    1MUSC O01DA 7306   2.048   4.304   3.247
    1MUSC O01DB 7307   2.135   4.116   1.446
    1MUSC O01DC 7308   1.741   4.484   3.255
    1MUSC O01DD 7309   2.092   4.116   2.252
    1MUSC O01DE 7310   2.303   4.484   2.449
    1MUSC O01DF 7311   1.995   4.365   1.665
    1MUSC O01DG 7312   1.881   4.235   3.036
    1MUSC O01DH 7313   2.232   4.365   2.032
    1MUSC O01DI 7314   2.163   4.235   2.669
    1MUSC O01DJ 7315   1.973   4.402   2.013
    1MUSC O01DK 7316   1.902   4.198   2.688
    1MUSC O01DL 7317   2.254   4.402   1.685
    1MUSC O01DM 7318   2.142   4.198   3.016
    1MUSC O01DN 7319   1.873   4.158   2.013
    1MUSC O01DO 7320   2.002   4.442   2.688
    1MUSC O01DP 7321   2.354   4.158   1.684
    1MUSC O01DQ 7322   2.042   4.442   3.017
    1MUSC O01DR 7323   2.135   4.474   1.454
    1MUSC O01DS 7324   1.740   4.126   3.247
    1MUSC O01DT 7325   2.092   4.474   2.243
    1MUSC O01DU 7326   2.303   4.126   2.458
    1MUSC O01DV 7327   2.139   3.843   2.243
    1MUSC O01DW 7328   2.256   3.852   2.458
    1MUSC O01DX 7329   2.087   3.843   1.454
    1MUSC O01DY 7330   1.788   3.852   3.247
    1MUSC O01DZ 7331   2.395   3.663   1.446
    1MUSC O01Da 7332   2.001   4.031   3.255
    1MUSC O01Db 7333   1.832   3.663   2.252
    1MUSC O01Dc 7334   2.043   4.031   2.449
    1MUSC O01Dd 7335   2.255   3.912   1.665
    1MUSC O01De 7336   2.141   3.783   3.036
    1MUSC O01Df 7337   1.972   3.912   2.032
    1MUSC O01Dg 7338   1.903   3.783   2.669
    1MUSC O01Dh 7339   2.233   3.949   2.013
    1MUSC O01Di 7340   2.162   3.746   2.688
    1MUSC O01Dj 7341   1.994   3.949   1.685
    1MUSC O01Dk 7342   1.882   3.746   3.016
    1MUSC O01Dl 7343   2.133   3.705   2.013
    1MUSC O01Dm 7344   2.262   3.989   2.688
    1MUSC O01Dn 7345   2.093   3.705   1.684
    1MUSC O01Do 7346   1.782   3.989   3.017
    1MUSC O01Dp 7347   2.395   4.021   1.454
    1MUSC O01Dq 7348   2.001   3.673   3.247
    1MUSC O01Dr 7349   1.832   4.021   2.243
    1MUSC O01Ds 7350   2.043   3.673   2.458
    1MUSC K004l 7351   1.945   5.341   0.845
    1MUSC K004m 7352   2.205   4.889   0.845
    1MUSC Al0Cf 7353   2.124   5.053   0.343
    1MUSC Al0Cg 7354   2.117   5.358   0.344
    1MUSC Al0Ch 7355   2.469   5.053   3.355
    1MUSC Al0Ci 7356   2.293   5.358   1.346
    1MUSC Al0Cj 7357   2.384   4.600   0.343
    1MUSC Al0Ck 7358   2.378   4.905   0.344
    1MUSC Al0Cl 7359   2.209   4.600   3.355
    1MUSC Al0Cm 7360   2.032   4.905   1.346
    1MUSC Si0PJ 7361   2.300   5.368   3.621
    1MUSC Si0PK 7362   1.942   5.043   1.080
    1MUSC Si0PL 7363   2.293   5.368   0.077
    1MUSC Si0PM 7364   2.468   5.043   0.610
    1MUSC Si0PN 7365   2.040   5.212   0.077
    1MUSC Si0PO 7366   2.201   5.198   0.610
    1MUSC Si0PP 7367   2.553   5.212   3.620
    1MUSC Si0PQ 7368   2.209   5.198   1.081
    1MUSC Si0PR 7369   2.560   4.915   3.621
    1MUSC Si0PS 7370   2.202   4.590   1.080
    1MUSC Si0PT 7371   2.033   4.915   0.077
    1MUSC Si0PU 7372   2.208   4.590   0.610
    1MUSC Si0PV 7373   2.300   4.760   0.077
    1MUSC Si0PW 7374   2.461   4.746   0.610
    1MUSC Si0PX 7375   2.293   4.760   3.620
    1MUSC Si0PY 7376   1.949   4.746   1.081
    1MUSC O01Dt 7377   2.062   5.201   0.236
    1MUSC O01Du 7378   2.179   5.209   0.451
    1MUSC O01Dv 7379   2.531   5.201   3.461
    1MUSC O01Dw 7380   2.231   5.209   1.240
    1MUSC O01Dx 7381   2.318   5.021   3.453
    1MUSC O01Dy 7382   1.924   5.389   1.248
    1MUSC O01Dz 7383   2.275   5.021   0.245
    1MUSC O01E0 7384   2.486   5.389   0.442
    1MUSC O01E1 7385   2.178   5.270   3.672
    1MUSC O01E2 7386   2.064   5.141   1.029
    1MUSC O01E3 7387   2.415   5.270   0.025
    1MUSC O01E4 7388   2.346   5.141   0.662
    1MUSC O01E5 7389   2.156   5.307   0.006
    1MUSC O01E6 7390   2.085   5.104   0.681
    1MUSC O01E7 7391   2.437   5.307   3.692
    1MUSC O01E8 7392   2.325   5.104   1.009
    1MUSC O01E9 7393   2.056   5.063   0.006
    1MUSC O01EA 7394   2.185   5.347   0.681
    1MUSC O01EB 7395   2.537   5.063   3.691
    1MUSC O01EC 7396   2.225   5.347   1.010
    1MUSC O01ED 7397   2.318   5.379   3.461
    1MUSC O01EE 7398   1.923   5.031   1.240
    1MUSC O01EF 7399   2.275   5.379   0.236
    1MUSC O01EG 7400   2.486   5.031   0.451
    1MUSC O01EH 7401   2.322   4.749   0.236
    1MUSC O01EI 7402   2.439   4.757   0.451
    1MUSC O01EJ 7403   2.270   4.749   3.461
    1MUSC O01EK 7404   1.971   4.757   1.240
    1MUSC O01EL 7405   2.578   4.569   3.453
    1MUSC O01EM 7406   2.184   4.937   1.248
    1MUSC O01EN 7407   2.015   4.569   0.245
    1MUSC O01EO 7408   2.226   4.937   0.442
    1MUSC O01EP 7409   2.438   4.817   3.672
    1MUSC O01EQ 7410   2.324   4.688   1.029
    1MUSC O01ER 7411   2.155   4.817   0.025
    1MUSC O01ES 7412   2.086   4.688   0.662
    1MUSC O01ET 7413   2.416   4.854   0.006
    1MUSC O01EU 7414   2.345   4.651   0.681
    1MUSC O01EV 7415   2.177   4.854   3.692
    1MUSC O01EW 7416   2.065   4.651   1.009
    1MUSC O01EX 7417   2.316   4.611   0.006
    1MUSC O01EY 7418   2.445   4.895   0.681
    1MUSC O01EZ 7419   2.276   4.611   3.691
    1MUSC O01Ea 7420   1.965   4.895   1.010
    1MUSC O01Eb 7421   2.578   4.927   3.461
    1MUSC O01Ec 7422   2.184   4.579   1.240
    1MUSC O01Ed 7423   2.015   4.927   0.236
    1MUSC O01Ee 7424   2.226   4.579   0.451
    1MUSC K004n 7425   2.113   5.069   1.849
    1MUSC K004o 7426   1.762   5.341   2.852
    1MUSC K004p 7427   1.853   4.617   1.849
    1MUSC K004q 7428   2.022   4.889   2.852
    1MUSC Al0Cn 7429   1.941   5.053   2.350
    1MUSC Al0Co 7430   1.934   5.358   2.351
    1MUSC Al0Cp 7431   2.286   5.053   1.348
    1MUSC Al0Cq 7432   2.110   5.358   3.353
    1MUSC Al0Cr 7433   2.201   4.600   2.350
    1MUSC Al0Cs 7434   2.195   4.905   2.351
    1MUSC Al0Ct 7435   2.026   4.600   1.348
    1MUSC Al0Cu 7436   1.849   4.905   3.353
    1MUSC Si0PZ 7437   2.117   5.368   1.614
    1MUSC Si0Pa 7438   1.759   5.043   3.087
    1MUSC Si0Pb 7439   2.110   5.368   2.084
    1MUSC Si0Pc 7440   2.285   5.043   2.617
    1MUSC Si0Pd 7441   1.857   5.212   2.084
    1MUSC Si0Pe 7442   2.018   5.198   2.617
    1MUSC Si0Pf 7443   2.370   5.212   1.613
    1MUSC Si0Pg 7444   2.026   5.198   3.088
    1MUSC Si0Ph 7445   2.377   4.915   1.614
    1MUSC Si0Pi 7446   2.019   4.590   3.087
    1MUSC Si0Pj 7447   1.850   4.915   2.084
    1MUSC Si0Pk 7448   2.025   4.590   2.617
    1MUSC Si0Pl 7449   2.117   4.760   2.084
    1MUSC Si0Pm 7450   2.278   4.746   2.617
    1MUSC Si0Pn 7451   2.110   4.760   1.613
    1MUSC Si0Po 7452   1.766   4.746   3.088
    1MUSC O01Ef 7453   1.879   5.201   2.243
    1MUSC O01Eg 7454   1.996   5.209   2.458
    1MUSC O01Eh 7455   2.348   5.201   1.454
    1MUSC O01Ei 7456   2.048   5.209   3.247
    1MUSC O01Ej 7457   2.135   5.021   1.446
    1MUSC O01Ek 7458   1.741   5.389   3.255
    1MUSC O01El 7459   2.092   5.021   2.252
    1MUSC O01Em 7460   2.303   5.389   2.449
    1MUSC O01En 7461   1.995   5.270   1.665
    1MUSC O01Eo 7462   1.881   5.141   3.036
    1MUSC O01Ep 7463   2.232   5.270   2.032
    1MUSC O01Eq 7464   2.163   5.141   2.669
    1MUSC O01Er 7465   1.973   5.307   2.013
    1MUSC O01Es 7466   1.902   5.104   2.688
    1MUSC O01Et 7467   2.254   5.307   1.685
    1MUSC O01Eu 7468   2.142   5.104   3.016
    1MUSC O01Ev 7469   1.873   5.063   2.013
    1MUSC O01Ew 7470   2.002   5.347   2.688
    1MUSC O01Ex 7471   2.354   5.063   1.684
    1MUSC O01Ey 7472   2.042   5.347   3.017
    1MUSC O01Ez 7473   2.135   5.379   1.454
    1MUSC O01F0 7474   1.740   5.031   3.247
    1MUSC O01F1 7475   2.092   5.379   2.243
    1MUSC O01F2 7476   2.303   5.031   2.458
    1MUSC O01F3 7477   2.139   4.749   2.243
    1MUSC O01F4 7478   2.256   4.757   2.458
    1MUSC O01F5 7479   2.087   4.749   1.454
    1MUSC O01F6 7480   1.788   4.757   3.247
    1MUSC O01F7 7481   2.395   4.569   1.446
    1MUSC O01F8 7482   2.001   4.937   3.255
    1MUSC O01F9 7483   1.832   4.569   2.252
    1MUSC O01FA 7484   2.043   4.937   2.449
    1MUSC O01FB 7485   2.255   4.817   1.665
    1MUSC O01FC 7486   2.141   4.688   3.036
    1MUSC O01FD 7487   1.972   4.817   2.032
    1MUSC O01FE 7488   1.903   4.688   2.669
    1MUSC O01FF 7489   2.233   4.854   2.013
    1MUSC O01FG 7490   2.162   4.651   2.688
    1MUSC O01FH 7491   1.994   4.854   1.685
    1MUSC O01FI 7492   1.882   4.651   3.016
    1MUSC O01FJ 7493   2.133   4.611   2.013
    1MUSC O01FK 7494   2.262   4.895   2.688
    1MUSC O01FL 7495   2.093   4.611   1.684
    1MUSC O01FM 7496   1.782   4.895   3.017
    1MUSC O01FN 7497   2.395   4.927   1.454
    1MUSC O01FO 7498   2.001   4.579   3.247
    1MUSC O01FP 7499   1.832   4.927   2.243
    1MUSC O01FQ 7500   2.043   4.579   2.458
    1MUSC K004r 7501   1.945   6.247   0.845
    1MUSC K004s 7502   2.205   5.794   0.845
    1MUSC Al0Cv 7503   2.124   5.958   0.343
    1MUSC Al0Cw 7504   2.117   6.263   0.344
    1MUSC Al0Cx 7505   2.469   5.958   3.355
    1MUSC Al0Cy 7506   2.293   6.263   1.346
    1MUSC Al0Cz 7507   2.384   5.505   0.343
    1MUSC Al0D0 7508   2.378   5.810   0.344
    1MUSC Al0D1 7509   2.209   5.505   3.355
    1MUSC Al0D2 7510   2.032   5.810   1.346
    1MUSC Si0Pp 7511   2.300   6.273   3.621
    1MUSC Si0Pq 7512   1.942   5.948   1.080
    1MUSC Si0Pr 7513   2.293   6.273   0.077
    1MUSC Si0Ps 7514   2.468   5.948   0.610
    1MUSC Si0Pt 7515   2.040   6.118   0.077
    1MUSC Si0Pu 7516   2.201   6.103   0.610
    1MUSC Si0Pv 7517   2.553   6.118   3.620
    1MUSC Si0Pw 7518   2.209   6.103   1.081
    1MUSC Si0Px 7519   2.560   5.820   3.621
    1MUSC Si0Py 7520   2.202   5.495   1.080
    1MUSC Si0Pz 7521   2.033   5.820   0.077
    1MUSC Si0Q0 7522   2.208   5.495   0.610
    1MUSC Si0Q1 7523   2.300   5.665   0.077
    1MUSC Si0Q2 7524   2.461   5.651   0.610
    1MUSC Si0Q3 7525   2.293   5.665   3.620
    1MUSC Si0Q4 7526   1.949   5.651   1.081
    1MUSC O01FR 7527   2.062   6.106   0.236
    1MUSC O01FS 7528   2.179   6.115   0.451
    1MUSC O01FT 7529   2.531   6.106   3.461
    1MUSC O01FU 7530   2.231   6.115   1.240
    1MUSC O01FV 7531   2.318   5.927   3.453
    1MUSC O01FW 7532   1.924   6.295   1.248
    1MUSC O01FX 7533   2.275   5.927   0.245
    1MUSC O01FY 7534   2.486   6.295   0.442
    1MUSC O01FZ 7535   2.178   6.175   3.672
    1MUSC O01Fa 7536   2.064   6.046   1.029
    1MUSC O01Fb 7537   2.415   6.175   0.025
    1MUSC O01Fc 7538   2.346   6.046   0.662
    1MUSC O01Fd 7539   2.156   6.212   0.006
    1MUSC O01Fe 7540   2.085   6.009   0.681
    1MUSC O01Ff 7541   2.437   6.212   3.692
    1MUSC O01Fg 7542   2.325   6.009   1.009
    1MUSC O01Fh 7543   2.056   5.969   0.006
    1MUSC O01Fi 7544   2.185   6.253   0.681
    1MUSC O01Fj 7545   2.537   5.969   3.691
    1MUSC O01Fk 7546   2.225   6.253   1.010
    1MUSC O01Fl 7547   2.318   6.285   3.461
    1MUSC O01Fm 7548   1.923   5.937   1.240
    1MUSC O01Fn 7549   2.275   6.285   0.236
    1MUSC O01Fo 7550   2.486   5.937   0.451
    1MUSC O01Fp 7551   2.322   5.654   0.236
    1MUSC O01Fq 7552   2.439   5.662   0.451
    1MUSC O01Fr 7553   2.270   5.654   3.461
    1MUSC O01Fs 7554   1.971   5.662   1.240
    1MUSC O01Ft 7555   2.578   5.474   3.453
    1MUSC O01Fu 7556   2.184   5.842   1.248
    1MUSC O01Fv 7557   2.015   5.474   0.245
    1MUSC O01Fw 7558   2.226   5.842   0.442
    1MUSC O01Fx 7559   2.438   5.723   3.672
    1MUSC O01Fy 7560   2.324   5.593   1.029
    1MUSC O01Fz 7561   2.155   5.723   0.025
    1MUSC O01G0 7562   2.086   5.593   0.662
    1MUSC O01G1 7563   2.416   5.760   0.006
    1MUSC O01G2 7564   2.345   5.556   0.681
    1MUSC O01G3 7565   2.177   5.760   3.692
    1MUSC O01G4 7566   2.065   5.556   1.009
    1MUSC O01G5 7567   2.316   5.516   0.006
    1MUSC O01G6 7568   2.445   5.800   0.681
    1MUSC O01G7 7569   2.276   5.516   3.691
    1MUSC O01G8 7570   1.965   5.800   1.010
    1MUSC O01G9 7571   2.578   5.832   3.461
    1MUSC O01GA 7572   2.184   5.484   1.240
    1MUSC O01GB 7573   2.015   5.832   0.236
    1MUSC O01GC 7574   2.226   5.484   0.451
    1MUSC K004t 7575   2.113   5.975   1.849
    1MUSC K004u 7576   1.762   6.247   2.852
    1MUSC K004v 7577   1.853   5.522   1.849
    1MUSC K004w 7578   2.022   5.794   2.852
    1MUSC Al0D3 7579   1.941   5.958   2.350
    1MUSC Al0D4 7580   1.934   6.263   2.351
    1MUSC Al0D5 7581   2.286   5.958   1.348
    1MUSC Al0D6 7582   2.110   6.263   3.353
    1MUSC Al0D7 7583   2.201   5.505   2.350
    1MUSC Al0D8 7584   2.195   5.810   2.351
    1MUSC Al0D9 7585   2.026   5.505   1.348
    1MUSC Al0DA 7586   1.849   5.810   3.353
    1MUSC Si0Q5 7587   2.117   6.273   1.614
    1MUSC Si0Q6 7588   1.759   5.948   3.087
    1MUSC Si0Q7 7589   2.110   6.273   2.084
    1MUSC Si0Q8 7590   2.285   5.948   2.617
    1MUSC Si0Q9 7591   1.857   6.118   2.084
    1MUSC Si0QA 7592   2.018   6.103   2.617
    1MUSC Si0QB 7593   2.370   6.118   1.613
    1MUSC Si0QC 7594   2.026   6.103   3.088
    1MUSC Si0QD 7595   2.377   5.820   1.614
    1MUSC Si0QE 7596   2.019   5.495   3.087
    1MUSC Si0QF 7597   1.850   5.820   2.084
    1MUSC Si0QG 7598   2.025   5.495   2.617
    1MUSC Si0QH 7599   2.117   5.665   2.084
    1MUSC Si0QI 7600   2.278   5.651   2.617
    1MUSC Si0QJ 7601   2.110   5.665   1.613
    1MUSC Si0QK 7602   1.766   5.651   3.088
    1MUSC O01GD 7603   1.879   6.106   2.243
    1MUSC O01GE 7604   1.996   6.115   2.458
    1MUSC O01GF 7605   2.348   6.106   1.454
    1MUSC O01GG 7606   2.048   6.115   3.247
    1MUSC O01GH 7607   2.135   5.927   1.446
    1MUSC O01GI 7608   1.741   6.295   3.255
    1MUSC O01GJ 7609   2.092   5.927   2.252
    1MUSC O01GK 7610   2.303   6.295   2.449
    1MUSC O01GL 7611   1.995   6.175   1.665
    1MUSC O01GM 7612   1.881   6.046   3.036
    1MUSC O01GN 7613   2.232   6.175   2.032
    1MUSC O01GO 7614   2.163   6.046   2.669
    1MUSC O01GP 7615   1.973   6.212   2.013
    1MUSC O01GQ 7616   1.902   6.009   2.688
    1MUSC O01GR 7617   2.254   6.212   1.685
    1MUSC O01GS 7618   2.142   6.009   3.016
    1MUSC O01GT 7619   1.873   5.969   2.013
    1MUSC O01GU 7620   2.002   6.253   2.688
    1MUSC O01GV 7621   2.354   5.969   1.684
    1MUSC O01GW 7622   2.042   6.253   3.017
    1MUSC O01GX 7623   2.135   6.285   1.454
    1MUSC O01GY 7624   1.740   5.937   3.247
    1MUSC O01GZ 7625   2.092   6.285   2.243
    1MUSC O01Ga 7626   2.303   5.937   2.458
    1MUSC O01Gb 7627   2.139   5.654   2.243
    1MUSC O01Gc 7628   2.256   5.662   2.458
    1MUSC O01Gd 7629   2.087   5.654   1.454
    1MUSC O01Ge 7630   1.788   5.662   3.247
    1MUSC O01Gf 7631   2.395   5.474   1.446
    1MUSC O01Gg 7632   2.001   5.842   3.255
    1MUSC O01Gh 7633   1.832   5.474   2.252
    1MUSC O01Gi 7634   2.043   5.842   2.449
    1MUSC O01Gj 7635   2.255   5.723   1.665
    1MUSC O01Gk 7636   2.141   5.593   3.036
    1MUSC O01Gl 7637   1.972   5.723   2.032
    1MUSC O01Gm 7638   1.903   5.593   2.669
    1MUSC O01Gn 7639   2.233   5.760   2.013
    1MUSC O01Go 7640   2.162   5.556   2.688
    1MUSC O01Gp 7641   1.994   5.760   1.685
    1MUSC O01Gq 7642   1.882   5.556   3.016
    1MUSC O01Gr 7643   2.133   5.516   2.013
    1MUSC O01Gs 7644   2.262   5.800   2.688
    1MUSC O01Gt 7645   2.093   5.516   1.684
    1MUSC O01Gu 7646   1.782   5.800   3.017
    1MUSC O01Gv 7647   2.395   5.832   1.454
    1MUSC O01Gw 7648   2.001   5.484   3.247
    1MUSC O01Gx 7649   1.832   5.832   2.243
    1MUSC O01Gy 7650   2.043   5.484   2.458
    1MUSC K004x 7651   1.945   7.152   0.845
    1MUSC K004y 7652   2.205   6.699   0.845
    1MUSC Al0DB 7653   2.124   6.863   0.343
    1MUSC Al0DC 7654   2.117   7.168   0.344
    1MUSC Al0DD 7655   2.469   6.863   3.355
    1MUSC Al0DE 7656   2.293   7.168   1.346
    1MUSC Al0DF 7657   2.384   6.411   0.343
    1MUSC Al0DG 7658   2.378   6.716   0.344
    1MUSC Al0DH 7659   2.209   6.411   3.355
    1MUSC Al0DI 7660   2.032   6.716   1.346
    1MUSC Si0QL 7661   2.300   7.178   3.621
    1MUSC Si0QM 7662   1.942   6.853   1.080
    1MUSC Si0QN 7663   2.293   7.178   0.077
    1MUSC Si0QO 7664   2.468   6.853   0.610
    1MUSC Si0QP 7665   2.040   7.023   0.077
    1MUSC Si0QQ 7666   2.201   7.009   0.610
    1MUSC Si0QR 7667   2.553   7.023   3.620
    1MUSC Si0QS 7668   2.209   7.009   1.081
    1MUSC Si0QT 7669   2.560   6.726   3.621
    1MUSC Si0QU 7670   2.202   6.401   1.080
    1MUSC Si0QV 7671   2.033   6.726   0.077
    1MUSC Si0QW 7672   2.208   6.401   0.610
    1MUSC Si0QX 7673   2.300   6.570   0.077
    1MUSC Si0QY 7674   2.461   6.556   0.610
    1MUSC Si0QZ 7675   2.293   6.570   3.620
    1MUSC Si0Qa 7676   1.949   6.556   1.081
    1MUSC O01Gz 7677   2.062   7.012   0.236
    1MUSC O01H0 7678   2.179   7.020   0.451
    1MUSC O01H1 7679   2.531   7.012   3.461
    1MUSC O01H2 7680   2.231   7.020   1.240
    1MUSC O01H3 7681   2.318   6.832   3.453
    1MUSC O01H4 7682   1.924   7.200   1.248
    1MUSC O01H5 7683   2.275   6.832   0.245
    1MUSC O01H6 7684   2.486   7.200   0.442
    1MUSC O01H7 7685   2.178   7.080   3.672
    1MUSC O01H8 7686   2.064   6.951   1.029
    1MUSC O01H9 7687   2.415   7.080   0.025
    1MUSC O01HA 7688   2.346   6.951   0.662
    1MUSC O01HB 7689   2.156   7.117   0.006
    1MUSC O01HC 7690   2.085   6.914   0.681
    1MUSC O01HD 7691   2.437   7.117   3.692
    1MUSC O01HE 7692   2.325   6.914   1.009
    1MUSC O01HF 7693   2.056   6.874   0.006
    1MUSC O01HG 7694   2.185   7.158   0.681
    1MUSC O01HH 7695   2.537   6.874   3.691
    1MUSC O01HI 7696   2.225   7.158   1.010
    1MUSC O01HJ 7697   2.318   7.190   3.461
    1MUSC O01HK 7698   1.923   6.842   1.240
    1MUSC O01HL 7699   2.275   7.190   0.236
    1MUSC O01HM 7700   2.486   6.842   0.451
    1MUSC O01HN 7701   2.322   6.559   0.236
    1MUSC O01HO 7702   2.439   6.567   0.451
    1MUSC O01HP 7703   2.270   6.559   3.461
    1MUSC O01HQ 7704   1.971   6.567   1.240
    1MUSC O01HR 7705   2.578   6.379   3.453
    1MUSC O01HS 7706   2.184   6.747   1.248
    1MUSC O01HT 7707   2.015   6.379   0.245
    1MUSC O01HU 7708   2.226   6.747   0.442
    1MUSC O01HV 7709   2.438   6.628   3.672
    1MUSC O01HW 7710   2.324   6.499   1.029
    1MUSC O01HX 7711   2.155   6.628   0.025
    1MUSC O01HY 7712   2.086   6.499   0.662
    1MUSC O01HZ 7713   2.416   6.665   0.006
    1MUSC O01Ha 7714   2.345   6.462   0.681
    1MUSC O01Hb 7715   2.177   6.665   3.692
    1MUSC O01Hc 7716   2.065   6.462   1.009
    1MUSC O01Hd 7717   2.316   6.421   0.006
    1MUSC O01He 7718   2.445   6.705   0.681
    1MUSC O01Hf 7719   2.276   6.421   3.691
    1MUSC O01Hg 7720   1.965   6.705   1.010
    1MUSC O01Hh 7721   2.578   6.737   3.461
    1MUSC O01Hi 7722   2.184   6.389   1.240
    1MUSC O01Hj 7723   2.015   6.737   0.236
    1MUSC O01Hk 7724   2.226   6.389   0.451
    1MUSC K004z 7725   2.113   6.880   1.849
    1MUSC K0050 7726   1.762   7.152   2.852
    1MUSC K0051 7727   1.853   6.427   1.849
    1MUSC K0052 7728   2.022   6.699   2.852
    1MUSC Al0DJ 7729   1.941   6.863   2.350
    1MUSC Al0DK 7730   1.934   7.168   2.351
    1MUSC Al0DL 7731   2.286   6.863   1.348
    1MUSC Al0DM 7732   2.110   7.168   3.353
    1MUSC Al0DN 7733   2.201   6.411   2.350
    1MUSC Al0DO 7734   2.195   6.716   2.351
    1MUSC Al0DP 7735   2.026   6.411   1.348
    1MUSC Al0DQ 7736   1.849   6.716   3.353
    1MUSC Si0Qb 7737   2.117   7.178   1.614
    1MUSC Si0Qc 7738   1.759   6.853   3.087
    1MUSC Si0Qd 7739   2.110   7.178   2.084
    1MUSC Si0Qe 7740   2.285   6.853   2.617
    1MUSC Si0Qf 7741   1.857   7.023   2.084
    1MUSC Si0Qg 7742   2.018   7.009   2.617
    1MUSC Si0Qh 7743   2.370   7.023   1.613
    1MUSC Si0Qi 7744   2.026   7.009   3.088
    1MUSC Si0Qj 7745   2.377   6.726   1.614
    1MUSC Si0Qk 7746   2.019   6.401   3.087
    1MUSC Si0Ql 7747   1.850   6.726   2.084
    1MUSC Si0Qm 7748   2.025   6.401   2.617
    1MUSC Si0Qn 7749   2.117   6.570   2.084
    1MUSC Si0Qo 7750   2.278   6.556   2.617
    1MUSC Si0Qp 7751   2.110   6.570   1.613
    1MUSC Si0Qq 7752   1.766   6.556   3.088
    1MUSC O01Hl 7753   1.879   7.012   2.243
    1MUSC O01Hm 7754   1.996   7.020   2.458
    1MUSC O01Hn 7755   2.348   7.012   1.454
    1MUSC O01Ho 7756   2.048   7.020   3.247
    1MUSC O01Hp 7757   2.135   6.832   1.446
    1MUSC O01Hq 7758   1.741   7.200   3.255
    1MUSC O01Hr 7759   2.092   6.832   2.252
    1MUSC O01Hs 7760   2.303   7.200   2.449
    1MUSC O01Ht 7761   1.995   7.080   1.665
    1MUSC O01Hu 7762   1.881   6.951   3.036
    1MUSC O01Hv 7763   2.232   7.080   2.032
    1MUSC O01Hw 7764   2.163   6.951   2.669
    1MUSC O01Hx 7765   1.973   7.117   2.013
    1MUSC O01Hy 7766   1.902   6.914   2.688
    1MUSC O01Hz 7767   2.254   7.117   1.685
    1MUSC O01I0 7768   2.142   6.914   3.016
    1MUSC O01I1 7769   1.873   6.874   2.013
    1MUSC O01I2 7770   2.002   7.158   2.688
    1MUSC O01I3 7771   2.354   6.874   1.684
    1MUSC O01I4 7772   2.042   7.158   3.017
    1MUSC O01I5 7773   2.135   7.190   1.454
    1MUSC O01I6 7774   1.740   6.842   3.247
    1MUSC O01I7 7775   2.092   7.190   2.243
    1MUSC O01I8 7776   2.303   6.842   2.458
    1MUSC O01I9 7777   2.139   6.559   2.243
    1MUSC O01IA 7778   2.256   6.567   2.458
    1MUSC O01IB 7779   2.087   6.559   1.454
    1MUSC O01IC 7780   1.788   6.567   3.247
    1MUSC O01ID 7781   2.395   6.379   1.446
    1MUSC O01IE 7782   2.001   6.747   3.255
    1MUSC O01IF 7783   1.832   6.379   2.252
    1MUSC O01IG 7784   2.043   6.747   2.449
    1MUSC O01IH 7785   2.255   6.628   1.665
    1MUSC O01II 7786   2.141   6.499   3.036
    1MUSC O01IJ 7787   1.972   6.628   2.032
    1MUSC O01IK 7788   1.903   6.499   2.669
    1MUSC O01IL 7789   2.233   6.665   2.013
    1MUSC O01IM 7790   2.162   6.462   2.688
    1MUSC O01IN 7791   1.994   6.665   1.685
    1MUSC O01IO 7792   1.882   6.462   3.016
    1MUSC O01IP 7793   2.133   6.421   2.013
    1MUSC O01IQ 7794   2.262   6.705   2.688
    1MUSC O01IR 7795   2.093   6.421   1.684
    1MUSC O01IS 7796   1.782   6.705   3.017
    1MUSC O01IT 7797   2.395   6.737   1.454
    1MUSC O01IU 7798   2.001   6.389   3.247
    1MUSC O01IV 7799   1.832   6.737   2.243
    1MUSC O01IW 7800   2.043   6.389   2.458
    1MUSC K0053 7801   1.945   8.057   0.845
    1MUSC K0054 7802   2.205   7.605   0.845
    1MUSC Al0DR 7803   2.124   7.769   0.343
    1MUSC Al0DS 7804   2.117   8.074   0.344
    1MUSC Al0DT 7805   2.469   7.769   3.355
    1MUSC Al0DU 7806   2.293   8.074   1.346
    1MUSC Al0DV 7807   2.384   7.316   0.343
    1MUSC Al0DW 7808   2.378   7.621   0.344
    1MUSC Al0DX 7809   2.209   7.316   3.355
    1MUSC Al0DY 7810   2.032   7.621   1.346
    1MUSC Si0Qr 7811   2.300   8.084   3.621
    1MUSC Si0Qs 7812   1.942   7.759   1.080
    1MUSC Si0Qt 7813   2.293   8.084   0.077
    1MUSC Si0Qu 7814   2.468   7.759   0.610
    1MUSC Si0Qv 7815   2.040   7.928   0.077
    1MUSC Si0Qw 7816   2.201   7.914   0.610
    1MUSC Si0Qx 7817   2.553   7.928   3.620
    1MUSC Si0Qy 7818   2.209   7.914   1.081
    1MUSC Si0Qz 7819   2.560   7.631   3.621
    1MUSC Si0R0 7820   2.202   7.306   1.080
    1MUSC Si0R1 7821   2.033   7.631   0.077
    1MUSC Si0R2 7822   2.208   7.306   0.610
    1MUSC Si0R3 7823   2.300   7.476   0.077
    1MUSC Si0R4 7824   2.461   7.461   0.610
    1MUSC Si0R5 7825   2.293   7.476   3.620
    1MUSC Si0R6 7826   1.949   7.461   1.081
    1MUSC O01IX 7827   2.062   7.917   0.236
    1MUSC O01IY 7828   2.179   7.925   0.451
    1MUSC O01IZ 7829   2.531   7.917   3.461
    1MUSC O01Ia 7830   2.231   7.925   1.240
    1MUSC O01Ib 7831   2.318   7.737   3.453
    1MUSC O01Ic 7832   1.924   8.105   1.248
    1MUSC O01Id 7833   2.275   7.737   0.245
    1MUSC O01Ie 7834   2.486   8.105   0.442
    1MUSC O01If 7835   2.178   7.986   3.672
    1MUSC O01Ig 7836   2.064   7.856   1.029
    1MUSC O01Ih 7837   2.415   7.986   0.025
    1MUSC O01Ii 7838   2.346   7.856   0.662
    1MUSC O01Ij 7839   2.156   8.023   0.006
    1MUSC O01Ik 7840   2.085   7.819   0.681
    1MUSC O01Il 7841   2.437   8.023   3.692
    1MUSC O01Im 7842   2.325   7.819   1.009
    1MUSC O01In 7843   2.056   7.779   0.006
    1MUSC O01Io 7844   2.185   8.063   0.681
    1MUSC O01Ip 7845   2.537   7.779   3.691
    1MUSC O01Iq 7846   2.225   8.063   1.010
    1MUSC O01Ir 7847   2.318   8.095   3.461
    1MUSC O01Is 7848   1.923   7.747   1.240
    1MUSC O01It 7849   2.275   8.095   0.236
    1MUSC O01Iu 7850   2.486   7.747   0.451
    1MUSC O01Iv 7851   2.322   7.464   0.236
    1MUSC O01Iw 7852   2.439   7.473   0.451
    1MUSC O01Ix 7853   2.270   7.464   3.461
    1MUSC O01Iy 7854   1.971   7.473   1.240
    1MUSC O01Iz 7855   2.578   7.284   3.453
    1MUSC O01J0 7856   2.184   7.653   1.248
    1MUSC O01J1 7857   2.015   7.284   0.245
    1MUSC O01J2 7858   2.226   7.653   0.442
    1MUSC O01J3 7859   2.438   7.533   3.672
    1MUSC O01J4 7860   2.324   7.404   1.029
    1MUSC O01J5 7861   2.155   7.533   0.025
    1MUSC O01J6 7862   2.086   7.404   0.662
    1MUSC O01J7 7863   2.416   7.570   0.006
    1MUSC O01J8 7864   2.345   7.367   0.681
    1MUSC O01J9 7865   2.177   7.570   3.692
    1MUSC O01JA 7866   2.065   7.367   1.009
    1MUSC O01JB 7867   2.316   7.326   0.006
    1MUSC O01JC 7868   2.445   7.611   0.681
    1MUSC O01JD 7869   2.276   7.326   3.691
    1MUSC O01JE 7870   1.965   7.611   1.010
    1MUSC O01JF 7871   2.578   7.642   3.461
    1MUSC O01JG 7872   2.184   7.295   1.240
    1MUSC O01JH 7873   2.015   7.642   0.236
    1MUSC O01JI 7874   2.226   7.295   0.451
    1MUSC K0055 7875   2.113   7.785   1.849
    1MUSC K0056 7876   1.762   8.057   2.852
    1MUSC K0057 7877   1.853   7.332   1.849
    1MUSC K0058 7878   2.022   7.605   2.852
    1MUSC Al0DZ 7879   1.941   7.769   2.350
    1MUSC Al0Da 7880   1.934   8.074   2.351
    1MUSC Al0Db 7881   2.286   7.769   1.348
    1MUSC Al0Dc 7882   2.110   8.074   3.353
    1MUSC Al0Dd 7883   2.201   7.316   2.350
    1MUSC Al0De 7884   2.195   7.621   2.351
    1MUSC Al0Df 7885   2.026   7.316   1.348
    1MUSC Al0Dg 7886   1.849   7.621   3.353
    1MUSC Si0R7 7887   2.117   8.084   1.614
    1MUSC Si0R8 7888   1.759   7.759   3.087
    1MUSC Si0R9 7889   2.110   8.084   2.084
    1MUSC Si0RA 7890   2.285   7.759   2.617
    1MUSC Si0RB 7891   1.857   7.928   2.084
    1MUSC Si0RC 7892   2.018   7.914   2.617
    1MUSC Si0RD 7893   2.370   7.928   1.613
    1MUSC Si0RE 7894   2.026   7.914   3.088
    1MUSC Si0RF 7895   2.377   7.631   1.614
    1MUSC Si0RG 7896   2.019   7.306   3.087
    1MUSC Si0RH 7897   1.850   7.631   2.084
    1MUSC Si0RI 7898   2.025   7.306   2.617
    1MUSC Si0RJ 7899   2.117   7.476   2.084
    1MUSC Si0RK 7900   2.278   7.461   2.617
    1MUSC Si0RL 7901   2.110   7.476   1.613
    1MUSC Si0RM 7902   1.766   7.461   3.088
    1MUSC O01JJ 7903   1.879   7.917   2.243
    1MUSC O01JK 7904   1.996   7.925   2.458
    1MUSC O01JL 7905   2.348   7.917   1.454
    1MUSC O01JM 7906   2.048   7.925   3.247
    1MUSC O01JN 7907   2.135   7.737   1.446
    1MUSC O01JO 7908   1.741   8.105   3.255
    1MUSC O01JP 7909   2.092   7.737   2.252
    1MUSC O01JQ 7910   2.303   8.105   2.449
    1MUSC O01JR 7911   1.995   7.986   1.665
    1MUSC O01JS 7912   1.881   7.856   3.036
    1MUSC O01JT 7913   2.232   7.986   2.032
    1MUSC O01JU 7914   2.163   7.856   2.669
    1MUSC O01JV 7915   1.973   8.023   2.013
    1MUSC O01JW 7916   1.902   7.819   2.688
    1MUSC O01JX 7917   2.254   8.023   1.685
    1MUSC O01JY 7918   2.142   7.819   3.016
    1MUSC O01JZ 7919   1.873   7.779   2.013
    1MUSC O01Ja 7920   2.002   8.063   2.688
    1MUSC O01Jb 7921   2.354   7.779   1.684
    1MUSC O01Jc 7922   2.042   8.063   3.017
    1MUSC O01Jd 7923   2.135   8.095   1.454
    1MUSC O01Je 7924   1.740   7.747   3.247
    1MUSC O01Jf 7925   2.092   8.095   2.243
    1MUSC O01Jg 7926   2.303   7.747   2.458
    1MUSC O01Jh 7927   2.139   7.464   2.243
    1MUSC O01Ji 7928   2.256   7.473   2.458
    1MUSC O01Jj 7929   2.087   7.464   1.454
    1MUSC O01Jk 7930   1.788   7.473   3.247
    1MUSC O01Jl 7931   2.395   7.284   1.446
    1MUSC O01Jm 7932   2.001   7.653   3.255
    1MUSC O01Jn 7933   1.832   7.284   2.252
    1MUSC O01Jo 7934   2.043   7.653   2.449
    1MUSC O01Jp 7935   2.255   7.533   1.665
    1MUSC O01Jq 7936   2.141   7.404   3.036
    1MUSC O01Jr 7937   1.972   7.533   2.032
    1MUSC O01Js 7938   1.903   7.404   2.669
    1MUSC O01Jt 7939   2.233   7.570   2.013
    1MUSC O01Ju 7940   2.162   7.367   2.688
    1MUSC O01Jv 7941   1.994   7.570   1.685
    1MUSC O01Jw 7942   1.882   7.367   3.016
    1MUSC O01Jx 7943   2.133   7.326   2.013
    1MUSC O01Jy 7944   2.262   7.611   2.688
    1MUSC O01Jz 7945   2.093   7.326   1.684
    1MUSC O01K0 7946   1.782   7.611   3.017
    1MUSC O01K1 7947   2.395   7.642   1.454
    1MUSC O01K2 7948   2.001   7.295   3.247
    1MUSC O01K3 7949   1.832   7.642   2.243
    1MUSC O01K4 7950   2.043   7.295   2.458
    1MUSC K0059 7951   1.945   8.962   0.845
    1MUSC K005A 7952   2.205   8.510   0.845
    1MUSC Al0Dh 7953   2.124   8.674   0.343
    1MUSC Al0Di 7954   2.117   8.979   0.344
    1MUSC Al0Dj 7955   2.469   8.674   3.355
    1MUSC Al0Dk 7956   2.293   8.979   1.346
    1MUSC Al0Dl 7957   2.384   8.221   0.343
    1MUSC Al0Dm 7958   2.378   8.526   0.344
    1MUSC Al0Dn 7959   2.209   8.221   3.355
    1MUSC Al0Do 7960   2.032   8.526   1.346
    1MUSC Si0RN 7961   2.300   8.989   3.621
    1MUSC Si0RO 7962   1.942   8.664   1.080
    1MUSC Si0RP 7963   2.293   8.989   0.077
    1MUSC Si0RQ 7964   2.468   8.664   0.610
    1MUSC Si0RR 7965   2.040   8.834   0.077
    1MUSC Si0RS 7966   2.201   8.819   0.610
    1MUSC Si0RT 7967   2.553   8.834   3.620
    1MUSC Si0RU 7968   2.209   8.819   1.081
    1MUSC Si0RV 7969   2.560   8.536   3.621
    1MUSC Si0RW 7970   2.202   8.211   1.080
    1MUSC Si0RX 7971   2.033   8.536   0.077
    1MUSC Si0RY 7972   2.208   8.211   0.610
    1MUSC Si0RZ 7973   2.300   8.381   0.077
    1MUSC Si0Ra 7974   2.461   8.367   0.610
    1MUSC Si0Rb 7975   2.293   8.381   3.620
    1MUSC Si0Rc 7976   1.949   8.367   1.081
    1MUSC O01K5 7977   2.062   8.822   0.236
    1MUSC O01K6 7978   2.179   8.831   0.451
    1MUSC O01K7 7979   2.531   8.822   3.461
    1MUSC O01K8 7980   2.231   8.831   1.240
    1MUSC O01K9 7981   2.318   8.642   3.453
    1MUSC O01KA 7982   1.924   9.010   1.248
    1MUSC O01KB 7983   2.275   8.642   0.245
    1MUSC O01KC 7984   2.486   9.010   0.442
    1MUSC O01KD 7985   2.178   8.891   3.672
    1MUSC O01KE 7986   2.064   8.762   1.029
    1MUSC O01KF 7987   2.415   8.891   0.025
    1MUSC O01KG 7988   2.346   8.762   0.662
    1MUSC O01KH 7989   2.156   8.928   0.006
    1MUSC O01KI 7990   2.085   8.725   0.681
    1MUSC O01KJ 7991   2.437   8.928   3.692
    1MUSC O01KK 7992   2.325   8.725   1.009
    1MUSC O01KL 7993   2.056   8.684   0.006
    1MUSC O01KM 7994   2.185   8.968   0.681
    1MUSC O01KN 7995   2.537   8.684   3.691
    1MUSC O01KO 7996   2.225   8.968   1.010
    1MUSC O01KP 7997   2.318   9.000   3.461
    1MUSC O01KQ 7998   1.923   8.652   1.240
    1MUSC O01KR 7999   2.275   9.000   0.236
    1MUSC O01KS 8000   2.486   8.652   0.451
    1MUSC O01KT 8001   2.322   8.370   0.236
    1MUSC O01KU 8002   2.439   8.378   0.451
    1MUSC O01KV 8003   2.270   8.370   3.461
    1MUSC O01KW 8004   1.971   8.378   1.240
    1MUSC O01KX 8005   2.578   8.190   3.453
    1MUSC O01KY 8006   2.184   8.558   1.248
    1MUSC O01KZ 8007   2.015   8.190   0.245
    1MUSC O01Ka 8008   2.226   8.558   0.442
    1MUSC O01Kb 8009   2.438   8.438   3.672
    1MUSC O01Kc 8010   2.324   8.309   1.029
    1MUSC O01Kd 8011   2.155   8.438   0.025
    1MUSC O01Ke 8012   2.086   8.309   0.662
    1MUSC O01Kf 8013   2.416   8.475   0.006
    1MUSC O01Kg 8014   2.345   8.272   0.681
    1MUSC O01Kh 8015   2.177   8.475   3.692
    1MUSC O01Ki 8016   2.065   8.272   1.009
    1MUSC O01Kj 8017   2.316   8.232   0.006
    1MUSC O01Kk 8018   2.445   8.516   0.681
    1MUSC O01Kl 8019   2.276   8.232   3.691
    1MUSC O01Km 8020   1.965   8.516   1.010
    1MUSC O01Kn 8021   2.578   8.548   3.461
    1MUSC O01Ko 8022   2.184   8.200   1.240
    1MUSC O01Kp 8023   2.015   8.548   0.236
    1MUSC O01Kq 8024   2.226   8.200   0.451
    1MUSC K005B 8025   2.113   8.690   1.849
    1MUSC K005C 8026   1.762   8.962   2.852
    1MUSC K005D 8027   1.853   8.238   1.849
    1MUSC K005E 8028   2.022   8.510   2.852
    1MUSC Al0Dp 8029   1.941   8.674   2.350
    1MUSC Al0Dq 8030   1.934   8.979   2.351
    1MUSC Al0Dr 8031   2.286   8.674   1.348
    1MUSC Al0Ds 8032   2.110   8.979   3.353
    1MUSC Al0Dt 8033   2.201   8.221   2.350
    1MUSC Al0Du 8034   2.195   8.526   2.351
    1MUSC Al0Dv 8035   2.026   8.221   1.348
    1MUSC Al0Dw 8036   1.849   8.526   3.353
    1MUSC Si0Rd 8037   2.117   8.989   1.614
    1MUSC Si0Re 8038   1.759   8.664   3.087
    1MUSC Si0Rf 8039   2.110   8.989   2.084
    1MUSC Si0Rg 8040   2.285   8.664   2.617
    1MUSC Si0Rh 8041   1.857   8.834   2.084
    1MUSC Si0Ri 8042   2.018   8.819   2.617
    1MUSC Si0Rj 8043   2.370   8.834   1.613
    1MUSC Si0Rk 8044   2.026   8.819   3.088
    1MUSC Si0Rl 8045   2.377   8.536   1.614
    1MUSC Si0Rm 8046   2.019   8.211   3.087
    1MUSC Si0Rn 8047   1.850   8.536   2.084
    1MUSC Si0Ro 8048   2.025   8.211   2.617
    1MUSC Si0Rp 8049   2.117   8.381   2.084
    1MUSC Si0Rq 8050   2.278   8.367   2.617
    1MUSC Si0Rr 8051   2.110   8.381   1.613
    1MUSC Si0Rs 8052   1.766   8.367   3.088
    1MUSC O01Kr 8053   1.879   8.822   2.243
    1MUSC O01Ks 8054   1.996   8.831   2.458
    1MUSC O01Kt 8055   2.348   8.822   1.454
    1MUSC O01Ku 8056   2.048   8.831   3.247
    1MUSC O01Kv 8057   2.135   8.642   1.446
    1MUSC O01Kw 8058   1.741   9.010   3.255
    1MUSC O01Kx 8059   2.092   8.642   2.252
    1MUSC O01Ky 8060   2.303   9.010   2.449
    1MUSC O01Kz 8061   1.995   8.891   1.665
    1MUSC O01L0 8062   1.881   8.762   3.036
    1MUSC O01L1 8063   2.232   8.891   2.032
    1MUSC O01L2 8064   2.163   8.762   2.669
    1MUSC O01L3 8065   1.973   8.928   2.013
    1MUSC O01L4 8066   1.902   8.725   2.688
    1MUSC O01L5 8067   2.254   8.928   1.685
    1MUSC O01L6 8068   2.142   8.725   3.016
    1MUSC O01L7 8069   1.873   8.684   2.013
    1MUSC O01L8 8070   2.002   8.968   2.688
    1MUSC O01L9 8071   2.354   8.684   1.684
    1MUSC O01LA 8072   2.042   8.968   3.017
    1MUSC O01LB 8073   2.135   9.000   1.454
    1MUSC O01LC 8074   1.740   8.652   3.247
    1MUSC O01LD 8075   2.092   9.000   2.243
    1MUSC O01LE 8076   2.303   8.652   2.458
    1MUSC O01LF 8077   2.139   8.370   2.243
    1MUSC O01LG 8078   2.256   8.378   2.458
    1MUSC O01LH 8079   2.087   8.370   1.454
    1MUSC O01LI 8080   1.788   8.378   3.247
    1MUSC O01LJ 8081   2.395   8.190   1.446
    1MUSC O01LK 8082   2.001   8.558   3.255
    1MUSC O01LL 8083   1.832   8.190   2.252
    1MUSC O01LM 8084   2.043   8.558   2.449
    1MUSC O01LN 8085   2.255   8.438   1.665
    1MUSC O01LO 8086   2.141   8.309   3.036
    1MUSC O01LP 8087   1.972   8.438   2.032
    1MUSC O01LQ 8088   1.903   8.309   2.669
    1MUSC O01LR 8089   2.233   8.475   2.013
    1MUSC O01LS 8090   2.162   8.272   2.688
    1MUSC O01LT 8091   1.994   8.475   1.685
    1MUSC O01LU 8092   1.882   8.272   3.016
    1MUSC O01LV 8093   2.133   8.232   2.013
    1MUSC O01LW 8094   2.262   8.516   2.688
    1MUSC O01LX 8095   2.093   8.232   1.684
    1MUSC O01LY 8096   1.782   8.516   3.017
    1MUSC O01LZ 8097   2.395   8.548   1.454
    1MUSC O01La 8098   2.001   8.200   3.247
    1MUSC O01Lb 8099   1.832   8.548   2.243
    1MUSC O01Lc 8100   2.043   8.200   2.458
    1MUSC K005F 8101   1.945   9.868   0.845
    1MUSC K005G 8102   2.205   9.415   0.845
    1MUSC Al0Dx 8103   2.124   9.579   0.343
    1MUSC Al0Dy 8104   2.117   9.884   0.344
    1MUSC Al0Dz 8105   2.469   9.579   3.355
    1MUSC Al0E0 8106   2.293   9.884   1.346
    1MUSC Al0E1 8107   2.384   9.126   0.343
    1MUSC Al0E2 8108   2.378   9.432   0.344
    1MUSC Al0E3 8109   2.209   9.126   3.355
    1MUSC Al0E4 8110   2.032   9.432   1.346
    1MUSC Si0Rt 8111   2.300   9.894   3.621
    1MUSC Si0Ru 8112   1.942   9.569   1.080
    1MUSC Si0Rv 8113   2.293   9.894   0.077
    1MUSC Si0Rw 8114   2.468   9.569   0.610
    1MUSC Si0Rx 8115   2.040   9.739   0.077
    1MUSC Si0Ry 8116   2.201   9.724   0.610
    1MUSC Si0Rz 8117   2.553   9.739   3.620
    1MUSC Si0S0 8118   2.209   9.724   1.081
    1MUSC Si0S1 8119   2.560   9.441   3.621
    1MUSC Si0S2 8120   2.202   9.117   1.080
    1MUSC Si0S3 8121   2.033   9.441   0.077
    1MUSC Si0S4 8122   2.208   9.117   0.610
    1MUSC Si0S5 8123   2.300   9.286   0.077
    1MUSC Si0S6 8124   2.461   9.272   0.610
    1MUSC Si0S7 8125   2.293   9.286   3.620
    1MUSC Si0S8 8126   1.949   9.272   1.081
    1MUSC O01Ld 8127   2.062   9.728   0.236
    1MUSC O01Le 8128   2.179   9.736   0.451
    1MUSC O01Lf 8129   2.531   9.728   3.461
    1MUSC O01Lg 8130   2.231   9.736   1.240
    1MUSC O01Lh 8131   2.318   9.548   3.453
    1MUSC O01Li 8132   1.924   9.916   1.248
    1MUSC O01Lj 8133   2.275   9.548   0.245
    1MUSC O01Lk 8134   2.486   9.916   0.442
    1MUSC O01Ll 8135   2.178   9.796   3.672
    1MUSC O01Lm 8136   2.064   9.667   1.029
    1MUSC O01Ln 8137   2.415   9.796   0.025
    1MUSC O01Lo 8138   2.346   9.667   0.662
    1MUSC O01Lp 8139   2.156   9.833   0.006
    1MUSC O01Lq 8140   2.085   9.630   0.681
    1MUSC O01Lr 8141   2.437   9.833   3.692
    1MUSC O01Ls 8142   2.325   9.630   1.009
    1MUSC O01Lt 8143   2.056   9.590   0.006
    1MUSC O01Lu 8144   2.185   9.874   0.681
    1MUSC O01Lv 8145   2.537   9.590   3.691
    1MUSC O01Lw 8146   2.225   9.874   1.010
    1MUSC O01Lx 8147   2.318   9.906   3.461
    1MUSC O01Ly 8148   1.923   9.558   1.240
    1MUSC O01Lz 8149   2.275   9.906   0.236
    1MUSC O01M0 8150   2.486   9.558   0.451
    1MUSC O01M1 8151   2.322   9.275   0.236
    1MUSC O01M2 8152   2.439   9.283   0.451
    1MUSC O01M3 8153   2.270   9.275   3.461
    1MUSC O01M4 8154   1.971   9.283   1.240
    1MUSC O01M5 8155   2.578   9.095   3.453
    1MUSC O01M6 8156   2.184   9.463   1.248
    1MUSC O01M7 8157   2.015   9.095   0.245
    1MUSC O01M8 8158   2.226   9.463   0.442
    1MUSC O01M9 8159   2.438   9.344   3.672
    1MUSC O01MA 8160   2.324   9.214   1.029
    1MUSC O01MB 8161   2.155   9.344   0.025
    1MUSC O01MC 8162   2.086   9.214   0.662
    1MUSC O01MD 8163   2.416   9.381   0.006
    1MUSC O01ME 8164   2.345   9.177   0.681
    1MUSC O01MF 8165   2.177   9.381   3.692
    1MUSC O01MG 8166   2.065   9.177   1.009
    1MUSC O01MH 8167   2.316   9.137   0.006
    1MUSC O01MI 8168   2.445   9.421   0.681
    1MUSC O01MJ 8169   2.276   9.137   3.691
    1MUSC O01MK 8170   1.965   9.421   1.010
    1MUSC O01ML 8171   2.578   9.453   3.461
    1MUSC O01MM 8172   2.184   9.105   1.240
    1MUSC O01MN 8173   2.015   9.453   0.236
    1MUSC O01MO 8174   2.226   9.105   0.451
    1MUSC K005H 8175   2.113   9.596   1.849
    1MUSC K005I 8176   1.762   9.868   2.852
    1MUSC K005J 8177   1.853   9.143   1.849
    1MUSC K005K 8178   2.022   9.415   2.852
    1MUSC Al0E5 8179   1.941   9.579   2.350
    1MUSC Al0E6 8180   1.934   9.884   2.351
    1MUSC Al0E7 8181   2.286   9.579   1.348
    1MUSC Al0E8 8182   2.110   9.884   3.353
    1MUSC Al0E9 8183   2.201   9.126   2.350
    1MUSC Al0EA 8184   2.195   9.432   2.351
    1MUSC Al0EB 8185   2.026   9.126   1.348
    1MUSC Al0EC 8186   1.849   9.432   3.353
    1MUSC Si0S9 8187   2.117   9.894   1.614
    1MUSC Si0SA 8188   1.759   9.569   3.087
    1MUSC Si0SB 8189   2.110   9.894   2.084
    1MUSC Si0SC 8190   2.285   9.569   2.617
    1MUSC Si0SD 8191   1.857   9.739   2.084
    1MUSC Si0SE 8192   2.018   9.724   2.617
    1MUSC Si0SF 8193   2.370   9.739   1.613
    1MUSC Si0SG 8194   2.026   9.724   3.088
    1MUSC Si0SH 8195   2.377   9.441   1.614
    1MUSC Si0SI 8196   2.019   9.117   3.087
    1MUSC Si0SJ 8197   1.850   9.441   2.084
    1MUSC Si0SK 8198   2.025   9.117   2.617
    1MUSC Si0SL 8199   2.117   9.286   2.084
    1MUSC Si0SM 8200   2.278   9.272   2.617
    1MUSC Si0SN 8201   2.110   9.286   1.613
    1MUSC Si0SO 8202   1.766   9.272   3.088
    1MUSC O01MP 8203   1.879   9.728   2.243
    1MUSC O01MQ 8204   1.996   9.736   2.458
    1MUSC O01MR 8205   2.348   9.728   1.454
    1MUSC O01MS 8206   2.048   9.736   3.247
    1MUSC O01MT 8207   2.135   9.548   1.446
    1MUSC O01MU 8208   1.741   9.916   3.255
    1MUSC O01MV 8209   2.092   9.548   2.252
    1MUSC O01MW 8210   2.303   9.916   2.449
    1MUSC O01MX 8211   1.995   9.796   1.665
    1MUSC O01MY 8212   1.881   9.667   3.036
    1MUSC O01MZ 8213   2.232   9.796   2.032
    1MUSC O01Ma 8214   2.163   9.667   2.669
    1MUSC O01Mb 8215   1.973   9.833   2.013
    1MUSC O01Mc 8216   1.902   9.630   2.688
    1MUSC O01Md 8217   2.254   9.833   1.685
    1MUSC O01Me 8218   2.142   9.630   3.016
    1MUSC O01Mf 8219   1.873   9.590   2.013
    1MUSC O01Mg 8220   2.002   9.874   2.688
    1MUSC O01Mh 8221   2.354   9.590   1.684
    1MUSC O01Mi 8222   2.042   9.874   3.017
    1MUSC O01Mj 8223   2.135   9.906   1.454
    1MUSC O01Mk 8224   1.740   9.558   3.247
    1MUSC O01Ml 8225   2.092   9.906   2.243
    1MUSC O01Mm 8226   2.303   9.558   2.458
    1MUSC O01Mn 8227   2.139   9.275   2.243
    1MUSC O01Mo 8228   2.256   9.283   2.458
    1MUSC O01Mp 8229   2.087   9.275   1.454
    1MUSC O01Mq 8230   1.788   9.283   3.247
    1MUSC O01Mr 8231   2.395   9.095   1.446
    1MUSC O01Ms 8232   2.001   9.463   3.255
    1MUSC O01Mt 8233   1.832   9.095   2.252
    1MUSC O01Mu 8234   2.043   9.463   2.449
    1MUSC O01Mv 8235   2.255   9.344   1.665
    1MUSC O01Mw 8236   2.141   9.214   3.036
    1MUSC O01Mx 8237   1.972   9.344   2.032
    1MUSC O01My 8238   1.903   9.214   2.669
    1MUSC O01Mz 8239   2.233   9.381   2.013
    1MUSC O01N0 8240   2.162   9.177   2.688
    1MUSC O01N1 8241   1.994   9.381   1.685
    1MUSC O01N2 8242   1.882   9.177   3.016
    1MUSC O01N3 8243   2.133   9.137   2.013
    1MUSC O01N4 8244   2.262   9.421   2.688
    1MUSC O01N5 8245   2.093   9.137   1.684
    1MUSC O01N6 8246   1.782   9.421   3.017
    1MUSC O01N7 8247   2.395   9.453   1.454
    1MUSC O01N8 8248   2.001   9.105   3.247
    1MUSC O01N9 8249   1.832   9.453   2.243
    1MUSC O01NA 8250   2.043   9.105   2.458
    1MUSC K005L 8251   2.465   0.815   0.845
    1MUSC K005M 8252   2.725   0.362   0.845
    1MUSC Al0ED 8253   2.644   0.526   0.343
    1MUSC Al0EE 8254   2.638   0.831   0.344
    1MUSC Al0EF 8255   2.990   0.526   3.355
    1MUSC Al0EG 8256   2.813   0.831   1.346
    1MUSC Al0EH 8257   2.905   0.074   0.343
    1MUSC Al0EI 8258   2.898   0.379   0.344
    1MUSC Al0EJ 8259   2.729   0.074   3.355
    1MUSC Al0EK 8260   2.553   0.379   1.346
    1MUSC Si0SP 8261   2.820   0.841   3.621
    1MUSC Si0SQ 8262   2.462   0.517   1.080
    1MUSC Si0SR 8263   2.814   0.841   0.077
    1MUSC Si0SS 8264   2.989   0.517   0.610
    1MUSC Si0ST 8265   2.561   0.686   0.077
    1MUSC Si0SU 8266   2.722   0.672   0.610
    1MUSC Si0SV 8267   3.073   0.686   3.620
    1MUSC Si0SW 8268   2.729   0.672   1.081
    1MUSC Si0SX 8269   3.080   0.389   3.621
    1MUSC Si0SY 8270   2.722   0.064   1.080
    1MUSC Si0SZ 8271   2.554   0.389   0.077
    1MUSC Si0Sa 8272   2.729   0.064   0.610
    1MUSC Si0Sb 8273   2.821   0.233   0.077
    1MUSC Si0Sc 8274   2.982   0.219   0.610
    1MUSC Si0Sd 8275   2.813   0.233   3.620
    1MUSC Si0Se 8276   2.469   0.219   1.081
    1MUSC O01NB 8277   2.583   0.675   0.236
    1MUSC O01NC 8278   2.699   0.683   0.451
    1MUSC O01ND 8279   3.051   0.675   3.461
    1MUSC O01NE 8280   2.751   0.683   1.240
    1MUSC O01NF 8281   2.838   0.495   3.453
    1MUSC O01NG 8282   2.444   0.863   1.248
    1MUSC O01NH 8283   2.796   0.495   0.245
    1MUSC O01NI 8284   3.007   0.863   0.442
    1MUSC O01NJ 8285   2.698   0.744   3.672
    1MUSC O01NK 8286   2.584   0.614   1.029
    1MUSC O01NL 8287   2.936   0.744   0.025
    1MUSC O01NM 8288   2.867   0.614   0.662
    1MUSC O01NN 8289   2.677   0.781   0.006
    1MUSC O01NO 8290   2.606   0.577   0.681
    1MUSC O01NP 8291   2.957   0.781   3.692
    1MUSC O01NQ 8292   2.845   0.577   1.009
    1MUSC O01NR 8293   2.577   0.537   0.006
    1MUSC O01NS 8294   2.705   0.821   0.681
    1MUSC O01NT 8295   3.057   0.537   3.691
    1MUSC O01NU 8296   2.745   0.821   1.010
    1MUSC O01NV 8297   2.838   0.853   3.461
    1MUSC O01NW 8298   2.444   0.505   1.240
    1MUSC O01NX 8299   2.796   0.853   0.236
    1MUSC O01NY 8300   3.007   0.505   0.451
    1MUSC O01NZ 8301   2.843   0.222   0.236
    1MUSC O01Na 8302   2.960   0.230   0.451
    1MUSC O01Nb 8303   2.791   0.222   3.461
    1MUSC O01Nc 8304   2.491   0.230   1.240
    1MUSC O01Nd 8305   3.098   0.042   3.453
    1MUSC O01Ne 8306   2.704   0.410   1.248
    1MUSC O01Nf 8307   2.535   0.042   0.245
    1MUSC O01Ng 8308   2.747   0.410   0.442
    1MUSC O01Nh 8309   2.958   0.291   3.672
    1MUSC O01Ni 8310   2.844   0.162   1.029
    1MUSC O01Nj 8311   2.676   0.291   0.025
    1MUSC O01Nk 8312   2.607   0.162   0.662
    1MUSC O01Nl 8313   2.937   0.328   0.006
    1MUSC O01Nm 8314   2.866   0.125   0.681
    1MUSC O01Nn 8315   2.697   0.328   3.692
    1MUSC O01No 8316   2.585   0.125   1.009
    1MUSC O01Np 8317   2.837   0.084   0.006
    1MUSC O01Nq 8318   2.966   0.368   0.681
    1MUSC O01Nr 8319   2.797   0.084   3.691
    1MUSC O01Ns 8320   2.485   0.368   1.010
    1MUSC O01Nt 8321   3.098   0.400   3.461
    1MUSC O01Nu 8322   2.704   0.052   1.240
    1MUSC O01Nv 8323   2.535   0.400   0.236
    1MUSC O01Nw 8324   2.747   0.052   0.451
    1MUSC K005N 8325   2.634   0.543   1.849
    1MUSC K005O 8326   2.282   0.815   2.852
    1MUSC K005P 8327   2.374   0.090   1.849
    1MUSC K005Q 8328   2.542   0.362   2.852
    1MUSC Al0EL 8329   2.461   0.526   2.350
    1MUSC Al0EM 8330   2.455   0.831   2.351
    1MUSC Al0EN 8331   2.807   0.526   1.348
    1MUSC Al0EO 8332   2.630   0.831   3.353
    1MUSC Al0EP 8333   2.722   0.074   2.350
    1MUSC Al0EQ 8334   2.715   0.379   2.351
    1MUSC Al0ER 8335   2.546   0.074   1.348
    1MUSC Al0ES 8336   2.370   0.379   3.353
    1MUSC Si0Sf 8337   2.637   0.841   1.614
    1MUSC Si0Sg 8338   2.279   0.517   3.087
    1MUSC Si0Sh 8339   2.631   0.841   2.084
    1MUSC Si0Si 8340   2.806   0.517   2.617
    1MUSC Si0Sj 8341   2.378   0.686   2.084
    1MUSC Si0Sk 8342   2.539   0.672   2.617
    1MUSC Si0Sl 8343   2.890   0.686   1.613
    1MUSC Si0Sm 8344   2.546   0.672   3.088
    1MUSC Si0Sn 8345   2.897   0.389   1.614
    1MUSC Si0So 8346   2.539   0.064   3.087
    1MUSC Si0Sp 8347   2.371   0.389   2.084
    1MUSC Si0Sq 8348   2.546   0.064   2.617
    1MUSC Si0Sr 8349   2.638   0.233   2.084
    1MUSC Si0Ss 8350   2.799   0.219   2.617
    1MUSC Si0St 8351   2.630   0.233   1.613
    1MUSC Si0Su 8352   2.286   0.219   3.088
    1MUSC O01Nx 8353   2.400   0.675   2.243
    1MUSC O01Ny 8354   2.516   0.683   2.458
    1MUSC O01Nz 8355   2.868   0.675   1.454
    1MUSC O01O0 8356   2.568   0.683   3.247
    1MUSC O01O1 8357   2.655   0.495   1.446
    1MUSC O01O2 8358   2.261   0.863   3.255
    1MUSC O01O3 8359   2.613   0.495   2.252
    1MUSC O01O4 8360   2.824   0.863   2.449
    1MUSC O01O5 8361   2.515   0.744   1.665
    1MUSC O01O6 8362   2.401   0.614   3.036
    1MUSC O01O7 8363   2.753   0.744   2.032
    1MUSC O01O8 8364   2.684   0.614   2.669
    1MUSC O01O9 8365   2.494   0.781   2.013
    1MUSC O01OA 8366   2.423   0.577   2.688
    1MUSC O01OB 8367   2.774   0.781   1.685
    1MUSC O01OC 8368   2.662   0.577   3.016
    1MUSC O01OD 8369   2.394   0.537   2.013
    1MUSC O01OE 8370   2.522   0.821   2.688
    1MUSC O01OF 8371   2.874   0.537   1.684
    1MUSC O01OG 8372   2.562   0.821   3.017
    1MUSC O01OH 8373   2.655   0.853   1.454
    1MUSC O01OI 8374   2.261   0.505   3.247
    1MUSC O01OJ 8375   2.613   0.853   2.243
    1MUSC O01OK 8376   2.824   0.505   2.458
    1MUSC O01OL 8377   2.660   0.222   2.243
    1MUSC O01OM 8378   2.777   0.230   2.458
    1MUSC O01ON 8379   2.608   0.222   1.454
    1MUSC O01OO 8380   2.308   0.230   3.247
    1MUSC O01OP 8381   2.915   0.042   1.446
    1MUSC O01OQ 8382   2.521   0.410   3.255
    1MUSC O01OR 8383   2.352   0.042   2.252
    1MUSC O01OS 8384   2.564   0.410   2.449
    1MUSC O01OT 8385   2.775   0.291   1.665
    1MUSC O01OU 8386   2.661   0.162   3.036
    1MUSC O01OV 8387   2.493   0.291   2.032
    1MUSC O01OW 8388   2.424   0.162   2.669
    1MUSC O01OX 8389   2.754   0.328   2.013
    1MUSC O01OY 8390   2.683   0.125   2.688
    1MUSC O01OZ 8391   2.514   0.328   1.685
    1MUSC O01Oa 8392   2.402   0.125   3.016
    1MUSC O01Ob 8393   2.654   0.084   2.013
    1MUSC O01Oc 8394   2.783   0.368   2.688
    1MUSC O01Od 8395   2.614   0.084   1.684
    1MUSC O01Oe 8396   2.302   0.368   3.017
    1MUSC O01Of 8397   2.915   0.400   1.454
    1MUSC O01Og 8398   2.521   0.052   3.247
    1MUSC O01Oh 8399   2.352   0.400   2.243
    1MUSC O01Oi 8400   2.564   0.052   2.458
    1MUSC K005R 8401   2.465   1.720   0.845
    1MUSC K005S 8402   2.725   1.268   0.845
    1MUSC Al0ET 8403   2.644   1.432   0.343
    1MUSC Al0EU 8404   2.638   1.737   0.344
    1MUSC Al0EV 8405   2.990   1.432   3.355
    1MUSC Al0EW 8406   2.813   1.737   1.346
    1MUSC Al0EX 8407   2.905   0.979   0.343
    1MUSC Al0EY 8408   2.898   1.284   0.344
    1MUSC Al0EZ 8409   2.729   0.979   3.355
    1MUSC Al0Ea 8410   2.553   1.284   1.346
    1MUSC Si0Sv 8411   2.820   1.747   3.621
    1MUSC Si0Sw 8412   2.462   1.422   1.080
    1MUSC Si0Sx 8413   2.814   1.747   0.077
    1MUSC Si0Sy 8414   2.989   1.422   0.610
    1MUSC Si0Sz 8415   2.561   1.591   0.077
    1MUSC Si0T0 8416   2.722   1.577   0.610
    1MUSC Si0T1 8417   3.073   1.591   3.620
    1MUSC Si0T2 8418   2.729   1.577   1.081
    1MUSC Si0T3 8419   3.080   1.294   3.621
    1MUSC Si0T4 8420   2.722   0.969   1.080
    1MUSC Si0T5 8421   2.554   1.294   0.077
    1MUSC Si0T6 8422   2.729   0.969   0.610
    1MUSC Si0T7 8423   2.821   1.139   0.077
    1MUSC Si0T8 8424   2.982   1.124   0.610
    1MUSC Si0T9 8425   2.813   1.139   3.620
    1MUSC Si0TA 8426   2.469   1.124   1.081
    1MUSC O01Oj 8427   2.583   1.580   0.236
    1MUSC O01Ok 8428   2.699   1.588   0.451
    1MUSC O01Ol 8429   3.051   1.580   3.461
    1MUSC O01Om 8430   2.751   1.588   1.240
    1MUSC O01On 8431   2.838   1.400   3.453
    1MUSC O01Oo 8432   2.444   1.768   1.248
    1MUSC O01Op 8433   2.796   1.400   0.245
    1MUSC O01Oq 8434   3.007   1.768   0.442
    1MUSC O01Or 8435   2.698   1.649   3.672
    1MUSC O01Os 8436   2.584   1.520   1.029
    1MUSC O01Ot 8437   2.936   1.649   0.025
    1MUSC O01Ou 8438   2.867   1.520   0.662
    1MUSC O01Ov 8439   2.677   1.686   0.006
    1MUSC O01Ow 8440   2.606   1.483   0.681
    1MUSC O01Ox 8441   2.957   1.686   3.692
    1MUSC O01Oy 8442   2.845   1.483   1.009
    1MUSC O01Oz 8443   2.577   1.442   0.006
    1MUSC O01P0 8444   2.705   1.726   0.681
    1MUSC O01P1 8445   3.057   1.442   3.691
    1MUSC O01P2 8446   2.745   1.726   1.010
    1MUSC O01P3 8447   2.838   1.758   3.461
    1MUSC O01P4 8448   2.444   1.410   1.240
    1MUSC O01P5 8449   2.796   1.758   0.236
    1MUSC O01P6 8450   3.007   1.410   0.451
    1MUSC O01P7 8451   2.843   1.127   0.236
    1MUSC O01P8 8452   2.960   1.136   0.451
    1MUSC O01P9 8453   2.791   1.127   3.461
    1MUSC O01PA 8454   2.491   1.136   1.240
    1MUSC O01PB 8455   3.098   0.948   3.453
    1MUSC O01PC 8456   2.704   1.316   1.248
    1MUSC O01PD 8457   2.535   0.948   0.245
    1MUSC O01PE 8458   2.747   1.316   0.442
    1MUSC O01PF 8459   2.958   1.196   3.672
    1MUSC O01PG 8460   2.844   1.067   1.029
    1MUSC O01PH 8461   2.676   1.196   0.025
    1MUSC O01PI 8462   2.607   1.067   0.662
    1MUSC O01PJ 8463   2.937   1.233   0.006
    1MUSC O01PK 8464   2.866   1.030   0.681
    1MUSC O01PL 8465   2.697   1.233   3.692
    1MUSC O01PM 8466   2.585   1.030   1.009
    1MUSC O01PN 8467   2.837   0.990   0.006
    1MUSC O01PO 8468   2.966   1.274   0.681
    1MUSC O01PP 8469   2.797   0.990   3.691
    1MUSC O01PQ 8470   2.485   1.274   1.010
    1MUSC O01PR 8471   3.098   1.306   3.461
    1MUSC O01PS 8472   2.704   0.958   1.240
    1MUSC O01PT 8473   2.535   1.306   0.236
    1MUSC O01PU 8474   2.747   0.958   0.451
    1MUSC K005T 8475   2.634   1.448   1.849
    1MUSC K005U 8476   2.282   1.720   2.852
    1MUSC K005V 8477   2.374   0.996   1.849
    1MUSC K005W 8478   2.542   1.268   2.852
    1MUSC Al0Eb 8479   2.461   1.432   2.350
    1MUSC Al0Ec 8480   2.455   1.737   2.351
    1MUSC Al0Ed 8481   2.807   1.432   1.348
    1MUSC Al0Ee 8482   2.630   1.737   3.353
    1MUSC Al0Ef 8483   2.722   0.979   2.350
    1MUSC Al0Eg 8484   2.715   1.284   2.351
    1MUSC Al0Eh 8485   2.546   0.979   1.348
    1MUSC Al0Ei 8486   2.370   1.284   3.353
    1MUSC Si0TB 8487   2.637   1.747   1.614
    1MUSC Si0TC 8488   2.279   1.422   3.087
    1MUSC Si0TD 8489   2.631   1.747   2.084
    1MUSC Si0TE 8490   2.806   1.422   2.617
    1MUSC Si0TF 8491   2.378   1.591   2.084
    1MUSC Si0TG 8492   2.539   1.577   2.617
    1MUSC Si0TH 8493   2.890   1.591   1.613
    1MUSC Si0TI 8494   2.546   1.577   3.088
    1MUSC Si0TJ 8495   2.897   1.294   1.614
    1MUSC Si0TK 8496   2.539   0.969   3.087
    1MUSC Si0TL 8497   2.371   1.294   2.084
    1MUSC Si0TM 8498   2.546   0.969   2.617
    1MUSC Si0TN 8499   2.638   1.139   2.084
    1MUSC Si0TO 8500   2.799   1.124   2.617
    1MUSC Si0TP 8501   2.630   1.139   1.613
    1MUSC Si0TQ 8502   2.286   1.124   3.088
    1MUSC O01PV 8503   2.400   1.580   2.243
    1MUSC O01PW 8504   2.516   1.588   2.458
    1MUSC O01PX 8505   2.868   1.580   1.454
    1MUSC O01PY 8506   2.568   1.588   3.247
    1MUSC O01PZ 8507   2.655   1.400   1.446
    1MUSC O01Pa 8508   2.261   1.768   3.255
    1MUSC O01Pb 8509   2.613   1.400   2.252
    1MUSC O01Pc 8510   2.824   1.768   2.449
    1MUSC O01Pd 8511   2.515   1.649   1.665
    1MUSC O01Pe 8512   2.401   1.520   3.036
    1MUSC O01Pf 8513   2.753   1.649   2.032
    1MUSC O01Pg 8514   2.684   1.520   2.669
    1MUSC O01Ph 8515   2.494   1.686   2.013
    1MUSC O01Pi 8516   2.423   1.483   2.688
    1MUSC O01Pj 8517   2.774   1.686   1.685
    1MUSC O01Pk 8518   2.662   1.483   3.016
    1MUSC O01Pl 8519   2.394   1.442   2.013
    1MUSC O01Pm 8520   2.522   1.726   2.688
    1MUSC O01Pn 8521   2.874   1.442   1.684
    1MUSC O01Po 8522   2.562   1.726   3.017
    1MUSC O01Pp 8523   2.655   1.758   1.454
    1MUSC O01Pq 8524   2.261   1.410   3.247
    1MUSC O01Pr 8525   2.613   1.758   2.243
    1MUSC O01Ps 8526   2.824   1.410   2.458
    1MUSC O01Pt 8527   2.660   1.127   2.243
    1MUSC O01Pu 8528   2.777   1.136   2.458
    1MUSC O01Pv 8529   2.608   1.127   1.454
    1MUSC O01Pw 8530   2.308   1.136   3.247
    1MUSC O01Px 8531   2.915   0.948   1.446
    1MUSC O01Py 8532   2.521   1.316   3.255
    1MUSC O01Pz 8533   2.352   0.948   2.252
    1MUSC O01Q0 8534   2.564   1.316   2.449
    1MUSC O01Q1 8535   2.775   1.196   1.665
    1MUSC O01Q2 8536   2.661   1.067   3.036
    1MUSC O01Q3 8537   2.493   1.196   2.032
    1MUSC O01Q4 8538   2.424   1.067   2.669
    1MUSC O01Q5 8539   2.754   1.233   2.013
    1MUSC O01Q6 8540   2.683   1.030   2.688
    1MUSC O01Q7 8541   2.514   1.233   1.685
    1MUSC O01Q8 8542   2.402   1.030   3.016
    1MUSC O01Q9 8543   2.654   0.990   2.013
    1MUSC O01QA 8544   2.783   1.274   2.688
    1MUSC O01QB 8545   2.614   0.990   1.684
    1MUSC O01QC 8546   2.302   1.274   3.017
    1MUSC O01QD 8547   2.915   1.306   1.454
    1MUSC O01QE 8548   2.521   0.958   3.247
    1MUSC O01QF 8549   2.352   1.306   2.243
    1MUSC O01QG 8550   2.564   0.958   2.458
    1MUSC K005X 8551   2.465   2.626   0.845
    1MUSC K005Y 8552   2.725   2.173   0.845
    1MUSC Al0Ej 8553   2.644   2.337   0.343
    1MUSC Al0Ek 8554   2.638   2.642   0.344
    1MUSC Al0El 8555   2.990   2.337   3.355
    1MUSC Al0Em 8556   2.813   2.642   1.346
    1MUSC Al0En 8557   2.905   1.884   0.343
    1MUSC Al0Eo 8558   2.898   2.189   0.344
    1MUSC Al0Ep 8559   2.729   1.884   3.355
    1MUSC Al0Eq 8560   2.553   2.189   1.346
    1MUSC Si0TR 8561   2.820   2.652   3.621
    1MUSC Si0TS 8562   2.462   2.327   1.080
    1MUSC Si0TT 8563   2.814   2.652   0.077
    1MUSC Si0TU 8564   2.989   2.327   0.610
    1MUSC Si0TV 8565   2.561   2.497   0.077
    1MUSC Si0TW 8566   2.722   2.482   0.610
    1MUSC Si0TX 8567   3.073   2.497   3.620
    1MUSC Si0TY 8568   2.729   2.482   1.081
    1MUSC Si0TZ 8569   3.080   2.199   3.621
    1MUSC Si0Ta 8570   2.722   1.874   1.080
    1MUSC Si0Tb 8571   2.554   2.199   0.077
    1MUSC Si0Tc 8572   2.729   1.874   0.610
    1MUSC Si0Td 8573   2.821   2.044   0.077
    1MUSC Si0Te 8574   2.982   2.030   0.610
    1MUSC Si0Tf 8575   2.813   2.044   3.620
    1MUSC Si0Tg 8576   2.469   2.030   1.081
    1MUSC O01QH 8577   2.583   2.485   0.236
    1MUSC O01QI 8578   2.699   2.494   0.451
    1MUSC O01QJ 8579   3.051   2.485   3.461
    1MUSC O01QK 8580   2.751   2.494   1.240
    1MUSC O01QL 8581   2.838   2.305   3.453
    1MUSC O01QM 8582   2.444   2.674   1.248
    1MUSC O01QN 8583   2.796   2.305   0.245
    1MUSC O01QO 8584   3.007   2.674   0.442
    1MUSC O01QP 8585   2.698   2.554   3.672
    1MUSC O01QQ 8586   2.584   2.425   1.029
    1MUSC O01QR 8587   2.936   2.554   0.025
    1MUSC O01QS 8588   2.867   2.425   0.662
    1MUSC O01QT 8589   2.677   2.591   0.006
    1MUSC O01QU 8590   2.606   2.388   0.681
    1MUSC O01QV 8591   2.957   2.591   3.692
    1MUSC O01QW 8592   2.845   2.388   1.009
    1MUSC O01QX 8593   2.577   2.347   0.006
    1MUSC O01QY 8594   2.705   2.632   0.681
    1MUSC O01QZ 8595   3.057   2.347   3.691
    1MUSC O01Qa 8596   2.745   2.632   1.010
    1MUSC O01Qb 8597   2.838   2.663   3.461
    1MUSC O01Qc 8598   2.444   2.316   1.240
    1MUSC O01Qd 8599   2.796   2.663   0.236
    1MUSC O01Qe 8600   3.007   2.316   0.451
    1MUSC O01Qf 8601   2.843   2.033   0.236
    1MUSC O01Qg 8602   2.960   2.041   0.451
    1MUSC O01Qh 8603   2.791   2.033   3.461
    1MUSC O01Qi 8604   2.491   2.041   1.240
    1MUSC O01Qj 8605   3.098   1.853   3.453
    1MUSC O01Qk 8606   2.704   2.221   1.248
    1MUSC O01Ql 8607   2.535   1.853   0.245
    1MUSC O01Qm 8608   2.747   2.221   0.442
    1MUSC O01Qn 8609   2.958   2.101   3.672
    1MUSC O01Qo 8610   2.844   1.972   1.029
    1MUSC O01Qp 8611   2.676   2.101   0.025
    1MUSC O01Qq 8612   2.607   1.972   0.662
    1MUSC O01Qr 8613   2.937   2.139   0.006
    1MUSC O01Qs 8614   2.866   1.935   0.681
    1MUSC O01Qt 8615   2.697   2.139   3.692
    1MUSC O01Qu 8616   2.585   1.935   1.009
    1MUSC O01Qv 8617   2.837   1.895   0.006
    1MUSC O01Qw 8618   2.966   2.179   0.681
    1MUSC O01Qx 8619   2.797   1.895   3.691
    1MUSC O01Qy 8620   2.485   2.179   1.010
    1MUSC O01Qz 8621   3.098   2.211   3.461
    1MUSC O01R0 8622   2.704   1.863   1.240
    1MUSC O01R1 8623   2.535   2.211   0.236
    1MUSC O01R2 8624   2.747   1.863   0.451
    1MUSC K005Z 8625   2.634   2.353   1.849
    1MUSC K005a 8626   2.282   2.626   2.852
    1MUSC K005b 8627   2.374   1.901   1.849
    1MUSC K005c 8628   2.542   2.173   2.852
    1MUSC Al0Er 8629   2.461   2.337   2.350
    1MUSC Al0Es 8630   2.455   2.642   2.351
    1MUSC Al0Et 8631   2.807   2.337   1.348
    1MUSC Al0Eu 8632   2.630   2.642   3.353
    1MUSC Al0Ev 8633   2.722   1.884   2.350
    1MUSC Al0Ew 8634   2.715   2.189   2.351
    1MUSC Al0Ex 8635   2.546   1.884   1.348
    1MUSC Al0Ey 8636   2.370   2.189   3.353
    1MUSC Si0Th 8637   2.637   2.652   1.614
    1MUSC Si0Ti 8638   2.279   2.327   3.087
    1MUSC Si0Tj 8639   2.631   2.652   2.084
    1MUSC Si0Tk 8640   2.806   2.327   2.617
    1MUSC Si0Tl 8641   2.378   2.497   2.084
    1MUSC Si0Tm 8642   2.539   2.482   2.617
    1MUSC Si0Tn 8643   2.890   2.497   1.613
    1MUSC Si0To 8644   2.546   2.482   3.088
    1MUSC Si0Tp 8645   2.897   2.199   1.614
    1MUSC Si0Tq 8646   2.539   1.874   3.087
    1MUSC Si0Tr 8647   2.371   2.199   2.084
    1MUSC Si0Ts 8648   2.546   1.874   2.617
    1MUSC Si0Tt 8649   2.638   2.044   2.084
    1MUSC Si0Tu 8650   2.799   2.030   2.617
    1MUSC Si0Tv 8651   2.630   2.044   1.613
    1MUSC Si0Tw 8652   2.286   2.030   3.088
    1MUSC O01R3 8653   2.400   2.485   2.243
    1MUSC O01R4 8654   2.516   2.494   2.458
    1MUSC O01R5 8655   2.868   2.485   1.454
    1MUSC O01R6 8656   2.568   2.494   3.247
    1MUSC O01R7 8657   2.655   2.305   1.446
    1MUSC O01R8 8658   2.261   2.674   3.255
    1MUSC O01R9 8659   2.613   2.305   2.252
    1MUSC O01RA 8660   2.824   2.674   2.449
    1MUSC O01RB 8661   2.515   2.554   1.665
    1MUSC O01RC 8662   2.401   2.425   3.036
    1MUSC O01RD 8663   2.753   2.554   2.032
    1MUSC O01RE 8664   2.684   2.425   2.669
    1MUSC O01RF 8665   2.494   2.591   2.013
    1MUSC O01RG 8666   2.423   2.388   2.688
    1MUSC O01RH 8667   2.774   2.591   1.685
    1MUSC O01RI 8668   2.662   2.388   3.016
    1MUSC O01RJ 8669   2.394   2.347   2.013
    1MUSC O01RK 8670   2.522   2.632   2.688
    1MUSC O01RL 8671   2.874   2.347   1.684
    1MUSC O01RM 8672   2.562   2.632   3.017
    1MUSC O01RN 8673   2.655   2.663   1.454
    1MUSC O01RO 8674   2.261   2.316   3.247
    1MUSC O01RP 8675   2.613   2.663   2.243
    1MUSC O01RQ 8676   2.824   2.316   2.458
    1MUSC O01RR 8677   2.660   2.033   2.243
    1MUSC O01RS 8678   2.777   2.041   2.458
    1MUSC O01RT 8679   2.608   2.033   1.454
    1MUSC O01RU 8680   2.308   2.041   3.247
    1MUSC O01RV 8681   2.915   1.853   1.446
    1MUSC O01RW 8682   2.521   2.221   3.255
    1MUSC O01RX 8683   2.352   1.853   2.252
    1MUSC O01RY 8684   2.564   2.221   2.449
    1MUSC O01RZ 8685   2.775   2.101   1.665
    1MUSC O01Ra 8686   2.661   1.972   3.036
    1MUSC O01Rb 8687   2.493   2.101   2.032
    1MUSC O01Rc 8688   2.424   1.972   2.669
    1MUSC O01Rd 8689   2.754   2.139   2.013
    1MUSC O01Re 8690   2.683   1.935   2.688
    1MUSC O01Rf 8691   2.514   2.139   1.685
    1MUSC O01Rg 8692   2.402   1.935   3.016
    1MUSC O01Rh 8693   2.654   1.895   2.013
    1MUSC O01Ri 8694   2.783   2.179   2.688
    1MUSC O01Rj 8695   2.614   1.895   1.684
    1MUSC O01Rk 8696   2.302   2.179   3.017
    1MUSC O01Rl 8697   2.915   2.211   1.454
    1MUSC O01Rm 8698   2.521   1.863   3.247
    1MUSC O01Rn 8699   2.352   2.211   2.243
    1MUSC O01Ro 8700   2.564   1.863   2.458
    1MUSC K005d 8701   2.465   3.531   0.845
    1MUSC K005e 8702   2.725   3.078   0.845
    1MUSC Al0Ez 8703   2.644   3.242   0.343
    1MUSC Al0F0 8704   2.638   3.547   0.344
    1MUSC Al0F1 8705   2.990   3.242   3.355
    1MUSC Al0F2 8706   2.813   3.547   1.346
    1MUSC Al0F3 8707   2.905   2.790   0.343
    1MUSC Al0F4 8708   2.898   3.095   0.344
    1MUSC Al0F5 8709   2.729   2.790   3.355
    1MUSC Al0F6 8710   2.553   3.095   1.346
    1MUSC Si0Tx 8711   2.820   3.557   3.621
    1MUSC Si0Ty 8712   2.462   3.232   1.080
    1MUSC Si0Tz 8713   2.814   3.557   0.077
    1MUSC Si0U0 8714   2.989   3.232   0.610
    1MUSC Si0U1 8715   2.561   3.402   0.077
    1MUSC Si0U2 8716   2.722   3.388   0.610
    1MUSC Si0U3 8717   3.073   3.402   3.620
    1MUSC Si0U4 8718   2.729   3.388   1.081
    1MUSC Si0U5 8719   3.080   3.105   3.621
    1MUSC Si0U6 8720   2.722   2.780   1.080
    1MUSC Si0U7 8721   2.554   3.105   0.077
    1MUSC Si0U8 8722   2.729   2.780   0.610
    1MUSC Si0U9 8723   2.821   2.949   0.077
    1MUSC Si0UA 8724   2.982   2.935   0.610
    1MUSC Si0UB 8725   2.813   2.949   3.620
    1MUSC Si0UC 8726   2.469   2.935   1.081
    1MUSC O01Rp 8727   2.583   3.391   0.236
    1MUSC O01Rq 8728   2.699   3.399   0.451
    1MUSC O01Rr 8729   3.051   3.391   3.461
    1MUSC O01Rs 8730   2.751   3.399   1.240
    1MUSC O01Rt 8731   2.838   3.211   3.453
    1MUSC O01Ru 8732   2.444   3.579   1.248
    1MUSC O01Rv 8733   2.796   3.211   0.245
    1MUSC O01Rw 8734   3.007   3.579   0.442
    1MUSC O01Rx 8735   2.698   3.459   3.672
    1MUSC O01Ry 8736   2.584   3.330   1.029
    1MUSC O01Rz 8737   2.936   3.459   0.025
    1MUSC O01S0 8738   2.867   3.330   0.662
    1MUSC O01S1 8739   2.677   3.496   0.006
    1MUSC O01S2 8740   2.606   3.293   0.681
    1MUSC O01S3 8741   2.957   3.496   3.692
    1MUSC O01S4 8742   2.845   3.293   1.009
    1MUSC O01S5 8743   2.577   3.253   0.006
    1MUSC O01S6 8744   2.705   3.537   0.681
    1MUSC O01S7 8745   3.057   3.253   3.691
    1MUSC O01S8 8746   2.745   3.537   1.010
    1MUSC O01S9 8747   2.838   3.569   3.461
    1MUSC O01SA 8748   2.444   3.221   1.240
    1MUSC O01SB 8749   2.796   3.569   0.236
    1MUSC O01SC 8750   3.007   3.221   0.451
    1MUSC O01SD 8751   2.843   2.938   0.236
    1MUSC O01SE 8752   2.960   2.946   0.451
    1MUSC O01SF 8753   2.791   2.938   3.461
    1MUSC O01SG 8754   2.491   2.946   1.240
    1MUSC O01SH 8755   3.098   2.758   3.453
    1MUSC O01SI 8756   2.704   3.126   1.248
    1MUSC O01SJ 8757   2.535   2.758   0.245
    1MUSC O01SK 8758   2.747   3.126   0.442
    1MUSC O01SL 8759   2.958   3.007   3.672
    1MUSC O01SM 8760   2.844   2.877   1.029
    1MUSC O01SN 8761   2.676   3.007   0.025
    1MUSC O01SO 8762   2.607   2.877   0.662
    1MUSC O01SP 8763   2.937   3.044   0.006
    1MUSC O01SQ 8764   2.866   2.840   0.681
    1MUSC O01SR 8765   2.697   3.044   3.692
    1MUSC O01SS 8766   2.585   2.840   1.009
    1MUSC O01ST 8767   2.837   2.800   0.006
    1MUSC O01SU 8768   2.966   3.084   0.681
    1MUSC O01SV 8769   2.797   2.800   3.691
    1MUSC O01SW 8770   2.485   3.084   1.010
    1MUSC O01SX 8771   3.098   3.116   3.461
    1MUSC O01SY 8772   2.704   2.768   1.240
    1MUSC O01SZ 8773   2.535   3.116   0.236
    1MUSC O01Sa 8774   2.747   2.768   0.451
    1MUSC K005f 8775   2.634   3.259   1.849
    1MUSC K005g 8776   2.282   3.531   2.852
    1MUSC K005h 8777   2.374   2.806   1.849
    1MUSC K005i 8778   2.542   3.078   2.852
    1MUSC Al0F7 8779   2.461   3.242   2.350
    1MUSC Al0F8 8780   2.455   3.547   2.351
    1MUSC Al0F9 8781   2.807   3.242   1.348
    1MUSC Al0FA 8782   2.630   3.547   3.353
    1MUSC Al0FB 8783   2.722   2.790   2.350
    1MUSC Al0FC 8784   2.715   3.095   2.351
    1MUSC Al0FD 8785   2.546   2.790   1.348
    1MUSC Al0FE 8786   2.370   3.095   3.353
    1MUSC Si0UD 8787   2.637   3.557   1.614
    1MUSC Si0UE 8788   2.279   3.232   3.087
    1MUSC Si0UF 8789   2.631   3.557   2.084
    1MUSC Si0UG 8790   2.806   3.232   2.617
    1MUSC Si0UH 8791   2.378   3.402   2.084
    1MUSC Si0UI 8792   2.539   3.388   2.617
    1MUSC Si0UJ 8793   2.890   3.402   1.613
    1MUSC Si0UK 8794   2.546   3.388   3.088
    1MUSC Si0UL 8795   2.897   3.105   1.614
    1MUSC Si0UM 8796   2.539   2.780   3.087
    1MUSC Si0UN 8797   2.371   3.105   2.084
    1MUSC Si0UO 8798   2.546   2.780   2.617
    1MUSC Si0UP 8799   2.638   2.949   2.084
    1MUSC Si0UQ 8800   2.799   2.935   2.617
    1MUSC Si0UR 8801   2.630   2.949   1.613
    1MUSC Si0US 8802   2.286   2.935   3.088
    1MUSC O01Sb 8803   2.400   3.391   2.243
    1MUSC O01Sc 8804   2.516   3.399   2.458
    1MUSC O01Sd 8805   2.868   3.391   1.454
    1MUSC O01Se 8806   2.568   3.399   3.247
    1MUSC O01Sf 8807   2.655   3.211   1.446
    1MUSC O01Sg 8808   2.261   3.579   3.255
    1MUSC O01Sh 8809   2.613   3.211   2.252
    1MUSC O01Si 8810   2.824   3.579   2.449
    1MUSC O01Sj 8811   2.515   3.459   1.665
    1MUSC O01Sk 8812   2.401   3.330   3.036
    1MUSC O01Sl 8813   2.753   3.459   2.032
    1MUSC O01Sm 8814   2.684   3.330   2.669
    1MUSC O01Sn 8815   2.494   3.496   2.013
    1MUSC O01So 8816   2.423   3.293   2.688
    1MUSC O01Sp 8817   2.774   3.496   1.685
    1MUSC O01Sq 8818   2.662   3.293   3.016
    1MUSC O01Sr 8819   2.394   3.253   2.013
    1MUSC O01Ss 8820   2.522   3.537   2.688
    1MUSC O01St 8821   2.874   3.253   1.684
    1MUSC O01Su 8822   2.562   3.537   3.017
    1MUSC O01Sv 8823   2.655   3.569   1.454
    1MUSC O01Sw 8824   2.261   3.221   3.247
    1MUSC O01Sx 8825   2.613   3.569   2.243
    1MUSC O01Sy 8826   2.824   3.221   2.458
    1MUSC O01Sz 8827   2.660   2.938   2.243
    1MUSC O01T0 8828   2.777   2.946   2.458
    1MUSC O01T1 8829   2.608   2.938   1.454
    1MUSC O01T2 8830   2.308   2.946   3.247
    1MUSC O01T3 8831   2.915   2.758   1.446
    1MUSC O01T4 8832   2.521   3.126   3.255
    1MUSC O01T5 8833   2.352   2.758   2.252
    1MUSC O01T6 8834   2.564   3.126   2.449
    1MUSC O01T7 8835   2.775   3.007   1.665
    1MUSC O01T8 8836   2.661   2.877   3.036
    1MUSC O01T9 8837   2.493   3.007   2.032
    1MUSC O01TA 8838   2.424   2.877   2.669
    1MUSC O01TB 8839   2.754   3.044   2.013
    1MUSC O01TC 8840   2.683   2.840   2.688
    1MUSC O01TD 8841   2.514   3.044   1.685
    1MUSC O01TE 8842   2.402   2.840   3.016
    1MUSC O01TF 8843   2.654   2.800   2.013
    1MUSC O01TG 8844   2.783   3.084   2.688
    1MUSC O01TH 8845   2.614   2.800   1.684
    1MUSC O01TI 8846   2.302   3.084   3.017
    1MUSC O01TJ 8847   2.915   3.116   1.454
    1MUSC O01TK 8848   2.521   2.768   3.247
    1MUSC O01TL 8849   2.352   3.116   2.243
    1MUSC O01TM 8850   2.564   2.768   2.458
    1MUSC K005j 8851   2.465   4.436   0.845
    1MUSC K005k 8852   2.725   3.983   0.845
    1MUSC Al0FF 8853   2.644   4.147   0.343
    1MUSC Al0FG 8854   2.638   4.453   0.344
    1MUSC Al0FH 8855   2.990   4.147   3.355
    1MUSC Al0FI 8856   2.813   4.453   1.346
    1MUSC Al0FJ 8857   2.905   3.695   0.343
    1MUSC Al0FK 8858   2.898   4.000   0.344
    1MUSC Al0FL 8859   2.729   3.695   3.355
    1MUSC Al0FM 8860   2.553   4.000   1.346
    1MUSC Si0UT 8861   2.820   4.462   3.621
    1MUSC Si0UU 8862   2.462   4.138   1.080
    1MUSC Si0UV 8863   2.814   4.462   0.077
    1MUSC Si0UW 8864   2.989   4.138   0.610
    1MUSC Si0UX 8865   2.561   4.307   0.077
    1MUSC Si0UY 8866   2.722   4.293   0.610
    1MUSC Si0UZ 8867   3.073   4.307   3.620
    1MUSC Si0Ua 8868   2.729   4.293   1.081
    1MUSC Si0Ub 8869   3.080   4.010   3.621
    1MUSC Si0Uc 8870   2.722   3.685   1.080
    1MUSC Si0Ud 8871   2.554   4.010   0.077
    1MUSC Si0Ue 8872   2.729   3.685   0.610
    1MUSC Si0Uf 8873   2.821   3.855   0.077
    1MUSC Si0Ug 8874   2.982   3.840   0.610
    1MUSC Si0Uh 8875   2.813   3.855   3.620
    1MUSC Si0Ui 8876   2.469   3.840   1.081
    1MUSC O01TN 8877   2.583   4.296   0.236
    1MUSC O01TO 8878   2.699   4.304   0.451
    1MUSC O01TP 8879   3.051   4.296   3.461
    1MUSC O01TQ 8880   2.751   4.304   1.240
    1MUSC O01TR 8881   2.838   4.116   3.453
    1MUSC O01TS 8882   2.444   4.484   1.248
    1MUSC O01TT 8883   2.796   4.116   0.245
    1MUSC O01TU 8884   3.007   4.484   0.442
    1MUSC O01TV 8885   2.698   4.365   3.672
    1MUSC O01TW 8886   2.584   4.235   1.029
    1MUSC O01TX 8887   2.936   4.365   0.025
    1MUSC O01TY 8888   2.867   4.235   0.662
    1MUSC O01TZ 8889   2.677   4.402   0.006
    1MUSC O01Ta 8890   2.606   4.198   0.681
    1MUSC O01Tb 8891   2.957   4.402   3.692
    1MUSC O01Tc 8892   2.845   4.198   1.009
    1MUSC O01Td 8893   2.577   4.158   0.006
    1MUSC O01Te 8894   2.705   4.442   0.681
    1MUSC O01Tf 8895   3.057   4.158   3.691
    1MUSC O01Tg 8896   2.745   4.442   1.010
    1MUSC O01Th 8897   2.838   4.474   3.461
    1MUSC O01Ti 8898   2.444   4.126   1.240
    1MUSC O01Tj 8899   2.796   4.474   0.236
    1MUSC O01Tk 8900   3.007   4.126   0.451
    1MUSC O01Tl 8901   2.843   3.843   0.236
    1MUSC O01Tm 8902   2.960   3.852   0.451
    1MUSC O01Tn 8903   2.791   3.843   3.461
    1MUSC O01To 8904   2.491   3.852   1.240
    1MUSC O01Tp 8905   3.098   3.663   3.453
    1MUSC O01Tq 8906   2.704   4.031   1.248
    1MUSC O01Tr 8907   2.535   3.663   0.245
    1MUSC O01Ts 8908   2.747   4.031   0.442
    1MUSC O01Tt 8909   2.958   3.912   3.672
    1MUSC O01Tu 8910   2.844   3.783   1.029
    1MUSC O01Tv 8911   2.676   3.912   0.025
    1MUSC O01Tw 8912   2.607   3.783   0.662
    1MUSC O01Tx 8913   2.937   3.949   0.006
    1MUSC O01Ty 8914   2.866   3.746   0.681
    1MUSC O01Tz 8915   2.697   3.949   3.692
    1MUSC O01U0 8916   2.585   3.746   1.009
    1MUSC O01U1 8917   2.837   3.705   0.006
    1MUSC O01U2 8918   2.966   3.989   0.681
    1MUSC O01U3 8919   2.797   3.705   3.691
    1MUSC O01U4 8920   2.485   3.989   1.010
    1MUSC O01U5 8921   3.098   4.021   3.461
    1MUSC O01U6 8922   2.704   3.673   1.240
    1MUSC O01U7 8923   2.535   4.021   0.236
    1MUSC O01U8 8924   2.747   3.673   0.451
    1MUSC K005l 8925   2.634   4.164   1.849
    1MUSC K005m 8926   2.282   4.436   2.852
    1MUSC K005n 8927   2.374   3.711   1.849
    1MUSC K005o 8928   2.542   3.983   2.852
    1MUSC Al0FN 8929   2.461   4.147   2.350
    1MUSC Al0FO 8930   2.455   4.453   2.351
    1MUSC Al0FP 8931   2.807   4.147   1.348
    1MUSC Al0FQ 8932   2.630   4.453   3.353
    1MUSC Al0FR 8933   2.722   3.695   2.350
    1MUSC Al0FS 8934   2.715   4.000   2.351
    1MUSC Al0FT 8935   2.546   3.695   1.348
    1MUSC Al0FU 8936   2.370   4.000   3.353
    1MUSC Si0Uj 8937   2.637   4.462   1.614
    1MUSC Si0Uk 8938   2.279   4.138   3.087
    1MUSC Si0Ul 8939   2.631   4.462   2.084
    1MUSC Si0Um 8940   2.806   4.138   2.617
    1MUSC Si0Un 8941   2.378   4.307   2.084
    1MUSC Si0Uo 8942   2.539   4.293   2.617
    1MUSC Si0Up 8943   2.890   4.307   1.613
    1MUSC Si0Uq 8944   2.546   4.293   3.088
    1MUSC Si0Ur 8945   2.897   4.010   1.614
    1MUSC Si0Us 8946   2.539   3.685   3.087
    1MUSC Si0Ut 8947   2.371   4.010   2.084
    1MUSC Si0Uu 8948   2.546   3.685   2.617
    1MUSC Si0Uv 8949   2.638   3.855   2.084
    1MUSC Si0Uw 8950   2.799   3.840   2.617
    1MUSC Si0Ux 8951   2.630   3.855   1.613
    1MUSC Si0Uy 8952   2.286   3.840   3.088
    1MUSC O01U9 8953   2.400   4.296   2.243
    1MUSC O01UA 8954   2.516   4.304   2.458
    1MUSC O01UB 8955   2.868   4.296   1.454
    1MUSC O01UC 8956   2.568   4.304   3.247
    1MUSC O01UD 8957   2.655   4.116   1.446
    1MUSC O01UE 8958   2.261   4.484   3.255
    1MUSC O01UF 8959   2.613   4.116   2.252
    1MUSC O01UG 8960   2.824   4.484   2.449
    1MUSC O01UH 8961   2.515   4.365   1.665
    1MUSC O01UI 8962   2.401   4.235   3.036
    1MUSC O01UJ 8963   2.753   4.365   2.032
    1MUSC O01UK 8964   2.684   4.235   2.669
    1MUSC O01UL 8965   2.494   4.402   2.013
    1MUSC O01UM 8966   2.423   4.198   2.688
    1MUSC O01UN 8967   2.774   4.402   1.685
    1MUSC O01UO 8968   2.662   4.198   3.016
    1MUSC O01UP 8969   2.394   4.158   2.013
    1MUSC O01UQ 8970   2.522   4.442   2.688
    1MUSC O01UR 8971   2.874   4.158   1.684
    1MUSC O01US 8972   2.562   4.442   3.017
    1MUSC O01UT 8973   2.655   4.474   1.454
    1MUSC O01UU 8974   2.261   4.126   3.247
    1MUSC O01UV 8975   2.613   4.474   2.243
    1MUSC O01UW 8976   2.824   4.126   2.458
    1MUSC O01UX 8977   2.660   3.843   2.243
    1MUSC O01UY 8978   2.777   3.852   2.458
    1MUSC O01UZ 8979   2.608   3.843   1.454
    1MUSC O01Ua 8980   2.308   3.852   3.247
    1MUSC O01Ub 8981   2.915   3.663   1.446
    1MUSC O01Uc 8982   2.521   4.031   3.255
    1MUSC O01Ud 8983   2.352   3.663   2.252
    1MUSC O01Ue 8984   2.564   4.031   2.449
    1MUSC O01Uf 8985   2.775   3.912   1.665
    1MUSC O01Ug 8986   2.661   3.783   3.036
    1MUSC O01Uh 8987   2.493   3.912   2.032
    1MUSC O01Ui 8988   2.424   3.783   2.669
    1MUSC O01Uj 8989   2.754   3.949   2.013
    1MUSC O01Uk 8990   2.683   3.746   2.688
    1MUSC O01Ul 8991   2.514   3.949   1.685
    1MUSC O01Um 8992   2.402   3.746   3.016
    1MUSC O01Un 8993   2.654   3.705   2.013
    1MUSC O01Uo 8994   2.783   3.989   2.688
    1MUSC O01Up 8995   2.614   3.705   1.684
    1MUSC O01Uq 8996   2.302   3.989   3.017
    1MUSC O01Ur 8997   2.915   4.021   1.454
    1MUSC O01Us 8998   2.521   3.673   3.247
    1MUSC O01Ut 8999   2.352   4.021   2.243
    1MUSC O01Uu 9000   2.564   3.673   2.458
    1MUSC K005p 9001   2.465   5.341   0.845
    1MUSC K005q 9002   2.725   4.889   0.845
    1MUSC Al0FV 9003   2.644   5.053   0.343
    1MUSC Al0FW 9004   2.638   5.358   0.344
    1MUSC Al0FX 9005   2.990   5.053   3.355
    1MUSC Al0FY 9006   2.813   5.358   1.346
    1MUSC Al0FZ 9007   2.905   4.600   0.343
    1MUSC Al0Fa 9008   2.898   4.905   0.344
    1MUSC Al0Fb 9009   2.729   4.600   3.355
    1MUSC Al0Fc 9010   2.553   4.905   1.346
    1MUSC Si0Uz 9011   2.820   5.368   3.621
    1MUSC Si0V0 9012   2.462   5.043   1.080
    1MUSC Si0V1 9013   2.814   5.368   0.077
    1MUSC Si0V2 9014   2.989   5.043   0.610
    1MUSC Si0V3 9015   2.561   5.212   0.077
    1MUSC Si0V4 9016   2.722   5.198   0.610
    1MUSC Si0V5 9017   3.073   5.212   3.620
    1MUSC Si0V6 9018   2.729   5.198   1.081
    1MUSC Si0V7 9019   3.080   4.915   3.621
    1MUSC Si0V8 9020   2.722   4.590   1.080
    1MUSC Si0V9 9021   2.554   4.915   0.077
    1MUSC Si0VA 9022   2.729   4.590   0.610
    1MUSC Si0VB 9023   2.821   4.760   0.077
    1MUSC Si0VC 9024   2.982   4.746   0.610
    1MUSC Si0VD 9025   2.813   4.760   3.620
    1MUSC Si0VE 9026   2.469   4.746   1.081
    1MUSC O01Uv 9027   2.583   5.201   0.236
    1MUSC O01Uw 9028   2.699   5.209   0.451
    1MUSC O01Ux 9029   3.051   5.201   3.461
    1MUSC O01Uy 9030   2.751   5.209   1.240
    1MUSC O01Uz 9031   2.838   5.021   3.453
    1MUSC O01V0 9032   2.444   5.389   1.248
    1MUSC O01V1 9033   2.796   5.021   0.245
    1MUSC O01V2 9034   3.007   5.389   0.442
    1MUSC O01V3 9035   2.698   5.270   3.672
    1MUSC O01V4 9036   2.584   5.141   1.029
    1MUSC O01V5 9037   2.936   5.270   0.025
    1MUSC O01V6 9038   2.867   5.141   0.662
    1MUSC O01V7 9039   2.677   5.307   0.006
    1MUSC O01V8 9040   2.606   5.104   0.681
    1MUSC O01V9 9041   2.957   5.307   3.692
    1MUSC O01VA 9042   2.845   5.104   1.009
    1MUSC O01VB 9043   2.577   5.063   0.006
    1MUSC O01VC 9044   2.705   5.347   0.681
    1MUSC O01VD 9045   3.057   5.063   3.691
    1MUSC O01VE 9046   2.745   5.347   1.010
    1MUSC O01VF 9047   2.838   5.379   3.461
    1MUSC O01VG 9048   2.444   5.031   1.240
    1MUSC O01VH 9049   2.796   5.379   0.236
    1MUSC O01VI 9050   3.007   5.031   0.451
    1MUSC O01VJ 9051   2.843   4.749   0.236
    1MUSC O01VK 9052   2.960   4.757   0.451
    1MUSC O01VL 9053   2.791   4.749   3.461
    1MUSC O01VM 9054   2.491   4.757   1.240
    1MUSC O01VN 9055   3.098   4.569   3.453
    1MUSC O01VO 9056   2.704   4.937   1.248
    1MUSC O01VP 9057   2.535   4.569   0.245
    1MUSC O01VQ 9058   2.747   4.937   0.442
    1MUSC O01VR 9059   2.958   4.817   3.672
    1MUSC O01VS 9060   2.844   4.688   1.029
    1MUSC O01VT 9061   2.676   4.817   0.025
    1MUSC O01VU 9062   2.607   4.688   0.662
    1MUSC O01VV 9063   2.937   4.854   0.006
    1MUSC O01VW 9064   2.866   4.651   0.681
    1MUSC O01VX 9065   2.697   4.854   3.692
    1MUSC O01VY 9066   2.585   4.651   1.009
    1MUSC O01VZ 9067   2.837   4.611   0.006
    1MUSC O01Va 9068   2.966   4.895   0.681
    1MUSC O01Vb 9069   2.797   4.611   3.691
    1MUSC O01Vc 9070   2.485   4.895   1.010
    1MUSC O01Vd 9071   3.098   4.927   3.461
    1MUSC O01Ve 9072   2.704   4.579   1.240
    1MUSC O01Vf 9073   2.535   4.927   0.236
    1MUSC O01Vg 9074   2.747   4.579   0.451
    1MUSC K005r 9075   2.634   5.069   1.849
    1MUSC K005s 9076   2.282   5.341   2.852
    1MUSC K005t 9077   2.374   4.617   1.849
    1MUSC K005u 9078   2.542   4.889   2.852
    1MUSC Al0Fd 9079   2.461   5.053   2.350
    1MUSC Al0Fe 9080   2.455   5.358   2.351
    1MUSC Al0Ff 9081   2.807   5.053   1.348
    1MUSC Al0Fg 9082   2.630   5.358   3.353
    1MUSC Al0Fh 9083   2.722   4.600   2.350
    1MUSC Al0Fi 9084   2.715   4.905   2.351
    1MUSC Al0Fj 9085   2.546   4.600   1.348
    1MUSC Al0Fk 9086   2.370   4.905   3.353
    1MUSC Si0VF 9087   2.637   5.368   1.614
    1MUSC Si0VG 9088   2.279   5.043   3.087
    1MUSC Si0VH 9089   2.631   5.368   2.084
    1MUSC Si0VI 9090   2.806   5.043   2.617
    1MUSC Si0VJ 9091   2.378   5.212   2.084
    1MUSC Si0VK 9092   2.539   5.198   2.617
    1MUSC Si0VL 9093   2.890   5.212   1.613
    1MUSC Si0VM 9094   2.546   5.198   3.088
    1MUSC Si0VN 9095   2.897   4.915   1.614
    1MUSC Si0VO 9096   2.539   4.590   3.087
    1MUSC Si0VP 9097   2.371   4.915   2.084
    1MUSC Si0VQ 9098   2.546   4.590   2.617
    1MUSC Si0VR 9099   2.638   4.760   2.084
    1MUSC Si0VS 9100   2.799   4.746   2.617
    1MUSC Si0VT 9101   2.630   4.760   1.613
    1MUSC Si0VU 9102   2.286   4.746   3.088
    1MUSC O01Vh 9103   2.400   5.201   2.243
    1MUSC O01Vi 9104   2.516   5.209   2.458
    1MUSC O01Vj 9105   2.868   5.201   1.454
    1MUSC O01Vk 9106   2.568   5.209   3.247
    1MUSC O01Vl 9107   2.655   5.021   1.446
    1MUSC O01Vm 9108   2.261   5.389   3.255
    1MUSC O01Vn 9109   2.613   5.021   2.252
    1MUSC O01Vo 9110   2.824   5.389   2.449
    1MUSC O01Vp 9111   2.515   5.270   1.665
    1MUSC O01Vq 9112   2.401   5.141   3.036
    1MUSC O01Vr 9113   2.753   5.270   2.032
    1MUSC O01Vs 9114   2.684   5.141   2.669
    1MUSC O01Vt 9115   2.494   5.307   2.013
    1MUSC O01Vu 9116   2.423   5.104   2.688
    1MUSC O01Vv 9117   2.774   5.307   1.685
    1MUSC O01Vw 9118   2.662   5.104   3.016
    1MUSC O01Vx 9119   2.394   5.063   2.013
    1MUSC O01Vy 9120   2.522   5.347   2.688
    1MUSC O01Vz 9121   2.874   5.063   1.684
    1MUSC O01W0 9122   2.562   5.347   3.017
    1MUSC O01W1 9123   2.655   5.379   1.454
    1MUSC O01W2 9124   2.261   5.031   3.247
    1MUSC O01W3 9125   2.613   5.379   2.243
    1MUSC O01W4 9126   2.824   5.031   2.458
    1MUSC O01W5 9127   2.660   4.749   2.243
    1MUSC O01W6 9128   2.777   4.757   2.458
    1MUSC O01W7 9129   2.608   4.749   1.454
    1MUSC O01W8 9130   2.308   4.757   3.247
    1MUSC O01W9 9131   2.915   4.569   1.446
    1MUSC O01WA 9132   2.521   4.937   3.255
    1MUSC O01WB 9133   2.352   4.569   2.252
    1MUSC O01WC 9134   2.564   4.937   2.449
    1MUSC O01WD 9135   2.775   4.817   1.665
    1MUSC O01WE 9136   2.661   4.688   3.036
    1MUSC O01WF 9137   2.493   4.817   2.032
    1MUSC O01WG 9138   2.424   4.688   2.669
    1MUSC O01WH 9139   2.754   4.854   2.013
    1MUSC O01WI 9140   2.683   4.651   2.688
    1MUSC O01WJ 9141   2.514   4.854   1.685
    1MUSC O01WK 9142   2.402   4.651   3.016
    1MUSC O01WL 9143   2.654   4.611   2.013
    1MUSC O01WM 9144   2.783   4.895   2.688
    1MUSC O01WN 9145   2.614   4.611   1.684
    1MUSC O01WO 9146   2.302   4.895   3.017
    1MUSC O01WP 9147   2.915   4.927   1.454
    1MUSC O01WQ 9148   2.521   4.579   3.247
    1MUSC O01WR 9149   2.352   4.927   2.243
    1MUSC O01WS 9150   2.564   4.579   2.458
    1MUSC K005v 9151   2.465   6.247   0.845
    1MUSC K005w 9152   2.725   5.794   0.845
    1MUSC Al0Fl 9153   2.644   5.958   0.343
    1MUSC Al0Fm 9154   2.638   6.263   0.344
    1MUSC Al0Fn 9155   2.990   5.958   3.355
    1MUSC Al0Fo 9156   2.813   6.263   1.346
    1MUSC Al0Fp 9157   2.905   5.505   0.343
    1MUSC Al0Fq 9158   2.898   5.810   0.344
    1MUSC Al0Fr 9159   2.729   5.505   3.355
    1MUSC Al0Fs 9160   2.553   5.810   1.346
    1MUSC Si0VV 9161   2.820   6.273   3.621
    1MUSC Si0VW 9162   2.462   5.948   1.080
    1MUSC Si0VX 9163   2.814   6.273   0.077
    1MUSC Si0VY 9164   2.989   5.948   0.610
    1MUSC Si0VZ 9165   2.561   6.118   0.077
    1MUSC Si0Va 9166   2.722   6.103   0.610
    1MUSC Si0Vb 9167   3.073   6.118   3.620
    1MUSC Si0Vc 9168   2.729   6.103   1.081
    1MUSC Si0Vd 9169   3.080   5.820   3.621
    1MUSC Si0Ve 9170   2.722   5.495   1.080
    1MUSC Si0Vf 9171   2.554   5.820   0.077
    1MUSC Si0Vg 9172   2.729   5.495   0.610
    1MUSC Si0Vh 9173   2.821   5.665   0.077
    1MUSC Si0Vi 9174   2.982   5.651   0.610
    1MUSC Si0Vj 9175   2.813   5.665   3.620
    1MUSC Si0Vk 9176   2.469   5.651   1.081
    1MUSC O01WT 9177   2.583   6.106   0.236
    1MUSC O01WU 9178   2.699   6.115   0.451
    1MUSC O01WV 9179   3.051   6.106   3.461
    1MUSC O01WW 9180   2.751   6.115   1.240
    1MUSC O01WX 9181   2.838   5.927   3.453
    1MUSC O01WY 9182   2.444   6.295   1.248
    1MUSC O01WZ 9183   2.796   5.927   0.245
    1MUSC O01Wa 9184   3.007   6.295   0.442
    1MUSC O01Wb 9185   2.698   6.175   3.672
    1MUSC O01Wc 9186   2.584   6.046   1.029
    1MUSC O01Wd 9187   2.936   6.175   0.025
    1MUSC O01We 9188   2.867   6.046   0.662
    1MUSC O01Wf 9189   2.677   6.212   0.006
    1MUSC O01Wg 9190   2.606   6.009   0.681
    1MUSC O01Wh 9191   2.957   6.212   3.692
    1MUSC O01Wi 9192   2.845   6.009   1.009
    1MUSC O01Wj 9193   2.577   5.969   0.006
    1MUSC O01Wk 9194   2.705   6.253   0.681
    1MUSC O01Wl 9195   3.057   5.969   3.691
    1MUSC O01Wm 9196   2.745   6.253   1.010
    1MUSC O01Wn 9197   2.838   6.285   3.461
    1MUSC O01Wo 9198   2.444   5.937   1.240
    1MUSC O01Wp 9199   2.796   6.285   0.236
    1MUSC O01Wq 9200   3.007   5.937   0.451
    1MUSC O01Wr 9201   2.843   5.654   0.236
    1MUSC O01Ws 9202   2.960   5.662   0.451
    1MUSC O01Wt 9203   2.791   5.654   3.461
    1MUSC O01Wu 9204   2.491   5.662   1.240
    1MUSC O01Wv 9205   3.098   5.474   3.453
    1MUSC O01Ww 9206   2.704   5.842   1.248
    1MUSC O01Wx 9207   2.535   5.474   0.245
    1MUSC O01Wy 9208   2.747   5.842   0.442
    1MUSC O01Wz 9209   2.958   5.723   3.672
    1MUSC O01X0 9210   2.844   5.593   1.029
    1MUSC O01X1 9211   2.676   5.723   0.025
    1MUSC O01X2 9212   2.607   5.593   0.662
    1MUSC O01X3 9213   2.937   5.760   0.006
    1MUSC O01X4 9214   2.866   5.556   0.681
    1MUSC O01X5 9215   2.697   5.760   3.692
    1MUSC O01X6 9216   2.585   5.556   1.009
    1MUSC O01X7 9217   2.837   5.516   0.006
    1MUSC O01X8 9218   2.966   5.800   0.681
    1MUSC O01X9 9219   2.797   5.516   3.691
    1MUSC O01XA 9220   2.485   5.800   1.010
    1MUSC O01XB 9221   3.098   5.832   3.461
    1MUSC O01XC 9222   2.704   5.484   1.240
    1MUSC O01XD 9223   2.535   5.832   0.236
    1MUSC O01XE 9224   2.747   5.484   0.451
    1MUSC K005x 9225   2.634   5.975   1.849
    1MUSC K005y 9226   2.282   6.247   2.852
    1MUSC K005z 9227   2.374   5.522   1.849
    1MUSC K0060 9228   2.542   5.794   2.852
    1MUSC Al0Ft 9229   2.461   5.958   2.350
    1MUSC Al0Fu 9230   2.455   6.263   2.351
    1MUSC Al0Fv 9231   2.807   5.958   1.348
    1MUSC Al0Fw 9232   2.630   6.263   3.353
    1MUSC Al0Fx 9233   2.722   5.505   2.350
    1MUSC Al0Fy 9234   2.715   5.810   2.351
    1MUSC Al0Fz 9235   2.546   5.505   1.348
    1MUSC Al0G0 9236   2.370   5.810   3.353
    1MUSC Si0Vl 9237   2.637   6.273   1.614
    1MUSC Si0Vm 9238   2.279   5.948   3.087
    1MUSC Si0Vn 9239   2.631   6.273   2.084
    1MUSC Si0Vo 9240   2.806   5.948   2.617
    1MUSC Si0Vp 9241   2.378   6.118   2.084
    1MUSC Si0Vq 9242   2.539   6.103   2.617
    1MUSC Si0Vr 9243   2.890   6.118   1.613
    1MUSC Si0Vs 9244   2.546   6.103   3.088
    1MUSC Si0Vt 9245   2.897   5.820   1.614
    1MUSC Si0Vu 9246   2.539   5.495   3.087
    1MUSC Si0Vv 9247   2.371   5.820   2.084
    1MUSC Si0Vw 9248   2.546   5.495   2.617
    1MUSC Si0Vx 9249   2.638   5.665   2.084
    1MUSC Si0Vy 9250   2.799   5.651   2.617
    1MUSC Si0Vz 9251   2.630   5.665   1.613
    1MUSC Si0W0 9252   2.286   5.651   3.088
    1MUSC O01XF 9253   2.400   6.106   2.243
    1MUSC O01XG 9254   2.516   6.115   2.458
    1MUSC O01XH 9255   2.868   6.106   1.454
    1MUSC O01XI 9256   2.568   6.115   3.247
    1MUSC O01XJ 9257   2.655   5.927   1.446
    1MUSC O01XK 9258   2.261   6.295   3.255
    1MUSC O01XL 9259   2.613   5.927   2.252
    1MUSC O01XM 9260   2.824   6.295   2.449
    1MUSC O01XN 9261   2.515   6.175   1.665
    1MUSC O01XO 9262   2.401   6.046   3.036
    1MUSC O01XP 9263   2.753   6.175   2.032
    1MUSC O01XQ 9264   2.684   6.046   2.669
    1MUSC O01XR 9265   2.494   6.212   2.013
    1MUSC O01XS 9266   2.423   6.009   2.688
    1MUSC O01XT 9267   2.774   6.212   1.685
    1MUSC O01XU 9268   2.662   6.009   3.016
    1MUSC O01XV 9269   2.394   5.969   2.013
    1MUSC O01XW 9270   2.522   6.253   2.688
    1MUSC O01XX 9271   2.874   5.969   1.684
    1MUSC O01XY 9272   2.562   6.253   3.017
    1MUSC O01XZ 9273   2.655   6.285   1.454
    1MUSC O01Xa 9274   2.261   5.937   3.247
    1MUSC O01Xb 9275   2.613   6.285   2.243
    1MUSC O01Xc 9276   2.824   5.937   2.458
    1MUSC O01Xd 9277   2.660   5.654   2.243
    1MUSC O01Xe 9278   2.777   5.662   2.458
    1MUSC O01Xf 9279   2.608   5.654   1.454
    1MUSC O01Xg 9280   2.308   5.662   3.247
    1MUSC O01Xh 9281   2.915   5.474   1.446
    1MUSC O01Xi 9282   2.521   5.842   3.255
    1MUSC O01Xj 9283   2.352   5.474   2.252
    1MUSC O01Xk 9284   2.564   5.842   2.449
    1MUSC O01Xl 9285   2.775   5.723   1.665
    1MUSC O01Xm 9286   2.661   5.593   3.036
    1MUSC O01Xn 9287   2.493   5.723   2.032
    1MUSC O01Xo 9288   2.424   5.593   2.669
    1MUSC O01Xp 9289   2.754   5.760   2.013
    1MUSC O01Xq 9290   2.683   5.556   2.688
    1MUSC O01Xr 9291   2.514   5.760   1.685
    1MUSC O01Xs 9292   2.402   5.556   3.016
    1MUSC O01Xt 9293   2.654   5.516   2.013
    1MUSC O01Xu 9294   2.783   5.800   2.688
    1MUSC O01Xv 9295   2.614   5.516   1.684
    1MUSC O01Xw 9296   2.302   5.800   3.017
    1MUSC O01Xx 9297   2.915   5.832   1.454
    1MUSC O01Xy 9298   2.521   5.484   3.247
    1MUSC O01Xz 9299   2.352   5.832   2.243
    1MUSC O01Y0 9300   2.564   5.484   2.458
    1MUSC K0061 9301   2.465   7.152   0.845
    1MUSC K0062 9302   2.725   6.699   0.845
    1MUSC Al0G1 9303   2.644   6.863   0.343
    1MUSC Al0G2 9304   2.638   7.168   0.344
    1MUSC Al0G3 9305   2.990   6.863   3.355
    1MUSC Al0G4 9306   2.813   7.168   1.346
    1MUSC Al0G5 9307   2.905   6.411   0.343
    1MUSC Al0G6 9308   2.898   6.716   0.344
    1MUSC Al0G7 9309   2.729   6.411   3.355
    1MUSC Al0G8 9310   2.553   6.716   1.346
    1MUSC Si0W1 9311   2.820   7.178   3.621
    1MUSC Si0W2 9312   2.462   6.853   1.080
    1MUSC Si0W3 9313   2.814   7.178   0.077
    1MUSC Si0W4 9314   2.989   6.853   0.610
    1MUSC Si0W5 9315   2.561   7.023   0.077
    1MUSC Si0W6 9316   2.722   7.009   0.610
    1MUSC Si0W7 9317   3.073   7.023   3.620
    1MUSC Si0W8 9318   2.729   7.009   1.081
    1MUSC Si0W9 9319   3.080   6.726   3.621
    1MUSC Si0WA 9320   2.722   6.401   1.080
    1MUSC Si0WB 9321   2.554   6.726   0.077
    1MUSC Si0WC 9322   2.729   6.401   0.610
    1MUSC Si0WD 9323   2.821   6.570   0.077
    1MUSC Si0WE 9324   2.982   6.556   0.610
    1MUSC Si0WF 9325   2.813   6.570   3.620
    1MUSC Si0WG 9326   2.469   6.556   1.081
    1MUSC O01Y1 9327   2.583   7.012   0.236
    1MUSC O01Y2 9328   2.699   7.020   0.451
    1MUSC O01Y3 9329   3.051   7.012   3.461
    1MUSC O01Y4 9330   2.751   7.020   1.240
    1MUSC O01Y5 9331   2.838   6.832   3.453
    1MUSC O01Y6 9332   2.444   7.200   1.248
    1MUSC O01Y7 9333   2.796   6.832   0.245
    1MUSC O01Y8 9334   3.007   7.200   0.442
    1MUSC O01Y9 9335   2.698   7.080   3.672
    1MUSC O01YA 9336   2.584   6.951   1.029
    1MUSC O01YB 9337   2.936   7.080   0.025
    1MUSC O01YC 9338   2.867   6.951   0.662
    1MUSC O01YD 9339   2.677   7.117   0.006
    1MUSC O01YE 9340   2.606   6.914   0.681
    1MUSC O01YF 9341   2.957   7.117   3.692
    1MUSC O01YG 9342   2.845   6.914   1.009
    1MUSC O01YH 9343   2.577   6.874   0.006
    1MUSC O01YI 9344   2.705   7.158   0.681
    1MUSC O01YJ 9345   3.057   6.874   3.691
    1MUSC O01YK 9346   2.745   7.158   1.010
    1MUSC O01YL 9347   2.838   7.190   3.461
    1MUSC O01YM 9348   2.444   6.842   1.240
    1MUSC O01YN 9349   2.796   7.190   0.236
    1MUSC O01YO 9350   3.007   6.842   0.451
    1MUSC O01YP 9351   2.843   6.559   0.236
    1MUSC O01YQ 9352   2.960   6.567   0.451
    1MUSC O01YR 9353   2.791   6.559   3.461
    1MUSC O01YS 9354   2.491   6.567   1.240
    1MUSC O01YT 9355   3.098   6.379   3.453
    1MUSC O01YU 9356   2.704   6.747   1.248
    1MUSC O01YV 9357   2.535   6.379   0.245
    1MUSC O01YW 9358   2.747   6.747   0.442
    1MUSC O01YX 9359   2.958   6.628   3.672
    1MUSC O01YY 9360   2.844   6.499   1.029
    1MUSC O01YZ 9361   2.676   6.628   0.025
    1MUSC O01Ya 9362   2.607   6.499   0.662
    1MUSC O01Yb 9363   2.937   6.665   0.006
    1MUSC O01Yc 9364   2.866   6.462   0.681
    1MUSC O01Yd 9365   2.697   6.665   3.692
    1MUSC O01Ye 9366   2.585   6.462   1.009
    1MUSC O01Yf 9367   2.837   6.421   0.006
    1MUSC O01Yg 9368   2.966   6.705   0.681
    1MUSC O01Yh 9369   2.797   6.421   3.691
    1MUSC O01Yi 9370   2.485   6.705   1.010
    1MUSC O01Yj 9371   3.098   6.737   3.461
    1MUSC O01Yk 9372   2.704   6.389   1.240
    1MUSC O01Yl 9373   2.535   6.737   0.236
    1MUSC O01Ym 9374   2.747   6.389   0.451
    1MUSC K0063 9375   2.634   6.880   1.849
    1MUSC K0064 9376   2.282   7.152   2.852
    1MUSC K0065 9377   2.374   6.427   1.849
    1MUSC K0066 9378   2.542   6.699   2.852
    1MUSC Al0G9 9379   2.461   6.863   2.350
    1MUSC Al0GA 9380   2.455   7.168   2.351
    1MUSC Al0GB 9381   2.807   6.863   1.348
    1MUSC Al0GC 9382   2.630   7.168   3.353
    1MUSC Al0GD 9383   2.722   6.411   2.350
    1MUSC Al0GE 9384   2.715   6.716   2.351
    1MUSC Al0GF 9385   2.546   6.411   1.348
    1MUSC Al0GG 9386   2.370   6.716   3.353
    1MUSC Si0WH 9387   2.637   7.178   1.614
    1MUSC Si0WI 9388   2.279   6.853   3.087
    1MUSC Si0WJ 9389   2.631   7.178   2.084
    1MUSC Si0WK 9390   2.806   6.853   2.617
    1MUSC Si0WL 9391   2.378   7.023   2.084
    1MUSC Si0WM 9392   2.539   7.009   2.617
    1MUSC Si0WN 9393   2.890   7.023   1.613
    1MUSC Si0WO 9394   2.546   7.009   3.088
    1MUSC Si0WP 9395   2.897   6.726   1.614
    1MUSC Si0WQ 9396   2.539   6.401   3.087
    1MUSC Si0WR 9397   2.371   6.726   2.084
    1MUSC Si0WS 9398   2.546   6.401   2.617
    1MUSC Si0WT 9399   2.638   6.570   2.084
    1MUSC Si0WU 9400   2.799   6.556   2.617
    1MUSC Si0WV 9401   2.630   6.570   1.613
    1MUSC Si0WW 9402   2.286   6.556   3.088
    1MUSC O01Yn 9403   2.400   7.012   2.243
    1MUSC O01Yo 9404   2.516   7.020   2.458
    1MUSC O01Yp 9405   2.868   7.012   1.454
    1MUSC O01Yq 9406   2.568   7.020   3.247
    1MUSC O01Yr 9407   2.655   6.832   1.446
    1MUSC O01Ys 9408   2.261   7.200   3.255
    1MUSC O01Yt 9409   2.613   6.832   2.252
    1MUSC O01Yu 9410   2.824   7.200   2.449
    1MUSC O01Yv 9411   2.515   7.080   1.665
    1MUSC O01Yw 9412   2.401   6.951   3.036
    1MUSC O01Yx 9413   2.753   7.080   2.032
    1MUSC O01Yy 9414   2.684   6.951   2.669
    1MUSC O01Yz 9415   2.494   7.117   2.013
    1MUSC O01Z0 9416   2.423   6.914   2.688
    1MUSC O01Z1 9417   2.774   7.117   1.685
    1MUSC O01Z2 9418   2.662   6.914   3.016
    1MUSC O01Z3 9419   2.394   6.874   2.013
    1MUSC O01Z4 9420   2.522   7.158   2.688
    1MUSC O01Z5 9421   2.874   6.874   1.684
    1MUSC O01Z6 9422   2.562   7.158   3.017
    1MUSC O01Z7 9423   2.655   7.190   1.454
    1MUSC O01Z8 9424   2.261   6.842   3.247
    1MUSC O01Z9 9425   2.613   7.190   2.243
    1MUSC O01ZA 9426   2.824   6.842   2.458
    1MUSC O01ZB 9427   2.660   6.559   2.243
    1MUSC O01ZC 9428   2.777   6.567   2.458
    1MUSC O01ZD 9429   2.608   6.559   1.454
    1MUSC O01ZE 9430   2.308   6.567   3.247
    1MUSC O01ZF 9431   2.915   6.379   1.446
    1MUSC O01ZG 9432   2.521   6.747   3.255
    1MUSC O01ZH 9433   2.352   6.379   2.252
    1MUSC O01ZI 9434   2.564   6.747   2.449
    1MUSC O01ZJ 9435   2.775   6.628   1.665
    1MUSC O01ZK 9436   2.661   6.499   3.036
    1MUSC O01ZL 9437   2.493   6.628   2.032
    1MUSC O01ZM 9438   2.424   6.499   2.669
    1MUSC O01ZN 9439   2.754   6.665   2.013
    1MUSC O01ZO 9440   2.683   6.462   2.688
    1MUSC O01ZP 9441   2.514   6.665   1.685
    1MUSC O01ZQ 9442   2.402   6.462   3.016
    1MUSC O01ZR 9443   2.654   6.421   2.013
    1MUSC O01ZS 9444   2.783   6.705   2.688
    1MUSC O01ZT 9445   2.614   6.421   1.684
    1MUSC O01ZU 9446   2.302   6.705   3.017
    1MUSC O01ZV 9447   2.915   6.737   1.454
    1MUSC O01ZW 9448   2.521   6.389   3.247
    1MUSC O01ZX 9449   2.352   6.737   2.243
    1MUSC O01ZY 9450   2.564   6.389   2.458
    1MUSC K0067 9451   2.465   8.057   0.845
    1MUSC K0068 9452   2.725   7.605   0.845
    1MUSC Al0GH 9453   2.644   7.769   0.343
    1MUSC Al0GI 9454   2.638   8.074   0.344
    1MUSC Al0GJ 9455   2.990   7.769   3.355
    1MUSC Al0GK 9456   2.813   8.074   1.346
    1MUSC Al0GL 9457   2.905   7.316   0.343
    1MUSC Al0GM 9458   2.898   7.621   0.344
    1MUSC Al0GN 9459   2.729   7.316   3.355
    1MUSC Al0GO 9460   2.553   7.621   1.346
    1MUSC Si0WX 9461   2.820   8.084   3.621
    1MUSC Si0WY 9462   2.462   7.759   1.080
    1MUSC Si0WZ 9463   2.814   8.084   0.077
    1MUSC Si0Wa 9464   2.989   7.759   0.610
    1MUSC Si0Wb 9465   2.561   7.928   0.077
    1MUSC Si0Wc 9466   2.722   7.914   0.610
    1MUSC Si0Wd 9467   3.073   7.928   3.620
    1MUSC Si0We 9468   2.729   7.914   1.081
    1MUSC Si0Wf 9469   3.080   7.631   3.621
    1MUSC Si0Wg 9470   2.722   7.306   1.080
    1MUSC Si0Wh 9471   2.554   7.631   0.077
    1MUSC Si0Wi 9472   2.729   7.306   0.610
    1MUSC Si0Wj 9473   2.821   7.476   0.077
    1MUSC Si0Wk 9474   2.982   7.461   0.610
    1MUSC Si0Wl 9475   2.813   7.476   3.620
    1MUSC Si0Wm 9476   2.469   7.461   1.081
    1MUSC O01ZZ 9477   2.583   7.917   0.236
    1MUSC O01Za 9478   2.699   7.925   0.451
    1MUSC O01Zb 9479   3.051   7.917   3.461
    1MUSC O01Zc 9480   2.751   7.925   1.240
    1MUSC O01Zd 9481   2.838   7.737   3.453
    1MUSC O01Ze 9482   2.444   8.105   1.248
    1MUSC O01Zf 9483   2.796   7.737   0.245
    1MUSC O01Zg 9484   3.007   8.105   0.442
    1MUSC O01Zh 9485   2.698   7.986   3.672
    1MUSC O01Zi 9486   2.584   7.856   1.029
    1MUSC O01Zj 9487   2.936   7.986   0.025
    1MUSC O01Zk 9488   2.867   7.856   0.662
    1MUSC O01Zl 9489   2.677   8.023   0.006
    1MUSC O01Zm 9490   2.606   7.819   0.681
    1MUSC O01Zn 9491   2.957   8.023   3.692
    1MUSC O01Zo 9492   2.845   7.819   1.009
    1MUSC O01Zp 9493   2.577   7.779   0.006
    1MUSC O01Zq 9494   2.705   8.063   0.681
    1MUSC O01Zr 9495   3.057   7.779   3.691
    1MUSC O01Zs 9496   2.745   8.063   1.010
    1MUSC O01Zt 9497   2.838   8.095   3.461
    1MUSC O01Zu 9498   2.444   7.747   1.240
    1MUSC O01Zv 9499   2.796   8.095   0.236
    1MUSC O01Zw 9500   3.007   7.747   0.451
    1MUSC O01Zx 9501   2.843   7.464   0.236
    1MUSC O01Zy 9502   2.960   7.473   0.451
    1MUSC O01Zz 9503   2.791   7.464   3.461
    1MUSC O01a0 9504   2.491   7.473   1.240
    1MUSC O01a1 9505   3.098   7.284   3.453
    1MUSC O01a2 9506   2.704   7.653   1.248
    1MUSC O01a3 9507   2.535   7.284   0.245
    1MUSC O01a4 9508   2.747   7.653   0.442
    1MUSC O01a5 9509   2.958   7.533   3.672
    1MUSC O01a6 9510   2.844   7.404   1.029
    1MUSC O01a7 9511   2.676   7.533   0.025
    1MUSC O01a8 9512   2.607   7.404   0.662
    1MUSC O01a9 9513   2.937   7.570   0.006
    1MUSC O01aA 9514   2.866   7.367   0.681
    1MUSC O01aB 9515   2.697   7.570   3.692
    1MUSC O01aC 9516   2.585   7.367   1.009
    1MUSC O01aD 9517   2.837   7.326   0.006
    1MUSC O01aE 9518   2.966   7.611   0.681
    1MUSC O01aF 9519   2.797   7.326   3.691
    1MUSC O01aG 9520   2.485   7.611   1.010
    1MUSC O01aH 9521   3.098   7.642   3.461
    1MUSC O01aI 9522   2.704   7.295   1.240
    1MUSC O01aJ 9523   2.535   7.642   0.236
    1MUSC O01aK 9524   2.747   7.295   0.451
    1MUSC K0069 9525   2.634   7.785   1.849
    1MUSC K006A 9526   2.282   8.057   2.852
    1MUSC K006B 9527   2.374   7.332   1.849
    1MUSC K006C 9528   2.542   7.605   2.852
    1MUSC Al0GP 9529   2.461   7.769   2.350
    1MUSC Al0GQ 9530   2.455   8.074   2.351
    1MUSC Al0GR 9531   2.807   7.769   1.348
    1MUSC Al0GS 9532   2.630   8.074   3.353
    1MUSC Al0GT 9533   2.722   7.316   2.350
    1MUSC Al0GU 9534   2.715   7.621   2.351
    1MUSC Al0GV 9535   2.546   7.316   1.348
    1MUSC Al0GW 9536   2.370   7.621   3.353
    1MUSC Si0Wn 9537   2.637   8.084   1.614
    1MUSC Si0Wo 9538   2.279   7.759   3.087
    1MUSC Si0Wp 9539   2.631   8.084   2.084
    1MUSC Si0Wq 9540   2.806   7.759   2.617
    1MUSC Si0Wr 9541   2.378   7.928   2.084
    1MUSC Si0Ws 9542   2.539   7.914   2.617
    1MUSC Si0Wt 9543   2.890   7.928   1.613
    1MUSC Si0Wu 9544   2.546   7.914   3.088
    1MUSC Si0Wv 9545   2.897   7.631   1.614
    1MUSC Si0Ww 9546   2.539   7.306   3.087
    1MUSC Si0Wx 9547   2.371   7.631   2.084
    1MUSC Si0Wy 9548   2.546   7.306   2.617
    1MUSC Si0Wz 9549   2.638   7.476   2.084
    1MUSC Si0X0 9550   2.799   7.461   2.617
    1MUSC Si0X1 9551   2.630   7.476   1.613
    1MUSC Si0X2 9552   2.286   7.461   3.088
    1MUSC O01aL 9553   2.400   7.917   2.243
    1MUSC O01aM 9554   2.516   7.925   2.458
    1MUSC O01aN 9555   2.868   7.917   1.454
    1MUSC O01aO 9556   2.568   7.925   3.247
    1MUSC O01aP 9557   2.655   7.737   1.446
    1MUSC O01aQ 9558   2.261   8.105   3.255
    1MUSC O01aR 9559   2.613   7.737   2.252
    1MUSC O01aS 9560   2.824   8.105   2.449
    1MUSC O01aT 9561   2.515   7.986   1.665
    1MUSC O01aU 9562   2.401   7.856   3.036
    1MUSC O01aV 9563   2.753   7.986   2.032
    1MUSC O01aW 9564   2.684   7.856   2.669
    1MUSC O01aX 9565   2.494   8.023   2.013
    1MUSC O01aY 9566   2.423   7.819   2.688
    1MUSC O01aZ 9567   2.774   8.023   1.685
    1MUSC O01aa 9568   2.662   7.819   3.016
    1MUSC O01ab 9569   2.394   7.779   2.013
    1MUSC O01ac 9570   2.522   8.063   2.688
    1MUSC O01ad 9571   2.874   7.779   1.684
    1MUSC O01ae 9572   2.562   8.063   3.017
    1MUSC O01af 9573   2.655   8.095   1.454
    1MUSC O01ag 9574   2.261   7.747   3.247
    1MUSC O01ah 9575   2.613   8.095   2.243
    1MUSC O01ai 9576   2.824   7.747   2.458
    1MUSC O01aj 9577   2.660   7.464   2.243
    1MUSC O01ak 9578   2.777   7.473   2.458
    1MUSC O01al 9579   2.608   7.464   1.454
    1MUSC O01am 9580   2.308   7.473   3.247
    1MUSC O01an 9581   2.915   7.284   1.446
    1MUSC O01ao 9582   2.521   7.653   3.255
    1MUSC O01ap 9583   2.352   7.284   2.252
    1MUSC O01aq 9584   2.564   7.653   2.449
    1MUSC O01ar 9585   2.775   7.533   1.665
    1MUSC O01as 9586   2.661   7.404   3.036
    1MUSC O01at 9587   2.493   7.533   2.032
    1MUSC O01au 9588   2.424   7.404   2.669
    1MUSC O01av 9589   2.754   7.570   2.013
    1MUSC O01aw 9590   2.683   7.367   2.688
    1MUSC O01ax 9591   2.514   7.570   1.685
    1MUSC O01ay 9592   2.402   7.367   3.016
    1MUSC O01az 9593   2.654   7.326   2.013
    1MUSC O01b0 9594   2.783   7.611   2.688
    1MUSC O01b1 9595   2.614   7.326   1.684
    1MUSC O01b2 9596   2.302   7.611   3.017
    1MUSC O01b3 9597   2.915   7.642   1.454
    1MUSC O01b4 9598   2.521   7.295   3.247
    1MUSC O01b5 9599   2.352   7.642   2.243
    1MUSC O01b6 9600   2.564   7.295   2.458
    1MUSC K006D 9601   2.465   8.962   0.845
    1MUSC K006E 9602   2.725   8.510   0.845
    1MUSC Al0GX 9603   2.644   8.674   0.343
    1MUSC Al0GY 9604   2.638   8.979   0.344
    1MUSC Al0GZ 9605   2.990   8.674   3.355
    1MUSC Al0Ga 9606   2.813   8.979   1.346
    1MUSC Al0Gb 9607   2.905   8.221   0.343
    1MUSC Al0Gc 9608   2.898   8.526   0.344
    1MUSC Al0Gd 9609   2.729   8.221   3.355
    1MUSC Al0Ge 9610   2.553   8.526   1.346
    1MUSC Si0X3 9611   2.820   8.989   3.621
    1MUSC Si0X4 9612   2.462   8.664   1.080
    1MUSC Si0X5 9613   2.814   8.989   0.077
    1MUSC Si0X6 9614   2.989   8.664   0.610
    1MUSC Si0X7 9615   2.561   8.834   0.077
    1MUSC Si0X8 9616   2.722   8.819   0.610
    1MUSC Si0X9 9617   3.073   8.834   3.620
    1MUSC Si0XA 9618   2.729   8.819   1.081
    1MUSC Si0XB 9619   3.080   8.536   3.621
    1MUSC Si0XC 9620   2.722   8.211   1.080
    1MUSC Si0XD 9621   2.554   8.536   0.077
    1MUSC Si0XE 9622   2.729   8.211   0.610
    1MUSC Si0XF 9623   2.821   8.381   0.077
    1MUSC Si0XG 9624   2.982   8.367   0.610
    1MUSC Si0XH 9625   2.813   8.381   3.620
    1MUSC Si0XI 9626   2.469   8.367   1.081
    1MUSC O01b7 9627   2.583   8.822   0.236
    1MUSC O01b8 9628   2.699   8.831   0.451
    1MUSC O01b9 9629   3.051   8.822   3.461
    1MUSC O01bA 9630   2.751   8.831   1.240
    1MUSC O01bB 9631   2.838   8.642   3.453
    1MUSC O01bC 9632   2.444   9.010   1.248
    1MUSC O01bD 9633   2.796   8.642   0.245
    1MUSC O01bE 9634   3.007   9.010   0.442
    1MUSC O01bF 9635   2.698   8.891   3.672
    1MUSC O01bG 9636   2.584   8.762   1.029
    1MUSC O01bH 9637   2.936   8.891   0.025
    1MUSC O01bI 9638   2.867   8.762   0.662
    1MUSC O01bJ 9639   2.677   8.928   0.006
    1MUSC O01bK 9640   2.606   8.725   0.681
    1MUSC O01bL 9641   2.957   8.928   3.692
    1MUSC O01bM 9642   2.845   8.725   1.009
    1MUSC O01bN 9643   2.577   8.684   0.006
    1MUSC O01bO 9644   2.705   8.968   0.681
    1MUSC O01bP 9645   3.057   8.684   3.691
    1MUSC O01bQ 9646   2.745   8.968   1.010
    1MUSC O01bR 9647   2.838   9.000   3.461
    1MUSC O01bS 9648   2.444   8.652   1.240
    1MUSC O01bT 9649   2.796   9.000   0.236
    1MUSC O01bU 9650   3.007   8.652   0.451
    1MUSC O01bV 9651   2.843   8.370   0.236
    1MUSC O01bW 9652   2.960   8.378   0.451
    1MUSC O01bX 9653   2.791   8.370   3.461
    1MUSC O01bY 9654   2.491   8.378   1.240
    1MUSC O01bZ 9655   3.098   8.190   3.453
    1MUSC O01ba 9656   2.704   8.558   1.248
    1MUSC O01bb 9657   2.535   8.190   0.245
    1MUSC O01bc 9658   2.747   8.558   0.442
    1MUSC O01bd 9659   2.958   8.438   3.672
    1MUSC O01be 9660   2.844   8.309   1.029
    1MUSC O01bf 9661   2.676   8.438   0.025
    1MUSC O01bg 9662   2.607   8.309   0.662
    1MUSC O01bh 9663   2.937   8.475   0.006
    1MUSC O01bi 9664   2.866   8.272   0.681
    1MUSC O01bj 9665   2.697   8.475   3.692
    1MUSC O01bk 9666   2.585   8.272   1.009
    1MUSC O01bl 9667   2.837   8.232   0.006
    1MUSC O01bm 9668   2.966   8.516   0.681
    1MUSC O01bn 9669   2.797   8.232   3.691
    1MUSC O01bo 9670   2.485   8.516   1.010
    1MUSC O01bp 9671   3.098   8.548   3.461
    1MUSC O01bq 9672   2.704   8.200   1.240
    1MUSC O01br 9673   2.535   8.548   0.236
    1MUSC O01bs 9674   2.747   8.200   0.451
    1MUSC K006F 9675   2.634   8.690   1.849
    1MUSC K006G 9676   2.282   8.962   2.852
    1MUSC K006H 9677   2.374   8.238   1.849
    1MUSC K006I 9678   2.542   8.510   2.852
    1MUSC Al0Gf 9679   2.461   8.674   2.350
    1MUSC Al0Gg 9680   2.455   8.979   2.351
    1MUSC Al0Gh 9681   2.807   8.674   1.348
    1MUSC Al0Gi 9682   2.630   8.979   3.353
    1MUSC Al0Gj 9683   2.722   8.221   2.350
    1MUSC Al0Gk 9684   2.715   8.526   2.351
    1MUSC Al0Gl 9685   2.546   8.221   1.348
    1MUSC Al0Gm 9686   2.370   8.526   3.353
    1MUSC Si0XJ 9687   2.637   8.989   1.614
    1MUSC Si0XK 9688   2.279   8.664   3.087
    1MUSC Si0XL 9689   2.631   8.989   2.084
    1MUSC Si0XM 9690   2.806   8.664   2.617
    1MUSC Si0XN 9691   2.378   8.834   2.084
    1MUSC Si0XO 9692   2.539   8.819   2.617
    1MUSC Si0XP 9693   2.890   8.834   1.613
    1MUSC Si0XQ 9694   2.546   8.819   3.088
    1MUSC Si0XR 9695   2.897   8.536   1.614
    1MUSC Si0XS 9696   2.539   8.211   3.087
    1MUSC Si0XT 9697   2.371   8.536   2.084
    1MUSC Si0XU 9698   2.546   8.211   2.617
    1MUSC Si0XV 9699   2.638   8.381   2.084
    1MUSC Si0XW 9700   2.799   8.367   2.617
    1MUSC Si0XX 9701   2.630   8.381   1.613
    1MUSC Si0XY 9702   2.286   8.367   3.088
    1MUSC O01bt 9703   2.400   8.822   2.243
    1MUSC O01bu 9704   2.516   8.831   2.458
    1MUSC O01bv 9705   2.868   8.822   1.454
    1MUSC O01bw 9706   2.568   8.831   3.247
    1MUSC O01bx 9707   2.655   8.642   1.446
    1MUSC O01by 9708   2.261   9.010   3.255
    1MUSC O01bz 9709   2.613   8.642   2.252
    1MUSC O01c0 9710   2.824   9.010   2.449
    1MUSC O01c1 9711   2.515   8.891   1.665
    1MUSC O01c2 9712   2.401   8.762   3.036
    1MUSC O01c3 9713   2.753   8.891   2.032
    1MUSC O01c4 9714   2.684   8.762   2.669
    1MUSC O01c5 9715   2.494   8.928   2.013
    1MUSC O01c6 9716   2.423   8.725   2.688
    1MUSC O01c7 9717   2.774   8.928   1.685
    1MUSC O01c8 9718   2.662   8.725   3.016
    1MUSC O01c9 9719   2.394   8.684   2.013
    1MUSC O01cA 9720   2.522   8.968   2.688
    1MUSC O01cB 9721   2.874   8.684   1.684
    1MUSC O01cC 9722   2.562   8.968   3.017
    1MUSC O01cD 9723   2.655   9.000   1.454
    1MUSC O01cE 9724   2.261   8.652   3.247
    1MUSC O01cF 9725   2.613   9.000   2.243
    1MUSC O01cG 9726   2.824   8.652   2.458
    1MUSC O01cH 9727   2.660   8.370   2.243
    1MUSC O01cI 9728   2.777   8.378   2.458
    1MUSC O01cJ 9729   2.608   8.370   1.454
    1MUSC O01cK 9730   2.308   8.378   3.247
    1MUSC O01cL 9731   2.915   8.190   1.446
    1MUSC O01cM 9732   2.521   8.558   3.255
    1MUSC O01cN 9733   2.352   8.190   2.252
    1MUSC O01cO 9734   2.564   8.558   2.449
    1MUSC O01cP 9735   2.775   8.438   1.665
    1MUSC O01cQ 9736   2.661   8.309   3.036
    1MUSC O01cR 9737   2.493   8.438   2.032
    1MUSC O01cS 9738   2.424   8.309   2.669
    1MUSC O01cT 9739   2.754   8.475   2.013
    1MUSC O01cU 9740   2.683   8.272   2.688
    1MUSC O01cV 9741   2.514   8.475   1.685
    1MUSC O01cW 9742   2.402   8.272   3.016
    1MUSC O01cX 9743   2.654   8.232   2.013
    1MUSC O01cY 9744   2.783   8.516   2.688
    1MUSC O01cZ 9745   2.614   8.232   1.684
    1MUSC O01ca 9746   2.302   8.516   3.017
    1MUSC O01cb 9747   2.915   8.548   1.454
    1MUSC O01cc 9748   2.521   8.200   3.247
    1MUSC O01cd 9749   2.352   8.548   2.243
    1MUSC O01ce 9750   2.564   8.200   2.458
    1MUSC K006J 9751   2.465   9.868   0.845
    1MUSC K006K 9752   2.725   9.415   0.845
    1MUSC Al0Gn 9753   2.644   9.579   0.343
    1MUSC Al0Go 9754   2.638   9.884   0.344
    1MUSC Al0Gp 9755   2.990   9.579   3.355
    1MUSC Al0Gq 9756   2.813   9.884   1.346
    1MUSC Al0Gr 9757   2.905   9.126   0.343
    1MUSC Al0Gs 9758   2.898   9.432   0.344
    1MUSC Al0Gt 9759   2.729   9.126   3.355
    1MUSC Al0Gu 9760   2.553   9.432   1.346
    1MUSC Si0XZ 9761   2.820   9.894   3.621
    1MUSC Si0Xa 9762   2.462   9.569   1.080
    1MUSC Si0Xb 9763   2.814   9.894   0.077
    1MUSC Si0Xc 9764   2.989   9.569   0.610
    1MUSC Si0Xd 9765   2.561   9.739   0.077
    1MUSC Si0Xe 9766   2.722   9.724   0.610
    1MUSC Si0Xf 9767   3.073   9.739   3.620
    1MUSC Si0Xg 9768   2.729   9.724   1.081
    1MUSC Si0Xh 9769   3.080   9.441   3.621
    1MUSC Si0Xi 9770   2.722   9.117   1.080
    1MUSC Si0Xj 9771   2.554   9.441   0.077
    1MUSC Si0Xk 9772   2.729   9.117   0.610
    1MUSC Si0Xl 9773   2.821   9.286   0.077
    1MUSC Si0Xm 9774   2.982   9.272   0.610
    1MUSC Si0Xn 9775   2.813   9.286   3.620
    1MUSC Si0Xo 9776   2.469   9.272   1.081
    1MUSC O01cf 9777   2.583   9.728   0.236
    1MUSC O01cg 9778   2.699   9.736   0.451
    1MUSC O01ch 9779   3.051   9.728   3.461
    1MUSC O01ci 9780   2.751   9.736   1.240
    1MUSC O01cj 9781   2.838   9.548   3.453
    1MUSC O01ck 9782   2.444   9.916   1.248
    1MUSC O01cl 9783   2.796   9.548   0.245
    1MUSC O01cm 9784   3.007   9.916   0.442
    1MUSC O01cn 9785   2.698   9.796   3.672
    1MUSC O01co 9786   2.584   9.667   1.029
    1MUSC O01cp 9787   2.936   9.796   0.025
    1MUSC O01cq 9788   2.867   9.667   0.662
    1MUSC O01cr 9789   2.677   9.833   0.006
    1MUSC O01cs 9790   2.606   9.630   0.681
    1MUSC O01ct 9791   2.957   9.833   3.692
    1MUSC O01cu 9792   2.845   9.630   1.009
    1MUSC O01cv 9793   2.577   9.590   0.006
    1MUSC O01cw 9794   2.705   9.874   0.681
    1MUSC O01cx 9795   3.057   9.590   3.691
    1MUSC O01cy 9796   2.745   9.874   1.010
    1MUSC O01cz 9797   2.838   9.906   3.461
    1MUSC O01d0 9798   2.444   9.558   1.240
    1MUSC O01d1 9799   2.796   9.906   0.236
    1MUSC O01d2 9800   3.007   9.558   0.451
    1MUSC O01d3 9801   2.843   9.275   0.236
    1MUSC O01d4 9802   2.960   9.283   0.451
    1MUSC O01d5 9803   2.791   9.275   3.461
    1MUSC O01d6 9804   2.491   9.283   1.240
    1MUSC O01d7 9805   3.098   9.095   3.453
    1MUSC O01d8 9806   2.704   9.463   1.248
    1MUSC O01d9 9807   2.535   9.095   0.245
    1MUSC O01dA 9808   2.747   9.463   0.442
    1MUSC O01dB 9809   2.958   9.344   3.672
    1MUSC O01dC 9810   2.844   9.214   1.029
    1MUSC O01dD 9811   2.676   9.344   0.025
    1MUSC O01dE 9812   2.607   9.214   0.662
    1MUSC O01dF 9813   2.937   9.381   0.006
    1MUSC O01dG 9814   2.866   9.177   0.681
    1MUSC O01dH 9815   2.697   9.381   3.692
    1MUSC O01dI 9816   2.585   9.177   1.009
    1MUSC O01dJ 9817   2.837   9.137   0.006
    1MUSC O01dK 9818   2.966   9.421   0.681
    1MUSC O01dL 9819   2.797   9.137   3.691
    1MUSC O01dM 9820   2.485   9.421   1.010
    1MUSC O01dN 9821   3.098   9.453   3.461
    1MUSC O01dO 9822   2.704   9.105   1.240
    1MUSC O01dP 9823   2.535   9.453   0.236
    1MUSC O01dQ 9824   2.747   9.105   0.451
    1MUSC K006L 9825   2.634   9.596   1.849
    1MUSC K006M 9826   2.282   9.868   2.852
    1MUSC K006N 9827   2.374   9.143   1.849
    1MUSC K006O 9828   2.542   9.415   2.852
    1MUSC Al0Gv 9829   2.461   9.579   2.350
    1MUSC Al0Gw 9830   2.455   9.884   2.351
    1MUSC Al0Gx 9831   2.807   9.579   1.348
    1MUSC Al0Gy 9832   2.630   9.884   3.353
    1MUSC Al0Gz 9833   2.722   9.126   2.350
    1MUSC Al0H0 9834   2.715   9.432   2.351
    1MUSC Al0H1 9835   2.546   9.126   1.348
    1MUSC Al0H2 9836   2.370   9.432   3.353
    1MUSC Si0Xp 9837   2.637   9.894   1.614
    1MUSC Si0Xq 9838   2.279   9.569   3.087
    1MUSC Si0Xr 9839   2.631   9.894   2.084
    1MUSC Si0Xs 9840   2.806   9.569   2.617
    1MUSC Si0Xt 9841   2.378   9.739   2.084
    1MUSC Si0Xu 9842   2.539   9.724   2.617
    1MUSC Si0Xv 9843   2.890   9.739   1.613
    1MUSC Si0Xw 9844   2.546   9.724   3.088
    1MUSC Si0Xx 9845   2.897   9.441   1.614
    1MUSC Si0Xy 9846   2.539   9.117   3.087
    1MUSC Si0Xz 9847   2.371   9.441   2.084
    1MUSC Si0Y0 9848   2.546   9.117   2.617
    1MUSC Si0Y1 9849   2.638   9.286   2.084
    1MUSC Si0Y2 9850   2.799   9.272   2.617
    1MUSC Si0Y3 9851   2.630   9.286   1.613
    1MUSC Si0Y4 9852   2.286   9.272   3.088
    1MUSC O01dR 9853   2.400   9.728   2.243
    1MUSC O01dS 9854   2.516   9.736   2.458
    1MUSC O01dT 9855   2.868   9.728   1.454
    1MUSC O01dU 9856   2.568   9.736   3.247
    1MUSC O01dV 9857   2.655   9.548   1.446
    1MUSC O01dW 9858   2.261   9.916   3.255
    1MUSC O01dX 9859   2.613   9.548   2.252
    1MUSC O01dY 9860   2.824   9.916   2.449
    1MUSC O01dZ 9861   2.515   9.796   1.665
    1MUSC O01da 9862   2.401   9.667   3.036
    1MUSC O01db 9863   2.753   9.796   2.032
    1MUSC O01dc 9864   2.684   9.667   2.669
    1MUSC O01dd 9865   2.494   9.833   2.013
    1MUSC O01de 9866   2.423   9.630   2.688
    1MUSC O01df 9867   2.774   9.833   1.685
    1MUSC O01dg 9868   2.662   9.630   3.016
    1MUSC O01dh 9869   2.394   9.590   2.013
    1MUSC O01di 9870   2.522   9.874   2.688
    1MUSC O01dj 9871   2.874   9.590   1.684
    1MUSC O01dk 9872   2.562   9.874   3.017
    1MUSC O01dl 9873   2.655   9.906   1.454
    1MUSC O01dm 9874   2.261   9.558   3.247
    1MUSC O01dn 9875   2.613   9.906   2.243
    1MUSC O01do 9876   2.824   9.558   2.458
    1MUSC O01dp 9877   2.660   9.275   2.243
    1MUSC O01dq 9878   2.777   9.283   2.458
    1MUSC O01dr 9879   2.608   9.275   1.454
    1MUSC O01ds 9880   2.308   9.283   3.247
    1MUSC O01dt 9881   2.915   9.095   1.446
    1MUSC O01du 9882   2.521   9.463   3.255
    1MUSC O01dv 9883   2.352   9.095   2.252
    1MUSC O01dw 9884   2.564   9.463   2.449
    1MUSC O01dx 9885   2.775   9.344   1.665
    1MUSC O01dy 9886   2.661   9.214   3.036
    1MUSC O01dz 9887   2.493   9.344   2.032
    1MUSC O01e0 9888   2.424   9.214   2.669
    1MUSC O01e1 9889   2.754   9.381   2.013
    1MUSC O01e2 9890   2.683   9.177   2.688
    1MUSC O01e3 9891   2.514   9.381   1.685
    1MUSC O01e4 9892   2.402   9.177   3.016
    1MUSC O01e5 9893   2.654   9.137   2.013
    1MUSC O01e6 9894   2.783   9.421   2.688
    1MUSC O01e7 9895   2.614   9.137   1.684
    1MUSC O01e8 9896   2.302   9.421   3.017
    1MUSC O01e9 9897   2.915   9.453   1.454
    1MUSC O01eA 9898   2.521   9.105   3.247
    1MUSC O01eB 9899   2.352   9.453   2.243
    1MUSC O01eC 9900   2.564   9.105   2.458
    1MUSC K006P 9901   2.986   0.815   0.845
    1MUSC K006Q 9902   3.246   0.362   0.845
    1MUSC Al0H3 9903   3.165   0.526   0.343
    1MUSC Al0H4 9904   3.158   0.831   0.344
    1MUSC Al0H5 9905   3.510   0.526   3.355
    1MUSC Al0H6 9906   3.334   0.831   1.346
    1MUSC Al0H7 9907   3.425   0.074   0.343
    1MUSC Al0H8 9908   3.419   0.379   0.344
    1MUSC Al0H9 9909   3.250   0.074   3.355
    1MUSC Al0HA 9910   3.073   0.379   1.346
    1MUSC Si0Y5 9911   3.340   0.841   3.621
    1MUSC Si0Y6 9912   2.983   0.517   1.080
    1MUSC Si0Y7 9913   3.334   0.841   0.077
    1MUSC Si0Y8 9914   3.509   0.517   0.610
    1MUSC Si0Y9 9915   3.081   0.686   0.077
    1MUSC Si0YA 9916   3.242   0.672   0.610
    1MUSC Si0YB 9917   3.594   0.686   3.620
    1MUSC Si0YC 9918   3.250   0.672   1.081
    1MUSC Si0YD 9919   3.601   0.389   3.621
    1MUSC Si0YE 9920   3.243   0.064   1.080
    1MUSC Si0YF 9921   3.074   0.389   0.077
    1MUSC Si0YG 9922   3.249   0.064   0.610
    1MUSC Si0YH 9923   3.341   0.233   0.077
    1MUSC Si0YI 9924   3.502   0.219   0.610
    1MUSC Si0YJ 9925   3.334   0.233   3.620
    1MUSC Si0YK 9926   2.990   0.219   1.081
    1MUSC O01eD 9927   3.103   0.675   0.236
    1MUSC O01eE 9928   3.220   0.683   0.451
    1MUSC O01eF 9929   3.572   0.675   3.461
    1MUSC O01eG 9930   3.272   0.683   1.240
    1MUSC O01eH 9931   3.359   0.495   3.453
    1MUSC O01eI 9932   2.964   0.863   1.248
    1MUSC O01eJ 9933   3.316   0.495   0.245
    1MUSC O01eK 9934   3.527   0.863   0.442
    1MUSC O01eL 9935   3.219   0.744   3.672
    1MUSC O01eM 9936   3.105   0.614   1.029
    1MUSC O01eN 9937   3.456   0.744   0.025
    1MUSC O01eO 9938   3.387   0.614   0.662
    1MUSC O01eP 9939   3.197   0.781   0.006
    1MUSC O01eQ 9940   3.126   0.577   0.681
    1MUSC O01eR 9941   3.478   0.781   3.692
    1MUSC O01eS 9942   3.366   0.577   1.009
    1MUSC O01eT 9943   3.097   0.537   0.006
    1MUSC O01eU 9944   3.226   0.821   0.681
    1MUSC O01eV 9945   3.578   0.537   3.691
    1MUSC O01eW 9946   3.266   0.821   1.010
    1MUSC O01eX 9947   3.359   0.853   3.461
    1MUSC O01eY 9948   2.964   0.505   1.240
    1MUSC O01eZ 9949   3.316   0.853   0.236
    1MUSC O01ea 9950   3.527   0.505   0.451
    1MUSC O01eb 9951   3.363   0.222   0.236
    1MUSC O01ec 9952   3.480   0.230   0.451
    1MUSC O01ed 9953   3.311   0.222   3.461
    1MUSC O01ee 9954   3.012   0.230   1.240
    1MUSC O01ef 9955   3.619   0.042   3.453
    1MUSC O01eg 9956   3.225   0.410   1.248
    1MUSC O01eh 9957   3.056   0.042   0.245
    1MUSC O01ei 9958   3.267   0.410   0.442
    1MUSC O01ej 9959   3.479   0.291   3.672
    1MUSC O01ek 9960   3.365   0.162   1.029
    1MUSC O01el 9961   3.196   0.291   0.025
    1MUSC O01em 9962   3.127   0.162   0.662
    1MUSC O01en 9963   3.457   0.328   0.006
    1MUSC O01eo 9964   3.386   0.125   0.681
    1MUSC O01ep 9965   3.218   0.328   3.692
    1MUSC O01eq 9966   3.106   0.125   1.009
    1MUSC O01er 9967   3.357   0.084   0.006
    1MUSC O01es 9968   3.486   0.368   0.681
    1MUSC O01et 9969   3.317   0.084   3.691
    1MUSC O01eu 9970   3.006   0.368   1.010
    1MUSC O01ev 9971   3.619   0.400   3.461
    1MUSC O01ew 9972   3.225   0.052   1.240
    1MUSC O01ex 9973   3.056   0.400   0.236
    1MUSC O01ey 9974   3.267   0.052   0.451
    1MUSC K006R 9975   3.154   0.543   1.849
    1MUSC K006S 9976   2.803   0.815   2.852
    1MUSC K006T 9977   2.894   0.090   1.849
    1MUSC K006U 9978   3.063   0.362   2.852
    1MUSC Al0HB 9979   2.982   0.526   2.350
    1MUSC Al0HC 9980   2.975   0.831   2.351
    1MUSC Al0HD 9981   3.327   0.526   1.348
    1MUSC Al0HE 9982   3.151   0.831   3.353
    1MUSC Al0HF 9983   3.242   0.074   2.350
    1MUSC Al0HG 9984   3.236   0.379   2.351
    1MUSC Al0HH 9985   3.067   0.074   1.348
    1MUSC Al0HI 9986   2.890   0.379   3.353
    1MUSC Si0YL 9987   3.157   0.841   1.614
    1MUSC Si0YM 9988   2.800   0.517   3.087
    1MUSC Si0YN 9989   3.151   0.841   2.084
    1MUSC Si0YO 9990   3.326   0.517   2.617
    1MUSC Si0YP 9991   2.898   0.686   2.084
    1MUSC Si0YQ 9992   3.059   0.672   2.617
    1MUSC Si0YR 9993   3.411   0.686   1.613
    1MUSC Si0YS 9994   3.067   0.672   3.088
    1MUSC Si0YT 9995   3.418   0.389   1.614
    1MUSC Si0YU 9996   3.060   0.064   3.087
    1MUSC Si0YV 9997   2.891   0.389   2.084
    1MUSC Si0YW 9998   3.066   0.064   2.617
    1MUSC Si0YX 9999   3.158   0.233   2.084
    1MUSC Si0YY10000   3.319   0.219   2.617
    1MUSC Si0YZ10001   3.151   0.233   1.613
    1MUSC Si0Ya10002   2.807   0.219   3.088
    1MUSC O01ez10003   2.920   0.675   2.243
    1MUSC O01f010004   3.037   0.683   2.458
    1MUSC O01f110005   3.389   0.675   1.454
    1MUSC O01f210006   3.089   0.683   3.247
    1MUSC O01f310007   3.176   0.495   1.446
    1MUSC O01f410008   2.781   0.863   3.255
    1MUSC O01f510009   3.133   0.495   2.252
    1MUSC O01f610010   3.344   0.863   2.449
    1MUSC O01f710011   3.036   0.744   1.665
    1MUSC O01f810012   2.922   0.614   3.036
    1MUSC O01f910013   3.273   0.744   2.032
    1MUSC O01fA10014   3.204   0.614   2.669
    1MUSC O01fB10015   3.014   0.781   2.013
    1MUSC O01fC10016   2.943   0.577   2.688
    1MUSC O01fD10017   3.295   0.781   1.685
    1MUSC O01fE10018   3.183   0.577   3.016
    1MUSC O01fF10019   2.914   0.537   2.013
    1MUSC O01fG10020   3.043   0.821   2.688
    1MUSC O01fH10021   3.395   0.537   1.684
    1MUSC O01fI10022   3.083   0.821   3.017
    1MUSC O01fJ10023   3.176   0.853   1.454
    1MUSC O01fK10024   2.781   0.505   3.247
    1MUSC O01fL10025   3.133   0.853   2.243
    1MUSC O01fM10026   3.344   0.505   2.458
    1MUSC O01fN10027   3.180   0.222   2.243
    1MUSC O01fO10028   3.297   0.230   2.458
    1MUSC O01fP10029   3.128   0.222   1.454
    1MUSC O01fQ10030   2.829   0.230   3.247
    1MUSC O01fR10031   3.436   0.042   1.446
    1MUSC O01fS10032   3.042   0.410   3.255
    1MUSC O01fT10033   2.873   0.042   2.252
    1MUSC O01fU10034   3.084   0.410   2.449
    1MUSC O01fV10035   3.296   0.291   1.665
    1MUSC O01fW10036   3.182   0.162   3.036
    1MUSC O01fX10037   3.013   0.291   2.032
    1MUSC O01fY10038   2.944   0.162   2.669
    1MUSC O01fZ10039   3.274   0.328   2.013
    1MUSC O01fa10040   3.203   0.125   2.688
    1MUSC O01fb10041   3.035   0.328   1.685
    1MUSC O01fc10042   2.923   0.125   3.016
    1MUSC O01fd10043   3.174   0.084   2.013
    1MUSC O01fe10044   3.303   0.368   2.688
    1MUSC O01ff10045   3.134   0.084   1.684
    1MUSC O01fg10046   2.823   0.368   3.017
    1MUSC O01fh10047   3.436   0.400   1.454
    1MUSC O01fi10048   3.042   0.052   3.247
    1MUSC O01fj10049   2.873   0.400   2.243
    1MUSC O01fk10050   3.084   0.052   2.458
    1MUSC K006V10051   2.986   1.720   0.845
    1MUSC K006W10052   3.246   1.268   0.845
    1MUSC Al0HJ10053   3.165   1.432   0.343
    1MUSC Al0HK10054   3.158   1.737   0.344
    1MUSC Al0HL10055   3.510   1.432   3.355
    1MUSC Al0HM10056   3.334   1.737   1.346
    1MUSC Al0HN10057   3.425   0.979   0.343
    1MUSC Al0HO10058   3.419   1.284   0.344
    1MUSC Al0HP10059   3.250   0.979   3.355
    1MUSC Al0HQ10060   3.073   1.284   1.346
    1MUSC Si0Yb10061   3.340   1.747   3.621
    1MUSC Si0Yc10062   2.983   1.422   1.080
    1MUSC Si0Yd10063   3.334   1.747   0.077
    1MUSC Si0Ye10064   3.509   1.422   0.610
    1MUSC Si0Yf10065   3.081   1.591   0.077
    1MUSC Si0Yg10066   3.242   1.577   0.610
    1MUSC Si0Yh10067   3.594   1.591   3.620
    1MUSC Si0Yi10068   3.250   1.577   1.081
    1MUSC Si0Yj10069   3.601   1.294   3.621
    1MUSC Si0Yk10070   3.243   0.969   1.080
    1MUSC Si0Yl10071   3.074   1.294   0.077
    1MUSC Si0Ym10072   3.249   0.969   0.610
    1MUSC Si0Yn10073   3.341   1.139   0.077
    1MUSC Si0Yo10074   3.502   1.124   0.610
    1MUSC Si0Yp10075   3.334   1.139   3.620
    1MUSC Si0Yq10076   2.990   1.124   1.081
    1MUSC O01fl10077   3.103   1.580   0.236
    1MUSC O01fm10078   3.220   1.588   0.451
    1MUSC O01fn10079   3.572   1.580   3.461
    1MUSC O01fo10080   3.272   1.588   1.240
    1MUSC O01fp10081   3.359   1.400   3.453
    1MUSC O01fq10082   2.964   1.768   1.248
    1MUSC O01fr10083   3.316   1.400   0.245
    1MUSC O01fs10084   3.527   1.768   0.442
    1MUSC O01ft10085   3.219   1.649   3.672
    1MUSC O01fu10086   3.105   1.520   1.029
    1MUSC O01fv10087   3.456   1.649   0.025
    1MUSC O01fw10088   3.387   1.520   0.662
    1MUSC O01fx10089   3.197   1.686   0.006
    1MUSC O01fy10090   3.126   1.483   0.681
    1MUSC O01fz10091   3.478   1.686   3.692
    1MUSC O01g010092   3.366   1.483   1.009
    1MUSC O01g110093   3.097   1.442   0.006
    1MUSC O01g210094   3.226   1.726   0.681
    1MUSC O01g310095   3.578   1.442   3.691
    1MUSC O01g410096   3.266   1.726   1.010
    1MUSC O01g510097   3.359   1.758   3.461
    1MUSC O01g610098   2.964   1.410   1.240
    1MUSC O01g710099   3.316   1.758   0.236
    1MUSC O01g810100   3.527   1.410   0.451
    1MUSC O01g910101   3.363   1.127   0.236
    1MUSC O01gA10102   3.480   1.136   0.451
    1MUSC O01gB10103   3.311   1.127   3.461
    1MUSC O01gC10104   3.012   1.136   1.240
    1MUSC O01gD10105   3.619   0.948   3.453
    1MUSC O01gE10106   3.225   1.316   1.248
    1MUSC O01gF10107   3.056   0.948   0.245
    1MUSC O01gG10108   3.267   1.316   0.442
    1MUSC O01gH10109   3.479   1.196   3.672
    1MUSC O01gI10110   3.365   1.067   1.029
    1MUSC O01gJ10111   3.196   1.196   0.025
    1MUSC O01gK10112   3.127   1.067   0.662
    1MUSC O01gL10113   3.457   1.233   0.006
    1MUSC O01gM10114   3.386   1.030   0.681
    1MUSC O01gN10115   3.218   1.233   3.692
    1MUSC O01gO10116   3.106   1.030   1.009
    1MUSC O01gP10117   3.357   0.990   0.006
    1MUSC O01gQ10118   3.486   1.274   0.681
    1MUSC O01gR10119   3.317   0.990   3.691
    1MUSC O01gS10120   3.006   1.274   1.010
    1MUSC O01gT10121   3.619   1.306   3.461
    1MUSC O01gU10122   3.225   0.958   1.240
    1MUSC O01gV10123   3.056   1.306   0.236
    1MUSC O01gW10124   3.267   0.958   0.451
    1MUSC K006X10125   3.154   1.448   1.849
    1MUSC K006Y10126   2.803   1.720   2.852
    1MUSC K006Z10127   2.894   0.996   1.849
    1MUSC K006a10128   3.063   1.268   2.852
    1MUSC Al0HR10129   2.982   1.432   2.350
    1MUSC Al0HS10130   2.975   1.737   2.351
    1MUSC Al0HT10131   3.327   1.432   1.348
    1MUSC Al0HU10132   3.151   1.737   3.353
    1MUSC Al0HV10133   3.242   0.979   2.350
    1MUSC Al0HW10134   3.236   1.284   2.351
    1MUSC Al0HX10135   3.067   0.979   1.348
    1MUSC Al0HY10136   2.890   1.284   3.353
    1MUSC Si0Yr10137   3.157   1.747   1.614
    1MUSC Si0Ys10138   2.800   1.422   3.087
    1MUSC Si0Yt10139   3.151   1.747   2.084
    1MUSC Si0Yu10140   3.326   1.422   2.617
    1MUSC Si0Yv10141   2.898   1.591   2.084
    1MUSC Si0Yw10142   3.059   1.577   2.617
    1MUSC Si0Yx10143   3.411   1.591   1.613
    1MUSC Si0Yy10144   3.067   1.577   3.088
    1MUSC Si0Yz10145   3.418   1.294   1.614
    1MUSC Si0Z010146   3.060   0.969   3.087
    1MUSC Si0Z110147   2.891   1.294   2.084
    1MUSC Si0Z210148   3.066   0.969   2.617
    1MUSC Si0Z310149   3.158   1.139   2.084
    1MUSC Si0Z410150   3.319   1.124   2.617
    1MUSC Si0Z510151   3.151   1.139   1.613
    1MUSC Si0Z610152   2.807   1.124   3.088
    1MUSC O01gX10153   2.920   1.580   2.243
    1MUSC O01gY10154   3.037   1.588   2.458
    1MUSC O01gZ10155   3.389   1.580   1.454
    1MUSC O01ga10156   3.089   1.588   3.247
    1MUSC O01gb10157   3.176   1.400   1.446
    1MUSC O01gc10158   2.781   1.768   3.255
    1MUSC O01gd10159   3.133   1.400   2.252
    1MUSC O01ge10160   3.344   1.768   2.449
    1MUSC O01gf10161   3.036   1.649   1.665
    1MUSC O01gg10162   2.922   1.520   3.036
    1MUSC O01gh10163   3.273   1.649   2.032
    1MUSC O01gi10164   3.204   1.520   2.669
    1MUSC O01gj10165   3.014   1.686   2.013
    1MUSC O01gk10166   2.943   1.483   2.688
    1MUSC O01gl10167   3.295   1.686   1.685
    1MUSC O01gm10168   3.183   1.483   3.016
    1MUSC O01gn10169   2.914   1.442   2.013
    1MUSC O01go10170   3.043   1.726   2.688
    1MUSC O01gp10171   3.395   1.442   1.684
    1MUSC O01gq10172   3.083   1.726   3.017
    1MUSC O01gr10173   3.176   1.758   1.454
    1MUSC O01gs10174   2.781   1.410   3.247
    1MUSC O01gt10175   3.133   1.758   2.243
    1MUSC O01gu10176   3.344   1.410   2.458
    1MUSC O01gv10177   3.180   1.127   2.243
    1MUSC O01gw10178   3.297   1.136   2.458
    1MUSC O01gx10179   3.128   1.127   1.454
    1MUSC O01gy10180   2.829   1.136   3.247
    1MUSC O01gz10181   3.436   0.948   1.446
    1MUSC O01h010182   3.042   1.316   3.255
    1MUSC O01h110183   2.873   0.948   2.252
    1MUSC O01h210184   3.084   1.316   2.449
    1MUSC O01h310185   3.296   1.196   1.665
    1MUSC O01h410186   3.182   1.067   3.036
    1MUSC O01h510187   3.013   1.196   2.032
    1MUSC O01h610188   2.944   1.067   2.669
    1MUSC O01h710189   3.274   1.233   2.013
    1MUSC O01h810190   3.203   1.030   2.688
    1MUSC O01h910191   3.035   1.233   1.685
    1MUSC O01hA10192   2.923   1.030   3.016
    1MUSC O01hB10193   3.174   0.990   2.013
    1MUSC O01hC10194   3.303   1.274   2.688
    1MUSC O01hD10195   3.134   0.990   1.684
    1MUSC O01hE10196   2.823   1.274   3.017
    1MUSC O01hF10197   3.436   1.306   1.454
    1MUSC O01hG10198   3.042   0.958   3.247
    1MUSC O01hH10199   2.873   1.306   2.243
    1MUSC O01hI10200   3.084   0.958   2.458
    1MUSC K006b10201   2.986   2.626   0.845
    1MUSC K006c10202   3.246   2.173   0.845
    1MUSC Al0HZ10203   3.165   2.337   0.343
    1MUSC Al0Ha10204   3.158   2.642   0.344
    1MUSC Al0Hb10205   3.510   2.337   3.355
    1MUSC Al0Hc10206   3.334   2.642   1.346
    1MUSC Al0Hd10207   3.425   1.884   0.343
    1MUSC Al0He10208   3.419   2.189   0.344
    1MUSC Al0Hf10209   3.250   1.884   3.355
    1MUSC Al0Hg10210   3.073   2.189   1.346
    1MUSC Si0Z710211   3.340   2.652   3.621
    1MUSC Si0Z810212   2.983   2.327   1.080
    1MUSC Si0Z910213   3.334   2.652   0.077
    1MUSC Si0ZA10214   3.509   2.327   0.610
    1MUSC Si0ZB10215   3.081   2.497   0.077
    1MUSC Si0ZC10216   3.242   2.482   0.610
    1MUSC Si0ZD10217   3.594   2.497   3.620
    1MUSC Si0ZE10218   3.250   2.482   1.081
    1MUSC Si0ZF10219   3.601   2.199   3.621
    1MUSC Si0ZG10220   3.243   1.874   1.080
    1MUSC Si0ZH10221   3.074   2.199   0.077
    1MUSC Si0ZI10222   3.249   1.874   0.610
    1MUSC Si0ZJ10223   3.341   2.044   0.077
    1MUSC Si0ZK10224   3.502   2.030   0.610
    1MUSC Si0ZL10225   3.334   2.044   3.620
    1MUSC Si0ZM10226   2.990   2.030   1.081
    1MUSC O01hJ10227   3.103   2.485   0.236
    1MUSC O01hK10228   3.220   2.494   0.451
    1MUSC O01hL10229   3.572   2.485   3.461
    1MUSC O01hM10230   3.272   2.494   1.240
    1MUSC O01hN10231   3.359   2.305   3.453
    1MUSC O01hO10232   2.964   2.674   1.248
    1MUSC O01hP10233   3.316   2.305   0.245
    1MUSC O01hQ10234   3.527   2.674   0.442
    1MUSC O01hR10235   3.219   2.554   3.672
    1MUSC O01hS10236   3.105   2.425   1.029
    1MUSC O01hT10237   3.456   2.554   0.025
    1MUSC O01hU10238   3.387   2.425   0.662
    1MUSC O01hV10239   3.197   2.591   0.006
    1MUSC O01hW10240   3.126   2.388   0.681
    1MUSC O01hX10241   3.478   2.591   3.692
    1MUSC O01hY10242   3.366   2.388   1.009
    1MUSC O01hZ10243   3.097   2.347   0.006
    1MUSC O01ha10244   3.226   2.632   0.681
    1MUSC O01hb10245   3.578   2.347   3.691
    1MUSC O01hc10246   3.266   2.632   1.010
    1MUSC O01hd10247   3.359   2.663   3.461
    1MUSC O01he10248   2.964   2.316   1.240
    1MUSC O01hf10249   3.316   2.663   0.236
    1MUSC O01hg10250   3.527   2.316   0.451
    1MUSC O01hh10251   3.363   2.033   0.236
    1MUSC O01hi10252   3.480   2.041   0.451
    1MUSC O01hj10253   3.311   2.033   3.461
    1MUSC O01hk10254   3.012   2.041   1.240
    1MUSC O01hl10255   3.619   1.853   3.453
    1MUSC O01hm10256   3.225   2.221   1.248
    1MUSC O01hn10257   3.056   1.853   0.245
    1MUSC O01ho10258   3.267   2.221   0.442
    1MUSC O01hp10259   3.479   2.101   3.672
    1MUSC O01hq10260   3.365   1.972   1.029
    1MUSC O01hr10261   3.196   2.101   0.025
    1MUSC O01hs10262   3.127   1.972   0.662
    1MUSC O01ht10263   3.457   2.139   0.006
    1MUSC O01hu10264   3.386   1.935   0.681
    1MUSC O01hv10265   3.218   2.139   3.692
    1MUSC O01hw10266   3.106   1.935   1.009
    1MUSC O01hx10267   3.357   1.895   0.006
    1MUSC O01hy10268   3.486   2.179   0.681
    1MUSC O01hz10269   3.317   1.895   3.691
    1MUSC O01i010270   3.006   2.179   1.010
    1MUSC O01i110271   3.619   2.211   3.461
    1MUSC O01i210272   3.225   1.863   1.240
    1MUSC O01i310273   3.056   2.211   0.236
    1MUSC O01i410274   3.267   1.863   0.451
    1MUSC K006d10275   3.154   2.353   1.849
    1MUSC K006e10276   2.803   2.626   2.852
    1MUSC K006f10277   2.894   1.901   1.849
    1MUSC K006g10278   3.063   2.173   2.852
    1MUSC Al0Hh10279   2.982   2.337   2.350
    1MUSC Al0Hi10280   2.975   2.642   2.351
    1MUSC Al0Hj10281   3.327   2.337   1.348
    1MUSC Al0Hk10282   3.151   2.642   3.353
    1MUSC Al0Hl10283   3.242   1.884   2.350
    1MUSC Al0Hm10284   3.236   2.189   2.351
    1MUSC Al0Hn10285   3.067   1.884   1.348
    1MUSC Al0Ho10286   2.890   2.189   3.353
    1MUSC Si0ZN10287   3.157   2.652   1.614
    1MUSC Si0ZO10288   2.800   2.327   3.087
    1MUSC Si0ZP10289   3.151   2.652   2.084
    1MUSC Si0ZQ10290   3.326   2.327   2.617
    1MUSC Si0ZR10291   2.898   2.497   2.084
    1MUSC Si0ZS10292   3.059   2.482   2.617
    1MUSC Si0ZT10293   3.411   2.497   1.613
    1MUSC Si0ZU10294   3.067   2.482   3.088
    1MUSC Si0ZV10295   3.418   2.199   1.614
    1MUSC Si0ZW10296   3.060   1.874   3.087
    1MUSC Si0ZX10297   2.891   2.199   2.084
    1MUSC Si0ZY10298   3.066   1.874   2.617
    1MUSC Si0ZZ10299   3.158   2.044   2.084
    1MUSC Si0Za10300   3.319   2.030   2.617
    1MUSC Si0Zb10301   3.151   2.044   1.613
    1MUSC Si0Zc10302   2.807   2.030   3.088
    1MUSC O01i510303   2.920   2.485   2.243
    1MUSC O01i610304   3.037   2.494   2.458
    1MUSC O01i710305   3.389   2.485   1.454
    1MUSC O01i810306   3.089   2.494   3.247
    1MUSC O01i910307   3.176   2.305   1.446
    1MUSC O01iA10308   2.781   2.674   3.255
    1MUSC O01iB10309   3.133   2.305   2.252
    1MUSC O01iC10310   3.344   2.674   2.449
    1MUSC O01iD10311   3.036   2.554   1.665
    1MUSC O01iE10312   2.922   2.425   3.036
    1MUSC O01iF10313   3.273   2.554   2.032
    1MUSC O01iG10314   3.204   2.425   2.669
    1MUSC O01iH10315   3.014   2.591   2.013
    1MUSC O01iI10316   2.943   2.388   2.688
    1MUSC O01iJ10317   3.295   2.591   1.685
    1MUSC O01iK10318   3.183   2.388   3.016
    1MUSC O01iL10319   2.914   2.347   2.013
    1MUSC O01iM10320   3.043   2.632   2.688
    1MUSC O01iN10321   3.395   2.347   1.684
    1MUSC O01iO10322   3.083   2.632   3.017
    1MUSC O01iP10323   3.176   2.663   1.454
    1MUSC O01iQ10324   2.781   2.316   3.247
    1MUSC O01iR10325   3.133   2.663   2.243
    1MUSC O01iS10326   3.344   2.316   2.458
    1MUSC O01iT10327   3.180   2.033   2.243
    1MUSC O01iU10328   3.297   2.041   2.458
    1MUSC O01iV10329   3.128   2.033   1.454
    1MUSC O01iW10330   2.829   2.041   3.247
    1MUSC O01iX10331   3.436   1.853   1.446
    1MUSC O01iY10332   3.042   2.221   3.255
    1MUSC O01iZ10333   2.873   1.853   2.252
    1MUSC O01ia10334   3.084   2.221   2.449
    1MUSC O01ib10335   3.296   2.101   1.665
    1MUSC O01ic10336   3.182   1.972   3.036
    1MUSC O01id10337   3.013   2.101   2.032
    1MUSC O01ie10338   2.944   1.972   2.669
    1MUSC O01if10339   3.274   2.139   2.013
    1MUSC O01ig10340   3.203   1.935   2.688
    1MUSC O01ih10341   3.035   2.139   1.685
    1MUSC O01ii10342   2.923   1.935   3.016
    1MUSC O01ij10343   3.174   1.895   2.013
    1MUSC O01ik10344   3.303   2.179   2.688
    1MUSC O01il10345   3.134   1.895   1.684
    1MUSC O01im10346   2.823   2.179   3.017
    1MUSC O01in10347   3.436   2.211   1.454
    1MUSC O01io10348   3.042   1.863   3.247
    1MUSC O01ip10349   2.873   2.211   2.243
    1MUSC O01iq10350   3.084   1.863   2.458
    1MUSC K006h10351   2.986   3.531   0.845
    1MUSC K006i10352   3.246   3.078   0.845
    1MUSC Al0Hp10353   3.165   3.242   0.343
    1MUSC Al0Hq10354   3.158   3.547   0.344
    1MUSC Al0Hr10355   3.510   3.242   3.355
    1MUSC Al0Hs10356   3.334   3.547   1.346
    1MUSC Al0Ht10357   3.425   2.790   0.343
    1MUSC Al0Hu10358   3.419   3.095   0.344
    1MUSC Al0Hv10359   3.250   2.790   3.355
    1MUSC Al0Hw10360   3.073   3.095   1.346
    1MUSC Si0Zd10361   3.340   3.557   3.621
    1MUSC Si0Ze10362   2.983   3.232   1.080
    1MUSC Si0Zf10363   3.334   3.557   0.077
    1MUSC Si0Zg10364   3.509   3.232   0.610
    1MUSC Si0Zh10365   3.081   3.402   0.077
    1MUSC Si0Zi10366   3.242   3.388   0.610
    1MUSC Si0Zj10367   3.594   3.402   3.620
    1MUSC Si0Zk10368   3.250   3.388   1.081
    1MUSC Si0Zl10369   3.601   3.105   3.621
    1MUSC Si0Zm10370   3.243   2.780   1.080
    1MUSC Si0Zn10371   3.074   3.105   0.077
    1MUSC Si0Zo10372   3.249   2.780   0.610
    1MUSC Si0Zp10373   3.341   2.949   0.077
    1MUSC Si0Zq10374   3.502   2.935   0.610
    1MUSC Si0Zr10375   3.334   2.949   3.620
    1MUSC Si0Zs10376   2.990   2.935   1.081
    1MUSC O01ir10377   3.103   3.391   0.236
    1MUSC O01is10378   3.220   3.399   0.451
    1MUSC O01it10379   3.572   3.391   3.461
    1MUSC O01iu10380   3.272   3.399   1.240
    1MUSC O01iv10381   3.359   3.211   3.453
    1MUSC O01iw10382   2.964   3.579   1.248
    1MUSC O01ix10383   3.316   3.211   0.245
    1MUSC O01iy10384   3.527   3.579   0.442
    1MUSC O01iz10385   3.219   3.459   3.672
    1MUSC O01j010386   3.105   3.330   1.029
    1MUSC O01j110387   3.456   3.459   0.025
    1MUSC O01j210388   3.387   3.330   0.662
    1MUSC O01j310389   3.197   3.496   0.006
    1MUSC O01j410390   3.126   3.293   0.681
    1MUSC O01j510391   3.478   3.496   3.692
    1MUSC O01j610392   3.366   3.293   1.009
    1MUSC O01j710393   3.097   3.253   0.006
    1MUSC O01j810394   3.226   3.537   0.681
    1MUSC O01j910395   3.578   3.253   3.691
    1MUSC O01jA10396   3.266   3.537   1.010
    1MUSC O01jB10397   3.359   3.569   3.461
    1MUSC O01jC10398   2.964   3.221   1.240
    1MUSC O01jD10399   3.316   3.569   0.236
    1MUSC O01jE10400   3.527   3.221   0.451
    1MUSC O01jF10401   3.363   2.938   0.236
    1MUSC O01jG10402   3.480   2.946   0.451
    1MUSC O01jH10403   3.311   2.938   3.461
    1MUSC O01jI10404   3.012   2.946   1.240
    1MUSC O01jJ10405   3.619   2.758   3.453
    1MUSC O01jK10406   3.225   3.126   1.248
    1MUSC O01jL10407   3.056   2.758   0.245
    1MUSC O01jM10408   3.267   3.126   0.442
    1MUSC O01jN10409   3.479   3.007   3.672
    1MUSC O01jO10410   3.365   2.877   1.029
    1MUSC O01jP10411   3.196   3.007   0.025
    1MUSC O01jQ10412   3.127   2.877   0.662
    1MUSC O01jR10413   3.457   3.044   0.006
    1MUSC O01jS10414   3.386   2.840   0.681
    1MUSC O01jT10415   3.218   3.044   3.692
    1MUSC O01jU10416   3.106   2.840   1.009
    1MUSC O01jV10417   3.357   2.800   0.006
    1MUSC O01jW10418   3.486   3.084   0.681
    1MUSC O01jX10419   3.317   2.800   3.691
    1MUSC O01jY10420   3.006   3.084   1.010
    1MUSC O01jZ10421   3.619   3.116   3.461
    1MUSC O01ja10422   3.225   2.768   1.240
    1MUSC O01jb10423   3.056   3.116   0.236
    1MUSC O01jc10424   3.267   2.768   0.451
    1MUSC K006j10425   3.154   3.259   1.849
    1MUSC K006k10426   2.803   3.531   2.852
    1MUSC K006l10427   2.894   2.806   1.849
    1MUSC K006m10428   3.063   3.078   2.852
    1MUSC Al0Hx10429   2.982   3.242   2.350
    1MUSC Al0Hy10430   2.975   3.547   2.351
    1MUSC Al0Hz10431   3.327   3.242   1.348
    1MUSC Al0I010432   3.151   3.547   3.353
    1MUSC Al0I110433   3.242   2.790   2.350
    1MUSC Al0I210434   3.236   3.095   2.351
    1MUSC Al0I310435   3.067   2.790   1.348
    1MUSC Al0I410436   2.890   3.095   3.353
    1MUSC Si0Zt10437   3.157   3.557   1.614
    1MUSC Si0Zu10438   2.800   3.232   3.087
    1MUSC Si0Zv10439   3.151   3.557   2.084
    1MUSC Si0Zw10440   3.326   3.232   2.617
    1MUSC Si0Zx10441   2.898   3.402   2.084
    1MUSC Si0Zy10442   3.059   3.388   2.617
    1MUSC Si0Zz10443   3.411   3.402   1.613
    1MUSC Si0a010444   3.067   3.388   3.088
    1MUSC Si0a110445   3.418   3.105   1.614
    1MUSC Si0a210446   3.060   2.780   3.087
    1MUSC Si0a310447   2.891   3.105   2.084
    1MUSC Si0a410448   3.066   2.780   2.617
    1MUSC Si0a510449   3.158   2.949   2.084
    1MUSC Si0a610450   3.319   2.935   2.617
    1MUSC Si0a710451   3.151   2.949   1.613
    1MUSC Si0a810452   2.807   2.935   3.088
    1MUSC O01jd10453   2.920   3.391   2.243
    1MUSC O01je10454   3.037   3.399   2.458
    1MUSC O01jf10455   3.389   3.391   1.454
    1MUSC O01jg10456   3.089   3.399   3.247
    1MUSC O01jh10457   3.176   3.211   1.446
    1MUSC O01ji10458   2.781   3.579   3.255
    1MUSC O01jj10459   3.133   3.211   2.252
    1MUSC O01jk10460   3.344   3.579   2.449
    1MUSC O01jl10461   3.036   3.459   1.665
    1MUSC O01jm10462   2.922   3.330   3.036
    1MUSC O01jn10463   3.273   3.459   2.032
    1MUSC O01jo10464   3.204   3.330   2.669
    1MUSC O01jp10465   3.014   3.496   2.013
    1MUSC O01jq10466   2.943   3.293   2.688
    1MUSC O01jr10467   3.295   3.496   1.685
    1MUSC O01js10468   3.183   3.293   3.016
    1MUSC O01jt10469   2.914   3.253   2.013
    1MUSC O01ju10470   3.043   3.537   2.688
    1MUSC O01jv10471   3.395   3.253   1.684
    1MUSC O01jw10472   3.083   3.537   3.017
    1MUSC O01jx10473   3.176   3.569   1.454
    1MUSC O01jy10474   2.781   3.221   3.247
    1MUSC O01jz10475   3.133   3.569   2.243
    1MUSC O01k010476   3.344   3.221   2.458
    1MUSC O01k110477   3.180   2.938   2.243
    1MUSC O01k210478   3.297   2.946   2.458
    1MUSC O01k310479   3.128   2.938   1.454
    1MUSC O01k410480   2.829   2.946   3.247
    1MUSC O01k510481   3.436   2.758   1.446
    1MUSC O01k610482   3.042   3.126   3.255
    1MUSC O01k710483   2.873   2.758   2.252
    1MUSC O01k810484   3.084   3.126   2.449
    1MUSC O01k910485   3.296   3.007   1.665
    1MUSC O01kA10486   3.182   2.877   3.036
    1MUSC O01kB10487   3.013   3.007   2.032
    1MUSC O01kC10488   2.944   2.877   2.669
    1MUSC O01kD10489   3.274   3.044   2.013
    1MUSC O01kE10490   3.203   2.840   2.688
    1MUSC O01kF10491   3.035   3.044   1.685
    1MUSC O01kG10492   2.923   2.840   3.016
    1MUSC O01kH10493   3.174   2.800   2.013
    1MUSC O01kI10494   3.303   3.084   2.688
    1MUSC O01kJ10495   3.134   2.800   1.684
    1MUSC O01kK10496   2.823   3.084   3.017
    1MUSC O01kL10497   3.436   3.116   1.454
    1MUSC O01kM10498   3.042   2.768   3.247
    1MUSC O01kN10499   2.873   3.116   2.243
    1MUSC O01kO10500   3.084   2.768   2.458
    1MUSC K006n10501   2.986   4.436   0.845
    1MUSC K006o10502   3.246   3.983   0.845
    1MUSC Al0I510503   3.165   4.147   0.343
    1MUSC Al0I610504   3.158   4.453   0.344
    1MUSC Al0I710505   3.510   4.147   3.355
    1MUSC Al0I810506   3.334   4.453   1.346
    1MUSC Al0I910507   3.425   3.695   0.343
    1MUSC Al0IA10508   3.419   4.000   0.344
    1MUSC Al0IB10509   3.250   3.695   3.355
    1MUSC Al0IC10510   3.073   4.000   1.346
    1MUSC Si0a910511   3.340   4.462   3.621
    1MUSC Si0aA10512   2.983   4.138   1.080
    1MUSC Si0aB10513   3.334   4.462   0.077
    1MUSC Si0aC10514   3.509   4.138   0.610
    1MUSC Si0aD10515   3.081   4.307   0.077
    1MUSC Si0aE10516   3.242   4.293   0.610
    1MUSC Si0aF10517   3.594   4.307   3.620
    1MUSC Si0aG10518   3.250   4.293   1.081
    1MUSC Si0aH10519   3.601   4.010   3.621
    1MUSC Si0aI10520   3.243   3.685   1.080
    1MUSC Si0aJ10521   3.074   4.010   0.077
    1MUSC Si0aK10522   3.249   3.685   0.610
    1MUSC Si0aL10523   3.341   3.855   0.077
    1MUSC Si0aM10524   3.502   3.840   0.610
    1MUSC Si0aN10525   3.334   3.855   3.620
    1MUSC Si0aO10526   2.990   3.840   1.081
    1MUSC O01kP10527   3.103   4.296   0.236
    1MUSC O01kQ10528   3.220   4.304   0.451
    1MUSC O01kR10529   3.572   4.296   3.461
    1MUSC O01kS10530   3.272   4.304   1.240
    1MUSC O01kT10531   3.359   4.116   3.453
    1MUSC O01kU10532   2.964   4.484   1.248
    1MUSC O01kV10533   3.316   4.116   0.245
    1MUSC O01kW10534   3.527   4.484   0.442
    1MUSC O01kX10535   3.219   4.365   3.672
    1MUSC O01kY10536   3.105   4.235   1.029
    1MUSC O01kZ10537   3.456   4.365   0.025
    1MUSC O01ka10538   3.387   4.235   0.662
    1MUSC O01kb10539   3.197   4.402   0.006
    1MUSC O01kc10540   3.126   4.198   0.681
    1MUSC O01kd10541   3.478   4.402   3.692
    1MUSC O01ke10542   3.366   4.198   1.009
    1MUSC O01kf10543   3.097   4.158   0.006
    1MUSC O01kg10544   3.226   4.442   0.681
    1MUSC O01kh10545   3.578   4.158   3.691
    1MUSC O01ki10546   3.266   4.442   1.010
    1MUSC O01kj10547   3.359   4.474   3.461
    1MUSC O01kk10548   2.964   4.126   1.240
    1MUSC O01kl10549   3.316   4.474   0.236
    1MUSC O01km10550   3.527   4.126   0.451
    1MUSC O01kn10551   3.363   3.843   0.236
    1MUSC O01ko10552   3.480   3.852   0.451
    1MUSC O01kp10553   3.311   3.843   3.461
    1MUSC O01kq10554   3.012   3.852   1.240
    1MUSC O01kr10555   3.619   3.663   3.453
    1MUSC O01ks10556   3.225   4.031   1.248
    1MUSC O01kt10557   3.056   3.663   0.245
    1MUSC O01ku10558   3.267   4.031   0.442
    1MUSC O01kv10559   3.479   3.912   3.672
    1MUSC O01kw10560   3.365   3.783   1.029
    1MUSC O01kx10561   3.196   3.912   0.025
    1MUSC O01ky10562   3.127   3.783   0.662
    1MUSC O01kz10563   3.457   3.949   0.006
    1MUSC O01l010564   3.386   3.746   0.681
    1MUSC O01l110565   3.218   3.949   3.692
    1MUSC O01l210566   3.106   3.746   1.009
    1MUSC O01l310567   3.357   3.705   0.006
    1MUSC O01l410568   3.486   3.989   0.681
    1MUSC O01l510569   3.317   3.705   3.691
    1MUSC O01l610570   3.006   3.989   1.010
    1MUSC O01l710571   3.619   4.021   3.461
    1MUSC O01l810572   3.225   3.673   1.240
    1MUSC O01l910573   3.056   4.021   0.236
    1MUSC O01lA10574   3.267   3.673   0.451
    1MUSC K006p10575   3.154   4.164   1.849
    1MUSC K006q10576   2.803   4.436   2.852
    1MUSC K006r10577   2.894   3.711   1.849
    1MUSC K006s10578   3.063   3.983   2.852
    1MUSC Al0ID10579   2.982   4.147   2.350
    1MUSC Al0IE10580   2.975   4.453   2.351
    1MUSC Al0IF10581   3.327   4.147   1.348
    1MUSC Al0IG10582   3.151   4.453   3.353
    1MUSC Al0IH10583   3.242   3.695   2.350
    1MUSC Al0II10584   3.236   4.000   2.351
    1MUSC Al0IJ10585   3.067   3.695   1.348
    1MUSC Al0IK10586   2.890   4.000   3.353
    1MUSC Si0aP10587   3.157   4.462   1.614
    1MUSC Si0aQ10588   2.800   4.138   3.087
    1MUSC Si0aR10589   3.151   4.462   2.084
    1MUSC Si0aS10590   3.326   4.138   2.617
    1MUSC Si0aT10591   2.898   4.307   2.084
    1MUSC Si0aU10592   3.059   4.293   2.617
    1MUSC Si0aV10593   3.411   4.307   1.613
    1MUSC Si0aW10594   3.067   4.293   3.088
    1MUSC Si0aX10595   3.418   4.010   1.614
    1MUSC Si0aY10596   3.060   3.685   3.087
    1MUSC Si0aZ10597   2.891   4.010   2.084
    1MUSC Si0aa10598   3.066   3.685   2.617
    1MUSC Si0ab10599   3.158   3.855   2.084
    1MUSC Si0ac10600   3.319   3.840   2.617
    1MUSC Si0ad10601   3.151   3.855   1.613
    1MUSC Si0ae10602   2.807   3.840   3.088
    1MUSC O01lB10603   2.920   4.296   2.243
    1MUSC O01lC10604   3.037   4.304   2.458
    1MUSC O01lD10605   3.389   4.296   1.454
    1MUSC O01lE10606   3.089   4.304   3.247
    1MUSC O01lF10607   3.176   4.116   1.446
    1MUSC O01lG10608   2.781   4.484   3.255
    1MUSC O01lH10609   3.133   4.116   2.252
    1MUSC O01lI10610   3.344   4.484   2.449
    1MUSC O01lJ10611   3.036   4.365   1.665
    1MUSC O01lK10612   2.922   4.235   3.036
    1MUSC O01lL10613   3.273   4.365   2.032
    1MUSC O01lM10614   3.204   4.235   2.669
    1MUSC O01lN10615   3.014   4.402   2.013
    1MUSC O01lO10616   2.943   4.198   2.688
    1MUSC O01lP10617   3.295   4.402   1.685
    1MUSC O01lQ10618   3.183   4.198   3.016
    1MUSC O01lR10619   2.914   4.158   2.013
    1MUSC O01lS10620   3.043   4.442   2.688
    1MUSC O01lT10621   3.395   4.158   1.684
    1MUSC O01lU10622   3.083   4.442   3.017
    1MUSC O01lV10623   3.176   4.474   1.454
    1MUSC O01lW10624   2.781   4.126   3.247
    1MUSC O01lX10625   3.133   4.474   2.243
    1MUSC O01lY10626   3.344   4.126   2.458
    1MUSC O01lZ10627   3.180   3.843   2.243
    1MUSC O01la10628   3.297   3.852   2.458
    1MUSC O01lb10629   3.128   3.843   1.454
    1MUSC O01lc10630   2.829   3.852   3.247
    1MUSC O01ld10631   3.436   3.663   1.446
    1MUSC O01le10632   3.042   4.031   3.255
    1MUSC O01lf10633   2.873   3.663   2.252
    1MUSC O01lg10634   3.084   4.031   2.449
    1MUSC O01lh10635   3.296   3.912   1.665
    1MUSC O01li10636   3.182   3.783   3.036
    1MUSC O01lj10637   3.013   3.912   2.032
    1MUSC O01lk10638   2.944   3.783   2.669
    1MUSC O01ll10639   3.274   3.949   2.013
    1MUSC O01lm10640   3.203   3.746   2.688
    1MUSC O01ln10641   3.035   3.949   1.685
    1MUSC O01lo10642   2.923   3.746   3.016
    1MUSC O01lp10643   3.174   3.705   2.013
    1MUSC O01lq10644   3.303   3.989   2.688
    1MUSC O01lr10645   3.134   3.705   1.684
    1MUSC O01ls10646   2.823   3.989   3.017
    1MUSC O01lt10647   3.436   4.021   1.454
    1MUSC O01lu10648   3.042   3.673   3.247
    1MUSC O01lv10649   2.873   4.021   2.243
    1MUSC O01lw10650   3.084   3.673   2.458
    1MUSC K006t10651   2.986   5.341   0.845
    1MUSC K006u10652   3.246   4.889   0.845
    1MUSC Al0IL10653   3.165   5.053   0.343
    1MUSC Al0IM10654   3.158   5.358   0.344
    1MUSC Al0IN10655   3.510   5.053   3.355
    1MUSC Al0IO10656   3.334   5.358   1.346
    1MUSC Al0IP10657   3.425   4.600   0.343
    1MUSC Al0IQ10658   3.419   4.905   0.344
    1MUSC Al0IR10659   3.250   4.600   3.355
    1MUSC Al0IS10660   3.073   4.905   1.346
    1MUSC Si0af10661   3.340   5.368   3.621
    1MUSC Si0ag10662   2.983   5.043   1.080
    1MUSC Si0ah10663   3.334   5.368   0.077
    1MUSC Si0ai10664   3.509   5.043   0.610
    1MUSC Si0aj10665   3.081   5.212   0.077
    1MUSC Si0ak10666   3.242   5.198   0.610
    1MUSC Si0al10667   3.594   5.212   3.620
    1MUSC Si0am10668   3.250   5.198   1.081
    1MUSC Si0an10669   3.601   4.915   3.621
    1MUSC Si0ao10670   3.243   4.590   1.080
    1MUSC Si0ap10671   3.074   4.915   0.077
    1MUSC Si0aq10672   3.249   4.590   0.610
    1MUSC Si0ar10673   3.341   4.760   0.077
    1MUSC Si0as10674   3.502   4.746   0.610
    1MUSC Si0at10675   3.334   4.760   3.620
    1MUSC Si0au10676   2.990   4.746   1.081
    1MUSC O01lx10677   3.103   5.201   0.236
    1MUSC O01ly10678   3.220   5.209   0.451
    1MUSC O01lz10679   3.572   5.201   3.461
    1MUSC O01m010680   3.272   5.209   1.240
    1MUSC O01m110681   3.359   5.021   3.453
    1MUSC O01m210682   2.964   5.389   1.248
    1MUSC O01m310683   3.316   5.021   0.245
    1MUSC O01m410684   3.527   5.389   0.442
    1MUSC O01m510685   3.219   5.270   3.672
    1MUSC O01m610686   3.105   5.141   1.029
    1MUSC O01m710687   3.456   5.270   0.025
    1MUSC O01m810688   3.387   5.141   0.662
    1MUSC O01m910689   3.197   5.307   0.006
    1MUSC O01mA10690   3.126   5.104   0.681
    1MUSC O01mB10691   3.478   5.307   3.692
    1MUSC O01mC10692   3.366   5.104   1.009
    1MUSC O01mD10693   3.097   5.063   0.006
    1MUSC O01mE10694   3.226   5.347   0.681
    1MUSC O01mF10695   3.578   5.063   3.691
    1MUSC O01mG10696   3.266   5.347   1.010
    1MUSC O01mH10697   3.359   5.379   3.461
    1MUSC O01mI10698   2.964   5.031   1.240
    1MUSC O01mJ10699   3.316   5.379   0.236
    1MUSC O01mK10700   3.527   5.031   0.451
    1MUSC O01mL10701   3.363   4.749   0.236
    1MUSC O01mM10702   3.480   4.757   0.451
    1MUSC O01mN10703   3.311   4.749   3.461
    1MUSC O01mO10704   3.012   4.757   1.240
    1MUSC O01mP10705   3.619   4.569   3.453
    1MUSC O01mQ10706   3.225   4.937   1.248
    1MUSC O01mR10707   3.056   4.569   0.245
    1MUSC O01mS10708   3.267   4.937   0.442
    1MUSC O01mT10709   3.479   4.817   3.672
    1MUSC O01mU10710   3.365   4.688   1.029
    1MUSC O01mV10711   3.196   4.817   0.025
    1MUSC O01mW10712   3.127   4.688   0.662
    1MUSC O01mX10713   3.457   4.854   0.006
    1MUSC O01mY10714   3.386   4.651   0.681
    1MUSC O01mZ10715   3.218   4.854   3.692
    1MUSC O01ma10716   3.106   4.651   1.009
    1MUSC O01mb10717   3.357   4.611   0.006
    1MUSC O01mc10718   3.486   4.895   0.681
    1MUSC O01md10719   3.317   4.611   3.691
    1MUSC O01me10720   3.006   4.895   1.010
    1MUSC O01mf10721   3.619   4.927   3.461
    1MUSC O01mg10722   3.225   4.579   1.240
    1MUSC O01mh10723   3.056   4.927   0.236
    1MUSC O01mi10724   3.267   4.579   0.451
    1MUSC K006v10725   3.154   5.069   1.849
    1MUSC K006w10726   2.803   5.341   2.852
    1MUSC K006x10727   2.894   4.617   1.849
    1MUSC K006y10728   3.063   4.889   2.852
    1MUSC Al0IT10729   2.982   5.053   2.350
    1MUSC Al0IU10730   2.975   5.358   2.351
    1MUSC Al0IV10731   3.327   5.053   1.348
    1MUSC Al0IW10732   3.151   5.358   3.353
    1MUSC Al0IX10733   3.242   4.600   2.350
    1MUSC Al0IY10734   3.236   4.905   2.351
    1MUSC Al0IZ10735   3.067   4.600   1.348
    1MUSC Al0Ia10736   2.890   4.905   3.353
    1MUSC Si0av10737   3.157   5.368   1.614
    1MUSC Si0aw10738   2.800   5.043   3.087
    1MUSC Si0ax10739   3.151   5.368   2.084
    1MUSC Si0ay10740   3.326   5.043   2.617
    1MUSC Si0az10741   2.898   5.212   2.084
    1MUSC Si0b010742   3.059   5.198   2.617
    1MUSC Si0b110743   3.411   5.212   1.613
    1MUSC Si0b210744   3.067   5.198   3.088
    1MUSC Si0b310745   3.418   4.915   1.614
    1MUSC Si0b410746   3.060   4.590   3.087
    1MUSC Si0b510747   2.891   4.915   2.084
    1MUSC Si0b610748   3.066   4.590   2.617
    1MUSC Si0b710749   3.158   4.760   2.084
    1MUSC Si0b810750   3.319   4.746   2.617
    1MUSC Si0b910751   3.151   4.760   1.613
    1MUSC Si0bA10752   2.807   4.746   3.088
    1MUSC O01mj10753   2.920   5.201   2.243
    1MUSC O01mk10754   3.037   5.209   2.458
    1MUSC O01ml10755   3.389   5.201   1.454
    1MUSC O01mm10756   3.089   5.209   3.247
    1MUSC O01mn10757   3.176   5.021   1.446
    1MUSC O01mo10758   2.781   5.389   3.255
    1MUSC O01mp10759   3.133   5.021   2.252
    1MUSC O01mq10760   3.344   5.389   2.449
    1MUSC O01mr10761   3.036   5.270   1.665
    1MUSC O01ms10762   2.922   5.141   3.036
    1MUSC O01mt10763   3.273   5.270   2.032
    1MUSC O01mu10764   3.204   5.141   2.669
    1MUSC O01mv10765   3.014   5.307   2.013
    1MUSC O01mw10766   2.943   5.104   2.688
    1MUSC O01mx10767   3.295   5.307   1.685
    1MUSC O01my10768   3.183   5.104   3.016
    1MUSC O01mz10769   2.914   5.063   2.013
    1MUSC O01n010770   3.043   5.347   2.688
    1MUSC O01n110771   3.395   5.063   1.684
    1MUSC O01n210772   3.083   5.347   3.017
    1MUSC O01n310773   3.176   5.379   1.454
    1MUSC O01n410774   2.781   5.031   3.247
    1MUSC O01n510775   3.133   5.379   2.243
    1MUSC O01n610776   3.344   5.031   2.458
    1MUSC O01n710777   3.180   4.749   2.243
    1MUSC O01n810778   3.297   4.757   2.458
    1MUSC O01n910779   3.128   4.749   1.454
    1MUSC O01nA10780   2.829   4.757   3.247
    1MUSC O01nB10781   3.436   4.569   1.446
    1MUSC O01nC10782   3.042   4.937   3.255
    1MUSC O01nD10783   2.873   4.569   2.252
    1MUSC O01nE10784   3.084   4.937   2.449
    1MUSC O01nF10785   3.296   4.817   1.665
    1MUSC O01nG10786   3.182   4.688   3.036
    1MUSC O01nH10787   3.013   4.817   2.032
    1MUSC O01nI10788   2.944   4.688   2.669
    1MUSC O01nJ10789   3.274   4.854   2.013
    1MUSC O01nK10790   3.203   4.651   2.688
    1MUSC O01nL10791   3.035   4.854   1.685
    1MUSC O01nM10792   2.923   4.651   3.016
    1MUSC O01nN10793   3.174   4.611   2.013
    1MUSC O01nO10794   3.303   4.895   2.688
    1MUSC O01nP10795   3.134   4.611   1.684
    1MUSC O01nQ10796   2.823   4.895   3.017
    1MUSC O01nR10797   3.436   4.927   1.454
    1MUSC O01nS10798   3.042   4.579   3.247
    1MUSC O01nT10799   2.873   4.927   2.243
    1MUSC O01nU10800   3.084   4.579   2.458
    1MUSC K006z10801   2.986   6.247   0.845
    1MUSC K007010802   3.246   5.794   0.845
    1MUSC Al0Ib10803   3.165   5.958   0.343
    1MUSC Al0Ic10804   3.158   6.263   0.344
    1MUSC Al0Id10805   3.510   5.958   3.355
    1MUSC Al0Ie10806   3.334   6.263   1.346
    1MUSC Al0If10807   3.425   5.505   0.343
    1MUSC Al0Ig10808   3.419   5.810   0.344
    1MUSC Al0Ih10809   3.250   5.505   3.355
    1MUSC Al0Ii10810   3.073   5.810   1.346
    1MUSC Si0bB10811   3.340   6.273   3.621
    1MUSC Si0bC10812   2.983   5.948   1.080
    1MUSC Si0bD10813   3.334   6.273   0.077
    1MUSC Si0bE10814   3.509   5.948   0.610
    1MUSC Si0bF10815   3.081   6.118   0.077
    1MUSC Si0bG10816   3.242   6.103   0.610
    1MUSC Si0bH10817   3.594   6.118   3.620
    1MUSC Si0bI10818   3.250   6.103   1.081
    1MUSC Si0bJ10819   3.601   5.820   3.621
    1MUSC Si0bK10820   3.243   5.495   1.080
    1MUSC Si0bL10821   3.074   5.820   0.077
    1MUSC Si0bM10822   3.249   5.495   0.610
    1MUSC Si0bN10823   3.341   5.665   0.077
    1MUSC Si0bO10824   3.502   5.651   0.610
    1MUSC Si0bP10825   3.334   5.665   3.620
    1MUSC Si0bQ10826   2.990   5.651   1.081
    1MUSC O01nV10827   3.103   6.106   0.236
    1MUSC O01nW10828   3.220   6.115   0.451
    1MUSC O01nX10829   3.572   6.106   3.461
    1MUSC O01nY10830   3.272   6.115   1.240
    1MUSC O01nZ10831   3.359   5.927   3.453
    1MUSC O01na10832   2.964   6.295   1.248
    1MUSC O01nb10833   3.316   5.927   0.245
    1MUSC O01nc10834   3.527   6.295   0.442
    1MUSC O01nd10835   3.219   6.175   3.672
    1MUSC O01ne10836   3.105   6.046   1.029
    1MUSC O01nf10837   3.456   6.175   0.025
    1MUSC O01ng10838   3.387   6.046   0.662
    1MUSC O01nh10839   3.197   6.212   0.006
    1MUSC O01ni10840   3.126   6.009   0.681
    1MUSC O01nj10841   3.478   6.212   3.692
    1MUSC O01nk10842   3.366   6.009   1.009
    1MUSC O01nl10843   3.097   5.969   0.006
    1MUSC O01nm10844   3.226   6.253   0.681
    1MUSC O01nn10845   3.578   5.969   3.691
    1MUSC O01no10846   3.266   6.253   1.010
    1MUSC O01np10847   3.359   6.285   3.461
    1MUSC O01nq10848   2.964   5.937   1.240
    1MUSC O01nr10849   3.316   6.285   0.236
    1MUSC O01ns10850   3.527   5.937   0.451
    1MUSC O01nt10851   3.363   5.654   0.236
    1MUSC O01nu10852   3.480   5.662   0.451
    1MUSC O01nv10853   3.311   5.654   3.461
    1MUSC O01nw10854   3.012   5.662   1.240
    1MUSC O01nx10855   3.619   5.474   3.453
    1MUSC O01ny10856   3.225   5.842   1.248
    1MUSC O01nz10857   3.056   5.474   0.245
    1MUSC O01o010858   3.267   5.842   0.442
    1MUSC O01o110859   3.479   5.723   3.672
    1MUSC O01o210860   3.365   5.593   1.029
    1MUSC O01o310861   3.196   5.723   0.025
    1MUSC O01o410862   3.127   5.593   0.662
    1MUSC O01o510863   3.457   5.760   0.006
    1MUSC O01o610864   3.386   5.556   0.681
    1MUSC O01o710865   3.218   5.760   3.692
    1MUSC O01o810866   3.106   5.556   1.009
    1MUSC O01o910867   3.357   5.516   0.006
    1MUSC O01oA10868   3.486   5.800   0.681
    1MUSC O01oB10869   3.317   5.516   3.691
    1MUSC O01oC10870   3.006   5.800   1.010
    1MUSC O01oD10871   3.619   5.832   3.461
    1MUSC O01oE10872   3.225   5.484   1.240
    1MUSC O01oF10873   3.056   5.832   0.236
    1MUSC O01oG10874   3.267   5.484   0.451
    1MUSC K007110875   3.154   5.975   1.849
    1MUSC K007210876   2.803   6.247   2.852
    1MUSC K007310877   2.894   5.522   1.849
    1MUSC K007410878   3.063   5.794   2.852
    1MUSC Al0Ij10879   2.982   5.958   2.350
    1MUSC Al0Ik10880   2.975   6.263   2.351
    1MUSC Al0Il10881   3.327   5.958   1.348
    1MUSC Al0Im10882   3.151   6.263   3.353
    1MUSC Al0In10883   3.242   5.505   2.350
    1MUSC Al0Io10884   3.236   5.810   2.351
    1MUSC Al0Ip10885   3.067   5.505   1.348
    1MUSC Al0Iq10886   2.890   5.810   3.353
    1MUSC Si0bR10887   3.157   6.273   1.614
    1MUSC Si0bS10888   2.800   5.948   3.087
    1MUSC Si0bT10889   3.151   6.273   2.084
    1MUSC Si0bU10890   3.326   5.948   2.617
    1MUSC Si0bV10891   2.898   6.118   2.084
    1MUSC Si0bW10892   3.059   6.103   2.617
    1MUSC Si0bX10893   3.411   6.118   1.613
    1MUSC Si0bY10894   3.067   6.103   3.088
    1MUSC Si0bZ10895   3.418   5.820   1.614
    1MUSC Si0ba10896   3.060   5.495   3.087
    1MUSC Si0bb10897   2.891   5.820   2.084
    1MUSC Si0bc10898   3.066   5.495   2.617
    1MUSC Si0bd10899   3.158   5.665   2.084
    1MUSC Si0be10900   3.319   5.651   2.617
    1MUSC Si0bf10901   3.151   5.665   1.613
    1MUSC Si0bg10902   2.807   5.651   3.088
    1MUSC O01oH10903   2.920   6.106   2.243
    1MUSC O01oI10904   3.037   6.115   2.458
    1MUSC O01oJ10905   3.389   6.106   1.454
    1MUSC O01oK10906   3.089   6.115   3.247
    1MUSC O01oL10907   3.176   5.927   1.446
    1MUSC O01oM10908   2.781   6.295   3.255
    1MUSC O01oN10909   3.133   5.927   2.252
    1MUSC O01oO10910   3.344   6.295   2.449
    1MUSC O01oP10911   3.036   6.175   1.665
    1MUSC O01oQ10912   2.922   6.046   3.036
    1MUSC O01oR10913   3.273   6.175   2.032
    1MUSC O01oS10914   3.204   6.046   2.669
    1MUSC O01oT10915   3.014   6.212   2.013
    1MUSC O01oU10916   2.943   6.009   2.688
    1MUSC O01oV10917   3.295   6.212   1.685
    1MUSC O01oW10918   3.183   6.009   3.016
    1MUSC O01oX10919   2.914   5.969   2.013
    1MUSC O01oY10920   3.043   6.253   2.688
    1MUSC O01oZ10921   3.395   5.969   1.684
    1MUSC O01oa10922   3.083   6.253   3.017
    1MUSC O01ob10923   3.176   6.285   1.454
    1MUSC O01oc10924   2.781   5.937   3.247
    1MUSC O01od10925   3.133   6.285   2.243
    1MUSC O01oe10926   3.344   5.937   2.458
    1MUSC O01of10927   3.180   5.654   2.243
    1MUSC O01og10928   3.297   5.662   2.458
    1MUSC O01oh10929   3.128   5.654   1.454
    1MUSC O01oi10930   2.829   5.662   3.247
    1MUSC O01oj10931   3.436   5.474   1.446
    1MUSC O01ok10932   3.042   5.842   3.255
    1MUSC O01ol10933   2.873   5.474   2.252
    1MUSC O01om10934   3.084   5.842   2.449
    1MUSC O01on10935   3.296   5.723   1.665
    1MUSC O01oo10936   3.182   5.593   3.036
    1MUSC O01op10937   3.013   5.723   2.032
    1MUSC O01oq10938   2.944   5.593   2.669
    1MUSC O01or10939   3.274   5.760   2.013
    1MUSC O01os10940   3.203   5.556   2.688
    1MUSC O01ot10941   3.035   5.760   1.685
    1MUSC O01ou10942   2.923   5.556   3.016
    1MUSC O01ov10943   3.174   5.516   2.013
    1MUSC O01ow10944   3.303   5.800   2.688
    1MUSC O01ox10945   3.134   5.516   1.684
    1MUSC O01oy10946   2.823   5.800   3.017
    1MUSC O01oz10947   3.436   5.832   1.454
    1MUSC O01p010948   3.042   5.484   3.247
    1MUSC O01p110949   2.873   5.832   2.243
    1MUSC O01p210950   3.084   5.484   2.458
    1MUSC K007510951   2.986   7.152   0.845
    1MUSC K007610952   3.246   6.699   0.845
    1MUSC Al0Ir10953   3.165   6.863   0.343
    1MUSC Al0Is10954   3.158   7.168   0.344
    1MUSC Al0It10955   3.510   6.863   3.355
    1MUSC Al0Iu10956   3.334   7.168   1.346
    1MUSC Al0Iv10957   3.425   6.411   0.343
    1MUSC Al0Iw10958   3.419   6.716   0.344
    1MUSC Al0Ix10959   3.250   6.411   3.355
    1MUSC Al0Iy10960   3.073   6.716   1.346
    1MUSC Si0bh10961   3.340   7.178   3.621
    1MUSC Si0bi10962   2.983   6.853   1.080
    1MUSC Si0bj10963   3.334   7.178   0.077
    1MUSC Si0bk10964   3.509   6.853   0.610
    1MUSC Si0bl10965   3.081   7.023   0.077
    1MUSC Si0bm10966   3.242   7.009   0.610
    1MUSC Si0bn10967   3.594   7.023   3.620
    1MUSC Si0bo10968   3.250   7.009   1.081
    1MUSC Si0bp10969   3.601   6.726   3.621
    1MUSC Si0bq10970   3.243   6.401   1.080
    1MUSC Si0br10971   3.074   6.726   0.077
    1MUSC Si0bs10972   3.249   6.401   0.610
    1MUSC Si0bt10973   3.341   6.570   0.077
    1MUSC Si0bu10974   3.502   6.556   0.610
    1MUSC Si0bv10975   3.334   6.570   3.620
    1MUSC Si0bw10976   2.990   6.556   1.081
    1MUSC O01p310977   3.103   7.012   0.236
    1MUSC O01p410978   3.220   7.020   0.451
    1MUSC O01p510979   3.572   7.012   3.461
    1MUSC O01p610980   3.272   7.020   1.240
    1MUSC O01p710981   3.359   6.832   3.453
    1MUSC O01p810982   2.964   7.200   1.248
    1MUSC O01p910983   3.316   6.832   0.245
    1MUSC O01pA10984   3.527   7.200   0.442
    1MUSC O01pB10985   3.219   7.080   3.672
    1MUSC O01pC10986   3.105   6.951   1.029
    1MUSC O01pD10987   3.456   7.080   0.025
    1MUSC O01pE10988   3.387   6.951   0.662
    1MUSC O01pF10989   3.197   7.117   0.006
    1MUSC O01pG10990   3.126   6.914   0.681
    1MUSC O01pH10991   3.478   7.117   3.692
    1MUSC O01pI10992   3.366   6.914   1.009
    1MUSC O01pJ10993   3.097   6.874   0.006
    1MUSC O01pK10994   3.226   7.158   0.681
    1MUSC O01pL10995   3.578   6.874   3.691
    1MUSC O01pM10996   3.266   7.158   1.010
    1MUSC O01pN10997   3.359   7.190   3.461
    1MUSC O01pO10998   2.964   6.842   1.240
    1MUSC O01pP10999   3.316   7.190   0.236
    1MUSC O01pQ11000   3.527   6.842   0.451
    1MUSC O01pR11001   3.363   6.559   0.236
    1MUSC O01pS11002   3.480   6.567   0.451
    1MUSC O01pT11003   3.311   6.559   3.461
    1MUSC O01pU11004   3.012   6.567   1.240
    1MUSC O01pV11005   3.619   6.379   3.453
    1MUSC O01pW11006   3.225   6.747   1.248
    1MUSC O01pX11007   3.056   6.379   0.245
    1MUSC O01pY11008   3.267   6.747   0.442
    1MUSC O01pZ11009   3.479   6.628   3.672
    1MUSC O01pa11010   3.365   6.499   1.029
    1MUSC O01pb11011   3.196   6.628   0.025
    1MUSC O01pc11012   3.127   6.499   0.662
    1MUSC O01pd11013   3.457   6.665   0.006
    1MUSC O01pe11014   3.386   6.462   0.681
    1MUSC O01pf11015   3.218   6.665   3.692
    1MUSC O01pg11016   3.106   6.462   1.009
    1MUSC O01ph11017   3.357   6.421   0.006
    1MUSC O01pi11018   3.486   6.705   0.681
    1MUSC O01pj11019   3.317   6.421   3.691
    1MUSC O01pk11020   3.006   6.705   1.010
    1MUSC O01pl11021   3.619   6.737   3.461
    1MUSC O01pm11022   3.225   6.389   1.240
    1MUSC O01pn11023   3.056   6.737   0.236
    1MUSC O01po11024   3.267   6.389   0.451
    1MUSC K007711025   3.154   6.880   1.849
    1MUSC K007811026   2.803   7.152   2.852
    1MUSC K007911027   2.894   6.427   1.849
    1MUSC K007A11028   3.063   6.699   2.852
    1MUSC Al0Iz11029   2.982   6.863   2.350
    1MUSC Al0J011030   2.975   7.168   2.351
    1MUSC Al0J111031   3.327   6.863   1.348
    1MUSC Al0J211032   3.151   7.168   3.353
    1MUSC Al0J311033   3.242   6.411   2.350
    1MUSC Al0J411034   3.236   6.716   2.351
    1MUSC Al0J511035   3.067   6.411   1.348
    1MUSC Al0J611036   2.890   6.716   3.353
    1MUSC Si0bx11037   3.157   7.178   1.614
    1MUSC Si0by11038   2.800   6.853   3.087
    1MUSC Si0bz11039   3.151   7.178   2.084
    1MUSC Si0c011040   3.326   6.853   2.617
    1MUSC Si0c111041   2.898   7.023   2.084
    1MUSC Si0c211042   3.059   7.009   2.617
    1MUSC Si0c311043   3.411   7.023   1.613
    1MUSC Si0c411044   3.067   7.009   3.088
    1MUSC Si0c511045   3.418   6.726   1.614
    1MUSC Si0c611046   3.060   6.401   3.087
    1MUSC Si0c711047   2.891   6.726   2.084
    1MUSC Si0c811048   3.066   6.401   2.617
    1MUSC Si0c911049   3.158   6.570   2.084
    1MUSC Si0cA11050   3.319   6.556   2.617
    1MUSC Si0cB11051   3.151   6.570   1.613
    1MUSC Si0cC11052   2.807   6.556   3.088
    1MUSC O01pp11053   2.920   7.012   2.243
    1MUSC O01pq11054   3.037   7.020   2.458
    1MUSC O01pr11055   3.389   7.012   1.454
    1MUSC O01ps11056   3.089   7.020   3.247
    1MUSC O01pt11057   3.176   6.832   1.446
    1MUSC O01pu11058   2.781   7.200   3.255
    1MUSC O01pv11059   3.133   6.832   2.252
    1MUSC O01pw11060   3.344   7.200   2.449
    1MUSC O01px11061   3.036   7.080   1.665
    1MUSC O01py11062   2.922   6.951   3.036
    1MUSC O01pz11063   3.273   7.080   2.032
    1MUSC O01q011064   3.204   6.951   2.669
    1MUSC O01q111065   3.014   7.117   2.013
    1MUSC O01q211066   2.943   6.914   2.688
    1MUSC O01q311067   3.295   7.117   1.685
    1MUSC O01q411068   3.183   6.914   3.016
    1MUSC O01q511069   2.914   6.874   2.013
    1MUSC O01q611070   3.043   7.158   2.688
    1MUSC O01q711071   3.395   6.874   1.684
    1MUSC O01q811072   3.083   7.158   3.017
    1MUSC O01q911073   3.176   7.190   1.454
    1MUSC O01qA11074   2.781   6.842   3.247
    1MUSC O01qB11075   3.133   7.190   2.243
    1MUSC O01qC11076   3.344   6.842   2.458
    1MUSC O01qD11077   3.180   6.559   2.243
    1MUSC O01qE11078   3.297   6.567   2.458
    1MUSC O01qF11079   3.128   6.559   1.454
    1MUSC O01qG11080   2.829   6.567   3.247
    1MUSC O01qH11081   3.436   6.379   1.446
    1MUSC O01qI11082   3.042   6.747   3.255
    1MUSC O01qJ11083   2.873   6.379   2.252
    1MUSC O01qK11084   3.084   6.747   2.449
    1MUSC O01qL11085   3.296   6.628   1.665
    1MUSC O01qM11086   3.182   6.499   3.036
    1MUSC O01qN11087   3.013   6.628   2.032
    1MUSC O01qO11088   2.944   6.499   2.669
    1MUSC O01qP11089   3.274   6.665   2.013
    1MUSC O01qQ11090   3.203   6.462   2.688
    1MUSC O01qR11091   3.035   6.665   1.685
    1MUSC O01qS11092   2.923   6.462   3.016
    1MUSC O01qT11093   3.174   6.421   2.013
    1MUSC O01qU11094   3.303   6.705   2.688
    1MUSC O01qV11095   3.134   6.421   1.684
    1MUSC O01qW11096   2.823   6.705   3.017
    1MUSC O01qX11097   3.436   6.737   1.454
    1MUSC O01qY11098   3.042   6.389   3.247
    1MUSC O01qZ11099   2.873   6.737   2.243
    1MUSC O01qa11100   3.084   6.389   2.458
    1MUSC K007B11101   2.986   8.057   0.845
    1MUSC K007C11102   3.246   7.605   0.845
    1MUSC Al0J711103   3.165   7.769   0.343
    1MUSC Al0J811104   3.158   8.074   0.344
    1MUSC Al0J911105   3.510   7.769   3.355
    1MUSC Al0JA11106   3.334   8.074   1.346
    1MUSC Al0JB11107   3.425   7.316   0.343
    1MUSC Al0JC11108   3.419   7.621   0.344
    1MUSC Al0JD11109   3.250   7.316   3.355
    1MUSC Al0JE11110   3.073   7.621   1.346
    1MUSC Si0cD11111   3.340   8.084   3.621
    1MUSC Si0cE11112   2.983   7.759   1.080
    1MUSC Si0cF11113   3.334   8.084   0.077
    1MUSC Si0cG11114   3.509   7.759   0.610
    1MUSC Si0cH11115   3.081   7.928   0.077
    1MUSC Si0cI11116   3.242   7.914   0.610
    1MUSC Si0cJ11117   3.594   7.928   3.620
    1MUSC Si0cK11118   3.250   7.914   1.081
    1MUSC Si0cL11119   3.601   7.631   3.621
    1MUSC Si0cM11120   3.243   7.306   1.080
    1MUSC Si0cN11121   3.074   7.631   0.077
    1MUSC Si0cO11122   3.249   7.306   0.610
    1MUSC Si0cP11123   3.341   7.476   0.077
    1MUSC Si0cQ11124   3.502   7.461   0.610
    1MUSC Si0cR11125   3.334   7.476   3.620
    1MUSC Si0cS11126   2.990   7.461   1.081
    1MUSC O01qb11127   3.103   7.917   0.236
    1MUSC O01qc11128   3.220   7.925   0.451
    1MUSC O01qd11129   3.572   7.917   3.461
    1MUSC O01qe11130   3.272   7.925   1.240
    1MUSC O01qf11131   3.359   7.737   3.453
    1MUSC O01qg11132   2.964   8.105   1.248
    1MUSC O01qh11133   3.316   7.737   0.245
    1MUSC O01qi11134   3.527   8.105   0.442
    1MUSC O01qj11135   3.219   7.986   3.672
    1MUSC O01qk11136   3.105   7.856   1.029
    1MUSC O01ql11137   3.456   7.986   0.025
    1MUSC O01qm11138   3.387   7.856   0.662
    1MUSC O01qn11139   3.197   8.023   0.006
    1MUSC O01qo11140   3.126   7.819   0.681
    1MUSC O01qp11141   3.478   8.023   3.692
    1MUSC O01qq11142   3.366   7.819   1.009
    1MUSC O01qr11143   3.097   7.779   0.006
    1MUSC O01qs11144   3.226   8.063   0.681
    1MUSC O01qt11145   3.578   7.779   3.691
    1MUSC O01qu11146   3.266   8.063   1.010
    1MUSC O01qv11147   3.359   8.095   3.461
    1MUSC O01qw11148   2.964   7.747   1.240
    1MUSC O01qx11149   3.316   8.095   0.236
    1MUSC O01qy11150   3.527   7.747   0.451
    1MUSC O01qz11151   3.363   7.464   0.236
    1MUSC O01r011152   3.480   7.473   0.451
    1MUSC O01r111153   3.311   7.464   3.461
    1MUSC O01r211154   3.012   7.473   1.240
    1MUSC O01r311155   3.619   7.284   3.453
    1MUSC O01r411156   3.225   7.653   1.248
    1MUSC O01r511157   3.056   7.284   0.245
    1MUSC O01r611158   3.267   7.653   0.442
    1MUSC O01r711159   3.479   7.533   3.672
    1MUSC O01r811160   3.365   7.404   1.029
    1MUSC O01r911161   3.196   7.533   0.025
    1MUSC O01rA11162   3.127   7.404   0.662
    1MUSC O01rB11163   3.457   7.570   0.006
    1MUSC O01rC11164   3.386   7.367   0.681
    1MUSC O01rD11165   3.218   7.570   3.692
    1MUSC O01rE11166   3.106   7.367   1.009
    1MUSC O01rF11167   3.357   7.326   0.006
    1MUSC O01rG11168   3.486   7.611   0.681
    1MUSC O01rH11169   3.317   7.326   3.691
    1MUSC O01rI11170   3.006   7.611   1.010
    1MUSC O01rJ11171   3.619   7.642   3.461
    1MUSC O01rK11172   3.225   7.295   1.240
    1MUSC O01rL11173   3.056   7.642   0.236
    1MUSC O01rM11174   3.267   7.295   0.451
    1MUSC K007D11175   3.154   7.785   1.849
    1MUSC K007E11176   2.803   8.057   2.852
    1MUSC K007F11177   2.894   7.332   1.849
    1MUSC K007G11178   3.063   7.605   2.852
    1MUSC Al0JF11179   2.982   7.769   2.350
    1MUSC Al0JG11180   2.975   8.074   2.351
    1MUSC Al0JH11181   3.327   7.769   1.348
    1MUSC Al0JI11182   3.151   8.074   3.353
    1MUSC Al0JJ11183   3.242   7.316   2.350
    1MUSC Al0JK11184   3.236   7.621   2.351
    1MUSC Al0JL11185   3.067   7.316   1.348
    1MUSC Al0JM11186   2.890   7.621   3.353
    1MUSC Si0cT11187   3.157   8.084   1.614
    1MUSC Si0cU11188   2.800   7.759   3.087
    1MUSC Si0cV11189   3.151   8.084   2.084
    1MUSC Si0cW11190   3.326   7.759   2.617
    1MUSC Si0cX11191   2.898   7.928   2.084
    1MUSC Si0cY11192   3.059   7.914   2.617
    1MUSC Si0cZ11193   3.411   7.928   1.613
    1MUSC Si0ca11194   3.067   7.914   3.088
    1MUSC Si0cb11195   3.418   7.631   1.614
    1MUSC Si0cc11196   3.060   7.306   3.087
    1MUSC Si0cd11197   2.891   7.631   2.084
    1MUSC Si0ce11198   3.066   7.306   2.617
    1MUSC Si0cf11199   3.158   7.476   2.084
    1MUSC Si0cg11200   3.319   7.461   2.617
    1MUSC Si0ch11201   3.151   7.476   1.613
    1MUSC Si0ci11202   2.807   7.461   3.088
    1MUSC O01rN11203   2.920   7.917   2.243
    1MUSC O01rO11204   3.037   7.925   2.458
    1MUSC O01rP11205   3.389   7.917   1.454
    1MUSC O01rQ11206   3.089   7.925   3.247
    1MUSC O01rR11207   3.176   7.737   1.446
    1MUSC O01rS11208   2.781   8.105   3.255
    1MUSC O01rT11209   3.133   7.737   2.252
    1MUSC O01rU11210   3.344   8.105   2.449
    1MUSC O01rV11211   3.036   7.986   1.665
    1MUSC O01rW11212   2.922   7.856   3.036
    1MUSC O01rX11213   3.273   7.986   2.032
    1MUSC O01rY11214   3.204   7.856   2.669
    1MUSC O01rZ11215   3.014   8.023   2.013
    1MUSC O01ra11216   2.943   7.819   2.688
    1MUSC O01rb11217   3.295   8.023   1.685
    1MUSC O01rc11218   3.183   7.819   3.016
    1MUSC O01rd11219   2.914   7.779   2.013
    1MUSC O01re11220   3.043   8.063   2.688
    1MUSC O01rf11221   3.395   7.779   1.684
    1MUSC O01rg11222   3.083   8.063   3.017
    1MUSC O01rh11223   3.176   8.095   1.454
    1MUSC O01ri11224   2.781   7.747   3.247
    1MUSC O01rj11225   3.133   8.095   2.243
    1MUSC O01rk11226   3.344   7.747   2.458
    1MUSC O01rl11227   3.180   7.464   2.243
    1MUSC O01rm11228   3.297   7.473   2.458
    1MUSC O01rn11229   3.128   7.464   1.454
    1MUSC O01ro11230   2.829   7.473   3.247
    1MUSC O01rp11231   3.436   7.284   1.446
    1MUSC O01rq11232   3.042   7.653   3.255
    1MUSC O01rr11233   2.873   7.284   2.252
    1MUSC O01rs11234   3.084   7.653   2.449
    1MUSC O01rt11235   3.296   7.533   1.665
    1MUSC O01ru11236   3.182   7.404   3.036
    1MUSC O01rv11237   3.013   7.533   2.032
    1MUSC O01rw11238   2.944   7.404   2.669
    1MUSC O01rx11239   3.274   7.570   2.013
    1MUSC O01ry11240   3.203   7.367   2.688
    1MUSC O01rz11241   3.035   7.570   1.685
    1MUSC O01s011242   2.923   7.367   3.016
    1MUSC O01s111243   3.174   7.326   2.013
    1MUSC O01s211244   3.303   7.611   2.688
    1MUSC O01s311245   3.134   7.326   1.684
    1MUSC O01s411246   2.823   7.611   3.017
    1MUSC O01s511247   3.436   7.642   1.454
    1MUSC O01s611248   3.042   7.295   3.247
    1MUSC O01s711249   2.873   7.642   2.243
    1MUSC O01s811250   3.084   7.295   2.458
    1MUSC K007H11251   2.986   8.962   0.845
    1MUSC K007I11252   3.246   8.510   0.845
    1MUSC Al0JN11253   3.165   8.674   0.343
    1MUSC Al0JO11254   3.158   8.979   0.344
    1MUSC Al0JP11255   3.510   8.674   3.355
    1MUSC Al0JQ11256   3.334   8.979   1.346
    1MUSC Al0JR11257   3.425   8.221   0.343
    1MUSC Al0JS11258   3.419   8.526   0.344
    1MUSC Al0JT11259   3.250   8.221   3.355
    1MUSC Al0JU11260   3.073   8.526   1.346
    1MUSC Si0cj11261   3.340   8.989   3.621
    1MUSC Si0ck11262   2.983   8.664   1.080
    1MUSC Si0cl11263   3.334   8.989   0.077
    1MUSC Si0cm11264   3.509   8.664   0.610
    1MUSC Si0cn11265   3.081   8.834   0.077
    1MUSC Si0co11266   3.242   8.819   0.610
    1MUSC Si0cp11267   3.594   8.834   3.620
    1MUSC Si0cq11268   3.250   8.819   1.081
    1MUSC Si0cr11269   3.601   8.536   3.621
    1MUSC Si0cs11270   3.243   8.211   1.080
    1MUSC Si0ct11271   3.074   8.536   0.077
    1MUSC Si0cu11272   3.249   8.211   0.610
    1MUSC Si0cv11273   3.341   8.381   0.077
    1MUSC Si0cw11274   3.502   8.367   0.610
    1MUSC Si0cx11275   3.334   8.381   3.620
    1MUSC Si0cy11276   2.990   8.367   1.081
    1MUSC O01s911277   3.103   8.822   0.236
    1MUSC O01sA11278   3.220   8.831   0.451
    1MUSC O01sB11279   3.572   8.822   3.461
    1MUSC O01sC11280   3.272   8.831   1.240
    1MUSC O01sD11281   3.359   8.642   3.453
    1MUSC O01sE11282   2.964   9.010   1.248
    1MUSC O01sF11283   3.316   8.642   0.245
    1MUSC O01sG11284   3.527   9.010   0.442
    1MUSC O01sH11285   3.219   8.891   3.672
    1MUSC O01sI11286   3.105   8.762   1.029
    1MUSC O01sJ11287   3.456   8.891   0.025
    1MUSC O01sK11288   3.387   8.762   0.662
    1MUSC O01sL11289   3.197   8.928   0.006
    1MUSC O01sM11290   3.126   8.725   0.681
    1MUSC O01sN11291   3.478   8.928   3.692
    1MUSC O01sO11292   3.366   8.725   1.009
    1MUSC O01sP11293   3.097   8.684   0.006
    1MUSC O01sQ11294   3.226   8.968   0.681
    1MUSC O01sR11295   3.578   8.684   3.691
    1MUSC O01sS11296   3.266   8.968   1.010
    1MUSC O01sT11297   3.359   9.000   3.461
    1MUSC O01sU11298   2.964   8.652   1.240
    1MUSC O01sV11299   3.316   9.000   0.236
    1MUSC O01sW11300   3.527   8.652   0.451
    1MUSC O01sX11301   3.363   8.370   0.236
    1MUSC O01sY11302   3.480   8.378   0.451
    1MUSC O01sZ11303   3.311   8.370   3.461
    1MUSC O01sa11304   3.012   8.378   1.240
    1MUSC O01sb11305   3.619   8.190   3.453
    1MUSC O01sc11306   3.225   8.558   1.248
    1MUSC O01sd11307   3.056   8.190   0.245
    1MUSC O01se11308   3.267   8.558   0.442
    1MUSC O01sf11309   3.479   8.438   3.672
    1MUSC O01sg11310   3.365   8.309   1.029
    1MUSC O01sh11311   3.196   8.438   0.025
    1MUSC O01si11312   3.127   8.309   0.662
    1MUSC O01sj11313   3.457   8.475   0.006
    1MUSC O01sk11314   3.386   8.272   0.681
    1MUSC O01sl11315   3.218   8.475   3.692
    1MUSC O01sm11316   3.106   8.272   1.009
    1MUSC O01sn11317   3.357   8.232   0.006
    1MUSC O01so11318   3.486   8.516   0.681
    1MUSC O01sp11319   3.317   8.232   3.691
    1MUSC O01sq11320   3.006   8.516   1.010
    1MUSC O01sr11321   3.619   8.548   3.461
    1MUSC O01ss11322   3.225   8.200   1.240
    1MUSC O01st11323   3.056   8.548   0.236
    1MUSC O01su11324   3.267   8.200   0.451
    1MUSC K007J11325   3.154   8.690   1.849
    1MUSC K007K11326   2.803   8.962   2.852
    1MUSC K007L11327   2.894   8.238   1.849
    1MUSC K007M11328   3.063   8.510   2.852
    1MUSC Al0JV11329   2.982   8.674   2.350
    1MUSC Al0JW11330   2.975   8.979   2.351
    1MUSC Al0JX11331   3.327   8.674   1.348
    1MUSC Al0JY11332   3.151   8.979   3.353
    1MUSC Al0JZ11333   3.242   8.221   2.350
    1MUSC Al0Ja11334   3.236   8.526   2.351
    1MUSC Al0Jb11335   3.067   8.221   1.348
    1MUSC Al0Jc11336   2.890   8.526   3.353
    1MUSC Si0cz11337   3.157   8.989   1.614
    1MUSC Si0d011338   2.800   8.664   3.087
    1MUSC Si0d111339   3.151   8.989   2.084
    1MUSC Si0d211340   3.326   8.664   2.617
    1MUSC Si0d311341   2.898   8.834   2.084
    1MUSC Si0d411342   3.059   8.819   2.617
    1MUSC Si0d511343   3.411   8.834   1.613
    1MUSC Si0d611344   3.067   8.819   3.088
    1MUSC Si0d711345   3.418   8.536   1.614
    1MUSC Si0d811346   3.060   8.211   3.087
    1MUSC Si0d911347   2.891   8.536   2.084
    1MUSC Si0dA11348   3.066   8.211   2.617
    1MUSC Si0dB11349   3.158   8.381   2.084
    1MUSC Si0dC11350   3.319   8.367   2.617
    1MUSC Si0dD11351   3.151   8.381   1.613
    1MUSC Si0dE11352   2.807   8.367   3.088
    1MUSC O01sv11353   2.920   8.822   2.243
    1MUSC O01sw11354   3.037   8.831   2.458
    1MUSC O01sx11355   3.389   8.822   1.454
    1MUSC O01sy11356   3.089   8.831   3.247
    1MUSC O01sz11357   3.176   8.642   1.446
    1MUSC O01t011358   2.781   9.010   3.255
    1MUSC O01t111359   3.133   8.642   2.252
    1MUSC O01t211360   3.344   9.010   2.449
    1MUSC O01t311361   3.036   8.891   1.665
    1MUSC O01t411362   2.922   8.762   3.036
    1MUSC O01t511363   3.273   8.891   2.032
    1MUSC O01t611364   3.204   8.762   2.669
    1MUSC O01t711365   3.014   8.928   2.013
    1MUSC O01t811366   2.943   8.725   2.688
    1MUSC O01t911367   3.295   8.928   1.685
    1MUSC O01tA11368   3.183   8.725   3.016
    1MUSC O01tB11369   2.914   8.684   2.013
    1MUSC O01tC11370   3.043   8.968   2.688
    1MUSC O01tD11371   3.395   8.684   1.684
    1MUSC O01tE11372   3.083   8.968   3.017
    1MUSC O01tF11373   3.176   9.000   1.454
    1MUSC O01tG11374   2.781   8.652   3.247
    1MUSC O01tH11375   3.133   9.000   2.243
    1MUSC O01tI11376   3.344   8.652   2.458
    1MUSC O01tJ11377   3.180   8.370   2.243
    1MUSC O01tK11378   3.297   8.378   2.458
    1MUSC O01tL11379   3.128   8.370   1.454
    1MUSC O01tM11380   2.829   8.378   3.247
    1MUSC O01tN11381   3.436   8.190   1.446
    1MUSC O01tO11382   3.042   8.558   3.255
    1MUSC O01tP11383   2.873   8.190   2.252
    1MUSC O01tQ11384   3.084   8.558   2.449
    1MUSC O01tR11385   3.296   8.438   1.665
    1MUSC O01tS11386   3.182   8.309   3.036
    1MUSC O01tT11387   3.013   8.438   2.032
    1MUSC O01tU11388   2.944   8.309   2.669
    1MUSC O01tV11389   3.274   8.475   2.013
    1MUSC O01tW11390   3.203   8.272   2.688
    1MUSC O01tX11391   3.035   8.475   1.685
    1MUSC O01tY11392   2.923   8.272   3.016
    1MUSC O01tZ11393   3.174   8.232   2.013
    1MUSC O01ta11394   3.303   8.516   2.688
    1MUSC O01tb11395   3.134   8.232   1.684
    1MUSC O01tc11396   2.823   8.516   3.017
    1MUSC O01td11397   3.436   8.548   1.454
    1MUSC O01te11398   3.042   8.200   3.247
    1MUSC O01tf11399   2.873   8.548   2.243
    1MUSC O01tg11400   3.084   8.200   2.458
    1MUSC K007N11401   2.986   9.868   0.845
    1MUSC K007O11402   3.246   9.415   0.845
    1MUSC Al0Jd11403   3.165   9.579   0.343
    1MUSC Al0Je11404   3.158   9.884   0.344
    1MUSC Al0Jf11405   3.510   9.579   3.355
    1MUSC Al0Jg11406   3.334   9.884   1.346
    1MUSC Al0Jh11407   3.425   9.126   0.343
    1MUSC Al0Ji11408   3.419   9.432   0.344
    1MUSC Al0Jj11409   3.250   9.126   3.355
    1MUSC Al0Jk11410   3.073   9.432   1.346
    1MUSC Si0dF11411   3.340   9.894   3.621
    1MUSC Si0dG11412   2.983   9.569   1.080
    1MUSC Si0dH11413   3.334   9.894   0.077
    1MUSC Si0dI11414   3.509   9.569   0.610
    1MUSC Si0dJ11415   3.081   9.739   0.077
    1MUSC Si0dK11416   3.242   9.724   0.610
    1MUSC Si0dL11417   3.594   9.739   3.620
    1MUSC Si0dM11418   3.250   9.724   1.081
    1MUSC Si0dN11419   3.601   9.441   3.621
    1MUSC Si0dO11420   3.243   9.117   1.080
    1MUSC Si0dP11421   3.074   9.441   0.077
    1MUSC Si0dQ11422   3.249   9.117   0.610
    1MUSC Si0dR11423   3.341   9.286   0.077
    1MUSC Si0dS11424   3.502   9.272   0.610
    1MUSC Si0dT11425   3.334   9.286   3.620
    1MUSC Si0dU11426   2.990   9.272   1.081
    1MUSC O01th11427   3.103   9.728   0.236
    1MUSC O01ti11428   3.220   9.736   0.451
    1MUSC O01tj11429   3.572   9.728   3.461
    1MUSC O01tk11430   3.272   9.736   1.240
    1MUSC O01tl11431   3.359   9.548   3.453
    1MUSC O01tm11432   2.964   9.916   1.248
    1MUSC O01tn11433   3.316   9.548   0.245
    1MUSC O01to11434   3.527   9.916   0.442
    1MUSC O01tp11435   3.219   9.796   3.672
    1MUSC O01tq11436   3.105   9.667   1.029
    1MUSC O01tr11437   3.456   9.796   0.025
    1MUSC O01ts11438   3.387   9.667   0.662
    1MUSC O01tt11439   3.197   9.833   0.006
    1MUSC O01tu11440   3.126   9.630   0.681
    1MUSC O01tv11441   3.478   9.833   3.692
    1MUSC O01tw11442   3.366   9.630   1.009
    1MUSC O01tx11443   3.097   9.590   0.006
    1MUSC O01ty11444   3.226   9.874   0.681
    1MUSC O01tz11445   3.578   9.590   3.691
    1MUSC O01u011446   3.266   9.874   1.010
    1MUSC O01u111447   3.359   9.906   3.461
    1MUSC O01u211448   2.964   9.558   1.240
    1MUSC O01u311449   3.316   9.906   0.236
    1MUSC O01u411450   3.527   9.558   0.451
    1MUSC O01u511451   3.363   9.275   0.236
    1MUSC O01u611452   3.480   9.283   0.451
    1MUSC O01u711453   3.311   9.275   3.461
    1MUSC O01u811454   3.012   9.283   1.240
    1MUSC O01u911455   3.619   9.095   3.453
    1MUSC O01uA11456   3.225   9.463   1.248
    1MUSC O01uB11457   3.056   9.095   0.245
    1MUSC O01uC11458   3.267   9.463   0.442
    1MUSC O01uD11459   3.479   9.344   3.672
    1MUSC O01uE11460   3.365   9.214   1.029
    1MUSC O01uF11461   3.196   9.344   0.025
    1MUSC O01uG11462   3.127   9.214   0.662
    1MUSC O01uH11463   3.457   9.381   0.006
    1MUSC O01uI11464   3.386   9.177   0.681
    1MUSC O01uJ11465   3.218   9.381   3.692
    1MUSC O01uK11466   3.106   9.177   1.009
    1MUSC O01uL11467   3.357   9.137   0.006
    1MUSC O01uM11468   3.486   9.421   0.681
    1MUSC O01uN11469   3.317   9.137   3.691
    1MUSC O01uO11470   3.006   9.421   1.010
    1MUSC O01uP11471   3.619   9.453   3.461
    1MUSC O01uQ11472   3.225   9.105   1.240
    1MUSC O01uR11473   3.056   9.453   0.236
    1MUSC O01uS11474   3.267   9.105   0.451
    1MUSC K007P11475   3.154   9.596   1.849
    1MUSC K007Q11476   2.803   9.868   2.852
    1MUSC K007R11477   2.894   9.143   1.849
    1MUSC K007S11478   3.063   9.415   2.852
    1MUSC Al0Jl11479   2.982   9.579   2.350
    1MUSC Al0Jm11480   2.975   9.884   2.351
    1MUSC Al0Jn11481   3.327   9.579   1.348
    1MUSC Al0Jo11482   3.151   9.884   3.353
    1MUSC Al0Jp11483   3.242   9.126   2.350
    1MUSC Al0Jq11484   3.236   9.432   2.351
    1MUSC Al0Jr11485   3.067   9.126   1.348
    1MUSC Al0Js11486   2.890   9.432   3.353
    1MUSC Si0dV11487   3.157   9.894   1.614
    1MUSC Si0dW11488   2.800   9.569   3.087
    1MUSC Si0dX11489   3.151   9.894   2.084
    1MUSC Si0dY11490   3.326   9.569   2.617
    1MUSC Si0dZ11491   2.898   9.739   2.084
    1MUSC Si0da11492   3.059   9.724   2.617
    1MUSC Si0db11493   3.411   9.739   1.613
    1MUSC Si0dc11494   3.067   9.724   3.088
    1MUSC Si0dd11495   3.418   9.441   1.614
    1MUSC Si0de11496   3.060   9.117   3.087
    1MUSC Si0df11497   2.891   9.441   2.084
    1MUSC Si0dg11498   3.066   9.117   2.617
    1MUSC Si0dh11499   3.158   9.286   2.084
    1MUSC Si0di11500   3.319   9.272   2.617
    1MUSC Si0dj11501   3.151   9.286   1.613
    1MUSC Si0dk11502   2.807   9.272   3.088
    1MUSC O01uT11503   2.920   9.728   2.243
    1MUSC O01uU11504   3.037   9.736   2.458
    1MUSC O01uV11505   3.389   9.728   1.454
    1MUSC O01uW11506   3.089   9.736   3.247
    1MUSC O01uX11507   3.176   9.548   1.446
    1MUSC O01uY11508   2.781   9.916   3.255
    1MUSC O01uZ11509   3.133   9.548   2.252
    1MUSC O01ua11510   3.344   9.916   2.449
    1MUSC O01ub11511   3.036   9.796   1.665
    1MUSC O01uc11512   2.922   9.667   3.036
    1MUSC O01ud11513   3.273   9.796   2.032
    1MUSC O01ue11514   3.204   9.667   2.669
    1MUSC O01uf11515   3.014   9.833   2.013
    1MUSC O01ug11516   2.943   9.630   2.688
    1MUSC O01uh11517   3.295   9.833   1.685
    1MUSC O01ui11518   3.183   9.630   3.016
    1MUSC O01uj11519   2.914   9.590   2.013
    1MUSC O01uk11520   3.043   9.874   2.688
    1MUSC O01ul11521   3.395   9.590   1.684
    1MUSC O01um11522   3.083   9.874   3.017
    1MUSC O01un11523   3.176   9.906   1.454
    1MUSC O01uo11524   2.781   9.558   3.247
    1MUSC O01up11525   3.133   9.906   2.243
    1MUSC O01uq11526   3.344   9.558   2.458
    1MUSC O01ur11527   3.180   9.275   2.243
    1MUSC O01us11528   3.297   9.283   2.458
    1MUSC O01ut11529   3.128   9.275   1.454
    1MUSC O01uu11530   2.829   9.283   3.247
    1MUSC O01uv11531   3.436   9.095   1.446
    1MUSC O01uw11532   3.042   9.463   3.255
    1MUSC O01ux11533   2.873   9.095   2.252
    1MUSC O01uy11534   3.084   9.463   2.449
    1MUSC O01uz11535   3.296   9.344   1.665
    1MUSC O01v011536   3.182   9.214   3.036
    1MUSC O01v111537   3.013   9.344   2.032
    1MUSC O01v211538   2.944   9.214   2.669
    1MUSC O01v311539   3.274   9.381   2.013
    1MUSC O01v411540   3.203   9.177   2.688
    1MUSC O01v511541   3.035   9.381   1.685
    1MUSC O01v611542   2.923   9.177   3.016
    1MUSC O01v711543   3.174   9.137   2.013
    1MUSC O01v811544   3.303   9.421   2.688
    1MUSC O01v911545   3.134   9.137   1.684
    1MUSC O01vA11546   2.823   9.421   3.017
    1MUSC O01vB11547   3.436   9.453   1.454
    1MUSC O01vC11548   3.042   9.105   3.247
    1MUSC O01vD11549   2.873   9.453   2.243
    1MUSC O01vE11550   3.084   9.105   2.458
    1MUSC K007T11551   3.506   0.815   0.845
    1MUSC K007U11552   3.766   0.362   0.845
    1MUSC Al0Jt11553   3.685   0.526   0.343
    1MUSC Al0Ju11554   3.679   0.831   0.344
    1MUSC Al0Jv11555   4.031   0.526   3.355
    1MUSC Al0Jw11556   3.854   0.831   1.346
    1MUSC Al0Jx11557   3.946   0.074   0.343
    1MUSC Al0Jy11558   3.939   0.379   0.344
    1MUSC Al0Jz11559   3.770   0.074   3.355
    1MUSC Al0K011560   3.594   0.379   1.346
    1MUSC Si0dl11561   3.861   0.841   3.621
    1MUSC Si0dm11562   3.503   0.517   1.080
    1MUSC Si0dn11563   3.855   0.841   0.077
    1MUSC Si0do11564   4.030   0.517   0.610
    1MUSC Si0dp11565   3.602   0.686   0.077
    1MUSC Si0dq11566   3.763   0.672   0.610
    1MUSC Si0dr11567   4.114   0.686   3.620
    1MUSC Si0ds11568   3.770   0.672   1.081
    1MUSC Si0dt11569   4.121   0.389   3.621
    1MUSC Si0du11570   3.763   0.064   1.080
    1MUSC Si0dv11571   3.595   0.389   0.077
    1MUSC Si0dw11572   3.769   0.064   0.610
    1MUSC Si0dx11573   3.862   0.233   0.077
    1MUSC Si0dy11574   4.023   0.219   0.610
    1MUSC Si0dz11575   3.854   0.233   3.620
    1MUSC Si0e011576   3.510   0.219   1.081
    1MUSC O01vF11577   3.624   0.675   0.236
    1MUSC O01vG11578   3.740   0.683   0.451
    1MUSC O01vH11579   4.092   0.675   3.461
    1MUSC O01vI11580   3.792   0.683   1.240
    1MUSC O01vJ11581   3.879   0.495   3.453
    1MUSC O01vK11582   3.485   0.863   1.248
    1MUSC O01vL11583   3.837   0.495   0.245
    1MUSC O01vM11584   4.048   0.863   0.442
    1MUSC O01vN11585   3.739   0.744   3.672
    1MUSC O01vO11586   3.625   0.614   1.029
    1MUSC O01vP11587   3.977   0.744   0.025
    1MUSC O01vQ11588   3.908   0.614   0.662
    1MUSC O01vR11589   3.718   0.781   0.006
    1MUSC O01vS11590   3.647   0.577   0.681
    1MUSC O01vT11591   3.998   0.781   3.692
    1MUSC O01vU11592   3.886   0.577   1.009
    1MUSC O01vV11593   3.618   0.537   0.006
    1MUSC O01vW11594   3.746   0.821   0.681
    1MUSC O01vX11595   4.098   0.537   3.691
    1MUSC O01vY11596   3.786   0.821   1.010
    1MUSC O01vZ11597   3.879   0.853   3.461
    1MUSC O01va11598   3.485   0.505   1.240
    1MUSC O01vb11599   3.837   0.853   0.236
    1MUSC O01vc11600   4.048   0.505   0.451
    1MUSC O01vd11601   3.884   0.222   0.236
    1MUSC O01ve11602   4.001   0.230   0.451
    1MUSC O01vf11603   3.832   0.222   3.461
    1MUSC O01vg11604   3.532   0.230   1.240
    1MUSC O01vh11605   4.139   0.042   3.453
    1MUSC O01vi11606   3.745   0.410   1.248
    1MUSC O01vj11607   3.576   0.042   0.245
    1MUSC O01vk11608   3.788   0.410   0.442
    1MUSC O01vl11609   3.999   0.291   3.672
    1MUSC O01vm11610   3.885   0.162   1.029
    1MUSC O01vn11611   3.717   0.291   0.025
    1MUSC O01vo11612   3.647   0.162   0.662
    1MUSC O01vp11613   3.978   0.328   0.006
    1MUSC O01vq11614   3.907   0.125   0.681
    1MUSC O01vr11615   3.738   0.328   3.692
    1MUSC O01vs11616   3.626   0.125   1.009
    1MUSC O01vt11617   3.878   0.084   0.006
    1MUSC O01vu11618   4.007   0.368   0.681
    1MUSC O01vv11619   3.838   0.084   3.691
    1MUSC O01vw11620   3.526   0.368   1.010
    1MUSC O01vx11621   4.139   0.400   3.461
    1MUSC O01vy11622   3.745   0.052   1.240
    1MUSC O01vz11623   3.576   0.400   0.236
    1MUSC O01w011624   3.788   0.052   0.451
    1MUSC K007V11625   3.675   0.543   1.849
    1MUSC K007W11626   3.323   0.815   2.852
    1MUSC K007X11627   3.415   0.090   1.849
    1MUSC K007Y11628   3.583   0.362   2.852
    1MUSC Al0K111629   3.502   0.526   2.350
    1MUSC Al0K211630   3.496   0.831   2.351
    1MUSC Al0K311631   3.848   0.526   1.348
    1MUSC Al0K411632   3.671   0.831   3.353
    1MUSC Al0K511633   3.763   0.074   2.350
    1MUSC Al0K611634   3.756   0.379   2.351
    1MUSC Al0K711635   3.587   0.074   1.348
    1MUSC Al0K811636   3.411   0.379   3.353
    1MUSC Si0e111637   3.678   0.841   1.614
    1MUSC Si0e211638   3.320   0.517   3.087
    1MUSC Si0e311639   3.672   0.841   2.084
    1MUSC Si0e411640   3.847   0.517   2.617
    1MUSC Si0e511641   3.419   0.686   2.084
    1MUSC Si0e611642   3.580   0.672   2.617
    1MUSC Si0e711643   3.931   0.686   1.613
    1MUSC Si0e811644   3.587   0.672   3.088
    1MUSC Si0e911645   3.938   0.389   1.614
    1MUSC Si0eA11646   3.580   0.064   3.087
    1MUSC Si0eB11647   3.412   0.389   2.084
    1MUSC Si0eC11648   3.586   0.064   2.617
    1MUSC Si0eD11649   3.679   0.233   2.084
    1MUSC Si0eE11650   3.840   0.219   2.617
    1MUSC Si0eF11651   3.671   0.233   1.613
    1MUSC Si0eG11652   3.327   0.219   3.088
    1MUSC O01w111653   3.441   0.675   2.243
    1MUSC O01w211654   3.557   0.683   2.458
    1MUSC O01w311655   3.909   0.675   1.454
    1MUSC O01w411656   3.609   0.683   3.247
    1MUSC O01w511657   3.696   0.495   1.446
    1MUSC O01w611658   3.302   0.863   3.255
    1MUSC O01w711659   3.654   0.495   2.252
    1MUSC O01w811660   3.865   0.863   2.449
    1MUSC O01w911661   3.556   0.744   1.665
    1MUSC O01wA11662   3.442   0.614   3.036
    1MUSC O01wB11663   3.794   0.744   2.032
    1MUSC O01wC11664   3.725   0.614   2.669
    1MUSC O01wD11665   3.535   0.781   2.013
    1MUSC O01wE11666   3.464   0.577   2.688
    1MUSC O01wF11667   3.815   0.781   1.685
    1MUSC O01wG11668   3.703   0.577   3.016
    1MUSC O01wH11669   3.435   0.537   2.013
    1MUSC O01wI11670   3.563   0.821   2.688
    1MUSC O01wJ11671   3.915   0.537   1.684
    1MUSC O01wK11672   3.603   0.821   3.017
    1MUSC O01wL11673   3.696   0.853   1.454
    1MUSC O01wM11674   3.302   0.505   3.247
    1MUSC O01wN11675   3.654   0.853   2.243
    1MUSC O01wO11676   3.865   0.505   2.458
    1MUSC O01wP11677   3.701   0.222   2.243
    1MUSC O01wQ11678   3.818   0.230   2.458
    1MUSC O01wR11679   3.649   0.222   1.454
    1MUSC O01wS11680   3.349   0.230   3.247
    1MUSC O01wT11681   3.956   0.042   1.446
    1MUSC O01wU11682   3.562   0.410   3.255
    1MUSC O01wV11683   3.393   0.042   2.252
    1MUSC O01wW11684   3.605   0.410   2.449
    1MUSC O01wX11685   3.816   0.291   1.665
    1MUSC O01wY11686   3.702   0.162   3.036
    1MUSC O01wZ11687   3.534   0.291   2.032
    1MUSC O01wa11688   3.464   0.162   2.669
    1MUSC O01wb11689   3.795   0.328   2.013
    1MUSC O01wc11690   3.724   0.125   2.688
    1MUSC O01wd11691   3.555   0.328   1.685
    1MUSC O01we11692   3.443   0.125   3.016
    1MUSC O01wf11693   3.695   0.084   2.013
    1MUSC O01wg11694   3.824   0.368   2.688
    1MUSC O01wh11695   3.655   0.084   1.684
    1MUSC O01wi11696   3.343   0.368   3.017
    1MUSC O01wj11697   3.956   0.400   1.454
    1MUSC O01wk11698   3.562   0.052   3.247
    1MUSC O01wl11699   3.393   0.400   2.243
    1MUSC O01wm11700   3.605   0.052   2.458
    1MUSC K007Z11701   3.506   1.720   0.845
    1MUSC K007a11702   3.766   1.268   0.845
    1MUSC Al0K911703   3.685   1.432   0.343
    1MUSC Al0KA11704   3.679   1.737   0.344
    1MUSC Al0KB11705   4.031   1.432   3.355
    1MUSC Al0KC11706   3.854   1.737   1.346
    1MUSC Al0KD11707   3.946   0.979   0.343
    1MUSC Al0KE11708   3.939   1.284   0.344
    1MUSC Al0KF11709   3.770   0.979   3.355
    1MUSC Al0KG11710   3.594   1.284   1.346
    1MUSC Si0eH11711   3.861   1.747   3.621
    1MUSC Si0eI11712   3.503   1.422   1.080
    1MUSC Si0eJ11713   3.855   1.747   0.077
    1MUSC Si0eK11714   4.030   1.422   0.610
    1MUSC Si0eL11715   3.602   1.591   0.077
    1MUSC Si0eM11716   3.763   1.577   0.610
    1MUSC Si0eN11717   4.114   1.591   3.620
    1MUSC Si0eO11718   3.770   1.577   1.081
    1MUSC Si0eP11719   4.121   1.294   3.621
    1MUSC Si0eQ11720   3.763   0.969   1.080
    1MUSC Si0eR11721   3.595   1.294   0.077
    1MUSC Si0eS11722   3.769   0.969   0.610
    1MUSC Si0eT11723   3.862   1.139   0.077
    1MUSC Si0eU11724   4.023   1.124   0.610
    1MUSC Si0eV11725   3.854   1.139   3.620
    1MUSC Si0eW11726   3.510   1.124   1.081
    1MUSC O01wn11727   3.624   1.580   0.236
    1MUSC O01wo11728   3.740   1.588   0.451
    1MUSC O01wp11729   4.092   1.580   3.461
    1MUSC O01wq11730   3.792   1.588   1.240
    1MUSC O01wr11731   3.879   1.400   3.453
    1MUSC O01ws11732   3.485   1.768   1.248
    1MUSC O01wt11733   3.837   1.400   0.245
    1MUSC O01wu11734   4.048   1.768   0.442
    1MUSC O01wv11735   3.739   1.649   3.672
    1MUSC O01ww11736   3.625   1.520   1.029
    1MUSC O01wx11737   3.977   1.649   0.025
    1MUSC O01wy11738   3.908   1.520   0.662
    1MUSC O01wz11739   3.718   1.686   0.006
    1MUSC O01x011740   3.647   1.483   0.681
    1MUSC O01x111741   3.998   1.686   3.692
    1MUSC O01x211742   3.886   1.483   1.009
    1MUSC O01x311743   3.618   1.442   0.006
    1MUSC O01x411744   3.746   1.726   0.681
    1MUSC O01x511745   4.098   1.442   3.691
    1MUSC O01x611746   3.786   1.726   1.010
    1MUSC O01x711747   3.879   1.758   3.461
    1MUSC O01x811748   3.485   1.410   1.240
    1MUSC O01x911749   3.837   1.758   0.236
    1MUSC O01xA11750   4.048   1.410   0.451
    1MUSC O01xB11751   3.884   1.127   0.236
    1MUSC O01xC11752   4.001   1.136   0.451
    1MUSC O01xD11753   3.832   1.127   3.461
    1MUSC O01xE11754   3.532   1.136   1.240
    1MUSC O01xF11755   4.139   0.948   3.453
    1MUSC O01xG11756   3.745   1.316   1.248
    1MUSC O01xH11757   3.576   0.948   0.245
    1MUSC O01xI11758   3.788   1.316   0.442
    1MUSC O01xJ11759   3.999   1.196   3.672
    1MUSC O01xK11760   3.885   1.067   1.029
    1MUSC O01xL11761   3.717   1.196   0.025
    1MUSC O01xM11762   3.647   1.067   0.662
    1MUSC O01xN11763   3.978   1.233   0.006
    1MUSC O01xO11764   3.907   1.030   0.681
    1MUSC O01xP11765   3.738   1.233   3.692
    1MUSC O01xQ11766   3.626   1.030   1.009
    1MUSC O01xR11767   3.878   0.990   0.006
    1MUSC O01xS11768   4.007   1.274   0.681
    1MUSC O01xT11769   3.838   0.990   3.691
    1MUSC O01xU11770   3.526   1.274   1.010
    1MUSC O01xV11771   4.139   1.306   3.461
    1MUSC O01xW11772   3.745   0.958   1.240
    1MUSC O01xX11773   3.576   1.306   0.236
    1MUSC O01xY11774   3.788   0.958   0.451
    1MUSC K007b11775   3.675   1.448   1.849
    1MUSC K007c11776   3.323   1.720   2.852
    1MUSC K007d11777   3.415   0.996   1.849
    1MUSC K007e11778   3.583   1.268   2.852
    1MUSC Al0KH11779   3.502   1.432   2.350
    1MUSC Al0KI11780   3.496   1.737   2.351
    1MUSC Al0KJ11781   3.848   1.432   1.348
    1MUSC Al0KK11782   3.671   1.737   3.353
    1MUSC Al0KL11783   3.763   0.979   2.350
    1MUSC Al0KM11784   3.756   1.284   2.351
    1MUSC Al0KN11785   3.587   0.979   1.348
    1MUSC Al0KO11786   3.411   1.284   3.353
    1MUSC Si0eX11787   3.678   1.747   1.614
    1MUSC Si0eY11788   3.320   1.422   3.087
    1MUSC Si0eZ11789   3.672   1.747   2.084
    1MUSC Si0ea11790   3.847   1.422   2.617
    1MUSC Si0eb11791   3.419   1.591   2.084
    1MUSC Si0ec11792   3.580   1.577   2.617
    1MUSC Si0ed11793   3.931   1.591   1.613
    1MUSC Si0ee11794   3.587   1.577   3.088
    1MUSC Si0ef11795   3.938   1.294   1.614
    1MUSC Si0eg11796   3.580   0.969   3.087
    1MUSC Si0eh11797   3.412   1.294   2.084
    1MUSC Si0ei11798   3.586   0.969   2.617
    1MUSC Si0ej11799   3.679   1.139   2.084
    1MUSC Si0ek11800   3.840   1.124   2.617
    1MUSC Si0el11801   3.671   1.139   1.613
    1MUSC Si0em11802   3.327   1.124   3.088
    1MUSC O01xZ11803   3.441   1.580   2.243
    1MUSC O01xa11804   3.557   1.588   2.458
    1MUSC O01xb11805   3.909   1.580   1.454
    1MUSC O01xc11806   3.609   1.588   3.247
    1MUSC O01xd11807   3.696   1.400   1.446
    1MUSC O01xe11808   3.302   1.768   3.255
    1MUSC O01xf11809   3.654   1.400   2.252
    1MUSC O01xg11810   3.865   1.768   2.449
    1MUSC O01xh11811   3.556   1.649   1.665
    1MUSC O01xi11812   3.442   1.520   3.036
    1MUSC O01xj11813   3.794   1.649   2.032
    1MUSC O01xk11814   3.725   1.520   2.669
    1MUSC O01xl11815   3.535   1.686   2.013
    1MUSC O01xm11816   3.464   1.483   2.688
    1MUSC O01xn11817   3.815   1.686   1.685
    1MUSC O01xo11818   3.703   1.483   3.016
    1MUSC O01xp11819   3.435   1.442   2.013
    1MUSC O01xq11820   3.563   1.726   2.688
    1MUSC O01xr11821   3.915   1.442   1.684
    1MUSC O01xs11822   3.603   1.726   3.017
    1MUSC O01xt11823   3.696   1.758   1.454
    1MUSC O01xu11824   3.302   1.410   3.247
    1MUSC O01xv11825   3.654   1.758   2.243
    1MUSC O01xw11826   3.865   1.410   2.458
    1MUSC O01xx11827   3.701   1.127   2.243
    1MUSC O01xy11828   3.818   1.136   2.458
    1MUSC O01xz11829   3.649   1.127   1.454
    1MUSC O01y011830   3.349   1.136   3.247
    1MUSC O01y111831   3.956   0.948   1.446
    1MUSC O01y211832   3.562   1.316   3.255
    1MUSC O01y311833   3.393   0.948   2.252
    1MUSC O01y411834   3.605   1.316   2.449
    1MUSC O01y511835   3.816   1.196   1.665
    1MUSC O01y611836   3.702   1.067   3.036
    1MUSC O01y711837   3.534   1.196   2.032
    1MUSC O01y811838   3.464   1.067   2.669
    1MUSC O01y911839   3.795   1.233   2.013
    1MUSC O01yA11840   3.724   1.030   2.688
    1MUSC O01yB11841   3.555   1.233   1.685
    1MUSC O01yC11842   3.443   1.030   3.016
    1MUSC O01yD11843   3.695   0.990   2.013
    1MUSC O01yE11844   3.824   1.274   2.688
    1MUSC O01yF11845   3.655   0.990   1.684
    1MUSC O01yG11846   3.343   1.274   3.017
    1MUSC O01yH11847   3.956   1.306   1.454
    1MUSC O01yI11848   3.562   0.958   3.247
    1MUSC O01yJ11849   3.393   1.306   2.243
    1MUSC O01yK11850   3.605   0.958   2.458
    1MUSC K007f11851   3.506   2.626   0.845
    1MUSC K007g11852   3.766   2.173   0.845
    1MUSC Al0KP11853   3.685   2.337   0.343
    1MUSC Al0KQ11854   3.679   2.642   0.344
    1MUSC Al0KR11855   4.031   2.337   3.355
    1MUSC Al0KS11856   3.854   2.642   1.346
    1MUSC Al0KT11857   3.946   1.884   0.343
    1MUSC Al0KU11858   3.939   2.189   0.344
    1MUSC Al0KV11859   3.770   1.884   3.355
    1MUSC Al0KW11860   3.594   2.189   1.346
    1MUSC Si0en11861   3.861   2.652   3.621
    1MUSC Si0eo11862   3.503   2.327   1.080
    1MUSC Si0ep11863   3.855   2.652   0.077
    1MUSC Si0eq11864   4.030   2.327   0.610
    1MUSC Si0er11865   3.602   2.497   0.077
    1MUSC Si0es11866   3.763   2.482   0.610
    1MUSC Si0et11867   4.114   2.497   3.620
    1MUSC Si0eu11868   3.770   2.482   1.081
    1MUSC Si0ev11869   4.121   2.199   3.621
    1MUSC Si0ew11870   3.763   1.874   1.080
    1MUSC Si0ex11871   3.595   2.199   0.077
    1MUSC Si0ey11872   3.769   1.874   0.610
    1MUSC Si0ez11873   3.862   2.044   0.077
    1MUSC Si0f011874   4.023   2.030   0.610
    1MUSC Si0f111875   3.854   2.044   3.620
    1MUSC Si0f211876   3.510   2.030   1.081
    1MUSC O01yL11877   3.624   2.485   0.236
    1MUSC O01yM11878   3.740   2.494   0.451
    1MUSC O01yN11879   4.092   2.485   3.461
    1MUSC O01yO11880   3.792   2.494   1.240
    1MUSC O01yP11881   3.879   2.305   3.453
    1MUSC O01yQ11882   3.485   2.674   1.248
    1MUSC O01yR11883   3.837   2.305   0.245
    1MUSC O01yS11884   4.048   2.674   0.442
    1MUSC O01yT11885   3.739   2.554   3.672
    1MUSC O01yU11886   3.625   2.425   1.029
    1MUSC O01yV11887   3.977   2.554   0.025
    1MUSC O01yW11888   3.908   2.425   0.662
    1MUSC O01yX11889   3.718   2.591   0.006
    1MUSC O01yY11890   3.647   2.388   0.681
    1MUSC O01yZ11891   3.998   2.591   3.692
    1MUSC O01ya11892   3.886   2.388   1.009
    1MUSC O01yb11893   3.618   2.347   0.006
    1MUSC O01yc11894   3.746   2.632   0.681
    1MUSC O01yd11895   4.098   2.347   3.691
    1MUSC O01ye11896   3.786   2.632   1.010
    1MUSC O01yf11897   3.879   2.663   3.461
    1MUSC O01yg11898   3.485   2.316   1.240
    1MUSC O01yh11899   3.837   2.663   0.236
    1MUSC O01yi11900   4.048   2.316   0.451
    1MUSC O01yj11901   3.884   2.033   0.236
    1MUSC O01yk11902   4.001   2.041   0.451
    1MUSC O01yl11903   3.832   2.033   3.461
    1MUSC O01ym11904   3.532   2.041   1.240
    1MUSC O01yn11905   4.139   1.853   3.453
    1MUSC O01yo11906   3.745   2.221   1.248
    1MUSC O01yp11907   3.576   1.853   0.245
    1MUSC O01yq11908   3.788   2.221   0.442
    1MUSC O01yr11909   3.999   2.101   3.672
    1MUSC O01ys11910   3.885   1.972   1.029
    1MUSC O01yt11911   3.717   2.101   0.025
    1MUSC O01yu11912   3.647   1.972   0.662
    1MUSC O01yv11913   3.978   2.139   0.006
    1MUSC O01yw11914   3.907   1.935   0.681
    1MUSC O01yx11915   3.738   2.139   3.692
    1MUSC O01yy11916   3.626   1.935   1.009
    1MUSC O01yz11917   3.878   1.895   0.006
    1MUSC O01z011918   4.007   2.179   0.681
    1MUSC O01z111919   3.838   1.895   3.691
    1MUSC O01z211920   3.526   2.179   1.010
    1MUSC O01z311921   4.139   2.211   3.461
    1MUSC O01z411922   3.745   1.863   1.240
    1MUSC O01z511923   3.576   2.211   0.236
    1MUSC O01z611924   3.788   1.863   0.451
    1MUSC K007h11925   3.675   2.353   1.849
    1MUSC K007i11926   3.323   2.626   2.852
    1MUSC K007j11927   3.415   1.901   1.849
    1MUSC K007k11928   3.583   2.173   2.852
    1MUSC Al0KX11929   3.502   2.337   2.350
    1MUSC Al0KY11930   3.496   2.642   2.351
    1MUSC Al0KZ11931   3.848   2.337   1.348
    1MUSC Al0Ka11932   3.671   2.642   3.353
    1MUSC Al0Kb11933   3.763   1.884   2.350
    1MUSC Al0Kc11934   3.756   2.189   2.351
    1MUSC Al0Kd11935   3.587   1.884   1.348
    1MUSC Al0Ke11936   3.411   2.189   3.353
    1MUSC Si0f311937   3.678   2.652   1.614
    1MUSC Si0f411938   3.320   2.327   3.087
    1MUSC Si0f511939   3.672   2.652   2.084
    1MUSC Si0f611940   3.847   2.327   2.617
    1MUSC Si0f711941   3.419   2.497   2.084
    1MUSC Si0f811942   3.580   2.482   2.617
    1MUSC Si0f911943   3.931   2.497   1.613
    1MUSC Si0fA11944   3.587   2.482   3.088
    1MUSC Si0fB11945   3.938   2.199   1.614
    1MUSC Si0fC11946   3.580   1.874   3.087
    1MUSC Si0fD11947   3.412   2.199   2.084
    1MUSC Si0fE11948   3.586   1.874   2.617
    1MUSC Si0fF11949   3.679   2.044   2.084
    1MUSC Si0fG11950   3.840   2.030   2.617
    1MUSC Si0fH11951   3.671   2.044   1.613
    1MUSC Si0fI11952   3.327   2.030   3.088
    1MUSC O01z711953   3.441   2.485   2.243
    1MUSC O01z811954   3.557   2.494   2.458
    1MUSC O01z911955   3.909   2.485   1.454
    1MUSC O01zA11956   3.609   2.494   3.247
    1MUSC O01zB11957   3.696   2.305   1.446
    1MUSC O01zC11958   3.302   2.674   3.255
    1MUSC O01zD11959   3.654   2.305   2.252
    1MUSC O01zE11960   3.865   2.674   2.449
    1MUSC O01zF11961   3.556   2.554   1.665
    1MUSC O01zG11962   3.442   2.425   3.036
    1MUSC O01zH11963   3.794   2.554   2.032
    1MUSC O01zI11964   3.725   2.425   2.669
    1MUSC O01zJ11965   3.535   2.591   2.013
    1MUSC O01zK11966   3.464   2.388   2.688
    1MUSC O01zL11967   3.815   2.591   1.685
    1MUSC O01zM11968   3.703   2.388   3.016
    1MUSC O01zN11969   3.435   2.347   2.013
    1MUSC O01zO11970   3.563   2.632   2.688
    1MUSC O01zP11971   3.915   2.347   1.684
    1MUSC O01zQ11972   3.603   2.632   3.017
    1MUSC O01zR11973   3.696   2.663   1.454
    1MUSC O01zS11974   3.302   2.316   3.247
    1MUSC O01zT11975   3.654   2.663   2.243
    1MUSC O01zU11976   3.865   2.316   2.458
    1MUSC O01zV11977   3.701   2.033   2.243
    1MUSC O01zW11978   3.818   2.041   2.458
    1MUSC O01zX11979   3.649   2.033   1.454
    1MUSC O01zY11980   3.349   2.041   3.247
    1MUSC O01zZ11981   3.956   1.853   1.446
    1MUSC O01za11982   3.562   2.221   3.255
    1MUSC O01zb11983   3.393   1.853   2.252
    1MUSC O01zc11984   3.605   2.221   2.449
    1MUSC O01zd11985   3.816   2.101   1.665
    1MUSC O01ze11986   3.702   1.972   3.036
    1MUSC O01zf11987   3.534   2.101   2.032
    1MUSC O01zg11988   3.464   1.972   2.669
    1MUSC O01zh11989   3.795   2.139   2.013
    1MUSC O01zi11990   3.724   1.935   2.688
    1MUSC O01zj11991   3.555   2.139   1.685
    1MUSC O01zk11992   3.443   1.935   3.016
    1MUSC O01zl11993   3.695   1.895   2.013
    1MUSC O01zm11994   3.824   2.179   2.688
    1MUSC O01zn11995   3.655   1.895   1.684
    1MUSC O01zo11996   3.343   2.179   3.017
    1MUSC O01zp11997   3.956   2.211   1.454
    1MUSC O01zq11998   3.562   1.863   3.247
    1MUSC O01zr11999   3.393   2.211   2.243
    1MUSC O01zs12000   3.605   1.863   2.458
    1MUSC K007l12001   3.506   3.531   0.845
    1MUSC K007m12002   3.766   3.078   0.845
    1MUSC Al0Kf12003   3.685   3.242   0.343
    1MUSC Al0Kg12004   3.679   3.547   0.344
    1MUSC Al0Kh12005   4.031   3.242   3.355
    1MUSC Al0Ki12006   3.854   3.547   1.346
    1MUSC Al0Kj12007   3.946   2.790   0.343
    1MUSC Al0Kk12008   3.939   3.095   0.344
    1MUSC Al0Kl12009   3.770   2.790   3.355
    1MUSC Al0Km12010   3.594   3.095   1.346
    1MUSC Si0fJ12011   3.861   3.557   3.621
    1MUSC Si0fK12012   3.503   3.232   1.080
    1MUSC Si0fL12013   3.855   3.557   0.077
    1MUSC Si0fM12014   4.030   3.232   0.610
    1MUSC Si0fN12015   3.602   3.402   0.077
    1MUSC Si0fO12016   3.763   3.388   0.610
    1MUSC Si0fP12017   4.114   3.402   3.620
    1MUSC Si0fQ12018   3.770   3.388   1.081
    1MUSC Si0fR12019   4.121   3.105   3.621
    1MUSC Si0fS12020   3.763   2.780   1.080
    1MUSC Si0fT12021   3.595   3.105   0.077
    1MUSC Si0fU12022   3.769   2.780   0.610
    1MUSC Si0fV12023   3.862   2.949   0.077
    1MUSC Si0fW12024   4.023   2.935   0.610
    1MUSC Si0fX12025   3.854   2.949   3.620
    1MUSC Si0fY12026   3.510   2.935   1.081
    1MUSC O01zt12027   3.624   3.391   0.236
    1MUSC O01zu12028   3.740   3.399   0.451
    1MUSC O01zv12029   4.092   3.391   3.461
    1MUSC O01zw12030   3.792   3.399   1.240
    1MUSC O01zx12031   3.879   3.211   3.453
    1MUSC O01zy12032   3.485   3.579   1.248
    1MUSC O01zz12033   3.837   3.211   0.245
    1MUSC O020012034   4.048   3.579   0.442
    1MUSC O020112035   3.739   3.459   3.672
    1MUSC O020212036   3.625   3.330   1.029
    1MUSC O020312037   3.977   3.459   0.025
    1MUSC O020412038   3.908   3.330   0.662
    1MUSC O020512039   3.718   3.496   0.006
    1MUSC O020612040   3.647   3.293   0.681
    1MUSC O020712041   3.998   3.496   3.692
    1MUSC O020812042   3.886   3.293   1.009
    1MUSC O020912043   3.618   3.253   0.006
    1MUSC O020A12044   3.746   3.537   0.681
    1MUSC O020B12045   4.098   3.253   3.691
    1MUSC O020C12046   3.786   3.537   1.010
    1MUSC O020D12047   3.879   3.569   3.461
    1MUSC O020E12048   3.485   3.221   1.240
    1MUSC O020F12049   3.837   3.569   0.236
    1MUSC O020G12050   4.048   3.221   0.451
    1MUSC O020H12051   3.884   2.938   0.236
    1MUSC O020I12052   4.001   2.946   0.451
    1MUSC O020J12053   3.832   2.938   3.461
    1MUSC O020K12054   3.532   2.946   1.240
    1MUSC O020L12055   4.139   2.758   3.453
    1MUSC O020M12056   3.745   3.126   1.248
    1MUSC O020N12057   3.576   2.758   0.245
    1MUSC O020O12058   3.788   3.126   0.442
    1MUSC O020P12059   3.999   3.007   3.672
    1MUSC O020Q12060   3.885   2.877   1.029
    1MUSC O020R12061   3.717   3.007   0.025
    1MUSC O020S12062   3.647   2.877   0.662
    1MUSC O020T12063   3.978   3.044   0.006
    1MUSC O020U12064   3.907   2.840   0.681
    1MUSC O020V12065   3.738   3.044   3.692
    1MUSC O020W12066   3.626   2.840   1.009
    1MUSC O020X12067   3.878   2.800   0.006
    1MUSC O020Y12068   4.007   3.084   0.681
    1MUSC O020Z12069   3.838   2.800   3.691
    1MUSC O020a12070   3.526   3.084   1.010
    1MUSC O020b12071   4.139   3.116   3.461
    1MUSC O020c12072   3.745   2.768   1.240
    1MUSC O020d12073   3.576   3.116   0.236
    1MUSC O020e12074   3.788   2.768   0.451
    1MUSC K007n12075   3.675   3.259   1.849
    1MUSC K007o12076   3.323   3.531   2.852
    1MUSC K007p12077   3.415   2.806   1.849
    1MUSC K007q12078   3.583   3.078   2.852
    1MUSC Al0Kn12079   3.502   3.242   2.350
    1MUSC Al0Ko12080   3.496   3.547   2.351
    1MUSC Al0Kp12081   3.848   3.242   1.348
    1MUSC Al0Kq12082   3.671   3.547   3.353
    1MUSC Al0Kr12083   3.763   2.790   2.350
    1MUSC Al0Ks12084   3.756   3.095   2.351
    1MUSC Al0Kt12085   3.587   2.790   1.348
    1MUSC Al0Ku12086   3.411   3.095   3.353
    1MUSC Si0fZ12087   3.678   3.557   1.614
    1MUSC Si0fa12088   3.320   3.232   3.087
    1MUSC Si0fb12089   3.672   3.557   2.084
    1MUSC Si0fc12090   3.847   3.232   2.617
    1MUSC Si0fd12091   3.419   3.402   2.084
    1MUSC Si0fe12092   3.580   3.388   2.617
    1MUSC Si0ff12093   3.931   3.402   1.613
    1MUSC Si0fg12094   3.587   3.388   3.088
    1MUSC Si0fh12095   3.938   3.105   1.614
    1MUSC Si0fi12096   3.580   2.780   3.087
    1MUSC Si0fj12097   3.412   3.105   2.084
    1MUSC Si0fk12098   3.586   2.780   2.617
    1MUSC Si0fl12099   3.679   2.949   2.084
    1MUSC Si0fm12100   3.840   2.935   2.617
    1MUSC Si0fn12101   3.671   2.949   1.613
    1MUSC Si0fo12102   3.327   2.935   3.088
    1MUSC O020f12103   3.441   3.391   2.243
    1MUSC O020g12104   3.557   3.399   2.458
    1MUSC O020h12105   3.909   3.391   1.454
    1MUSC O020i12106   3.609   3.399   3.247
    1MUSC O020j12107   3.696   3.211   1.446
    1MUSC O020k12108   3.302   3.579   3.255
    1MUSC O020l12109   3.654   3.211   2.252
    1MUSC O020m12110   3.865   3.579   2.449
    1MUSC O020n12111   3.556   3.459   1.665
    1MUSC O020o12112   3.442   3.330   3.036
    1MUSC O020p12113   3.794   3.459   2.032
    1MUSC O020q12114   3.725   3.330   2.669
    1MUSC O020r12115   3.535   3.496   2.013
    1MUSC O020s12116   3.464   3.293   2.688
    1MUSC O020t12117   3.815   3.496   1.685
    1MUSC O020u12118   3.703   3.293   3.016
    1MUSC O020v12119   3.435   3.253   2.013
    1MUSC O020w12120   3.563   3.537   2.688
    1MUSC O020x12121   3.915   3.253   1.684
    1MUSC O020y12122   3.603   3.537   3.017
    1MUSC O020z12123   3.696   3.569   1.454
    1MUSC O021012124   3.302   3.221   3.247
    1MUSC O021112125   3.654   3.569   2.243
    1MUSC O021212126   3.865   3.221   2.458
    1MUSC O021312127   3.701   2.938   2.243
    1MUSC O021412128   3.818   2.946   2.458
    1MUSC O021512129   3.649   2.938   1.454
    1MUSC O021612130   3.349   2.946   3.247
    1MUSC O021712131   3.956   2.758   1.446
    1MUSC O021812132   3.562   3.126   3.255
    1MUSC O021912133   3.393   2.758   2.252
    1MUSC O021A12134   3.605   3.126   2.449
    1MUSC O021B12135   3.816   3.007   1.665
    1MUSC O021C12136   3.702   2.877   3.036
    1MUSC O021D12137   3.534   3.007   2.032
    1MUSC O021E12138   3.464   2.877   2.669
    1MUSC O021F12139   3.795   3.044   2.013
    1MUSC O021G12140   3.724   2.840   2.688
    1MUSC O021H12141   3.555   3.044   1.685
    1MUSC O021I12142   3.443   2.840   3.016
    1MUSC O021J12143   3.695   2.800   2.013
    1MUSC O021K12144   3.824   3.084   2.688
    1MUSC O021L12145   3.655   2.800   1.684
    1MUSC O021M12146   3.343   3.084   3.017
    1MUSC O021N12147   3.956   3.116   1.454
    1MUSC O021O12148   3.562   2.768   3.247
    1MUSC O021P12149   3.393   3.116   2.243
    1MUSC O021Q12150   3.605   2.768   2.458
    1MUSC K007r12151   3.506   4.436   0.845
    1MUSC K007s12152   3.766   3.983   0.845
    1MUSC Al0Kv12153   3.685   4.147   0.343
    1MUSC Al0Kw12154   3.679   4.453   0.344
    1MUSC Al0Kx12155   4.031   4.147   3.355
    1MUSC Al0Ky12156   3.854   4.453   1.346
    1MUSC Al0Kz12157   3.946   3.695   0.343
    1MUSC Al0L012158   3.939   4.000   0.344
    1MUSC Al0L112159   3.770   3.695   3.355
    1MUSC Al0L212160   3.594   4.000   1.346
    1MUSC Si0fp12161   3.861   4.462   3.621
    1MUSC Si0fq12162   3.503   4.138   1.080
    1MUSC Si0fr12163   3.855   4.462   0.077
    1MUSC Si0fs12164   4.030   4.138   0.610
    1MUSC Si0ft12165   3.602   4.307   0.077
    1MUSC Si0fu12166   3.763   4.293   0.610
    1MUSC Si0fv12167   4.114   4.307   3.620
    1MUSC Si0fw12168   3.770   4.293   1.081
    1MUSC Si0fx12169   4.121   4.010   3.621
    1MUSC Si0fy12170   3.763   3.685   1.080
    1MUSC Si0fz12171   3.595   4.010   0.077
    1MUSC Si0g012172   3.769   3.685   0.610
    1MUSC Si0g112173   3.862   3.855   0.077
    1MUSC Si0g212174   4.023   3.840   0.610
    1MUSC Si0g312175   3.854   3.855   3.620
    1MUSC Si0g412176   3.510   3.840   1.081
    1MUSC O021R12177   3.624   4.296   0.236
    1MUSC O021S12178   3.740   4.304   0.451
    1MUSC O021T12179   4.092   4.296   3.461
    1MUSC O021U12180   3.792   4.304   1.240
    1MUSC O021V12181   3.879   4.116   3.453
    1MUSC O021W12182   3.485   4.484   1.248
    1MUSC O021X12183   3.837   4.116   0.245
    1MUSC O021Y12184   4.048   4.484   0.442
    1MUSC O021Z12185   3.739   4.365   3.672
    1MUSC O021a12186   3.625   4.235   1.029
    1MUSC O021b12187   3.977   4.365   0.025
    1MUSC O021c12188   3.908   4.235   0.662
    1MUSC O021d12189   3.718   4.402   0.006
    1MUSC O021e12190   3.647   4.198   0.681
    1MUSC O021f12191   3.998   4.402   3.692
    1MUSC O021g12192   3.886   4.198   1.009
    1MUSC O021h12193   3.618   4.158   0.006
    1MUSC O021i12194   3.746   4.442   0.681
    1MUSC O021j12195   4.098   4.158   3.691
    1MUSC O021k12196   3.786   4.442   1.010
    1MUSC O021l12197   3.879   4.474   3.461
    1MUSC O021m12198   3.485   4.126   1.240
    1MUSC O021n12199   3.837   4.474   0.236
    1MUSC O021o12200   4.048   4.126   0.451
    1MUSC O021p12201   3.884   3.843   0.236
    1MUSC O021q12202   4.001   3.852   0.451
    1MUSC O021r12203   3.832   3.843   3.461
    1MUSC O021s12204   3.532   3.852   1.240
    1MUSC O021t12205   4.139   3.663   3.453
    1MUSC O021u12206   3.745   4.031   1.248
    1MUSC O021v12207   3.576   3.663   0.245
    1MUSC O021w12208   3.788   4.031   0.442
    1MUSC O021x12209   3.999   3.912   3.672
    1MUSC O021y12210   3.885   3.783   1.029
    1MUSC O021z12211   3.717   3.912   0.025
    1MUSC O022012212   3.647   3.783   0.662
    1MUSC O022112213   3.978   3.949   0.006
    1MUSC O022212214   3.907   3.746   0.681
    1MUSC O022312215   3.738   3.949   3.692
    1MUSC O022412216   3.626   3.746   1.009
    1MUSC O022512217   3.878   3.705   0.006
    1MUSC O022612218   4.007   3.989   0.681
    1MUSC O022712219   3.838   3.705   3.691
    1MUSC O022812220   3.526   3.989   1.010
    1MUSC O022912221   4.139   4.021   3.461
    1MUSC O022A12222   3.745   3.673   1.240
    1MUSC O022B12223   3.576   4.021   0.236
    1MUSC O022C12224   3.788   3.673   0.451
    1MUSC K007t12225   3.675   4.164   1.849
    1MUSC K007u12226   3.323   4.436   2.852
    1MUSC K007v12227   3.415   3.711   1.849
    1MUSC K007w12228   3.583   3.983   2.852
    1MUSC Al0L312229   3.502   4.147   2.350
    1MUSC Al0L412230   3.496   4.453   2.351
    1MUSC Al0L512231   3.848   4.147   1.348
    1MUSC Al0L612232   3.671   4.453   3.353
    1MUSC Al0L712233   3.763   3.695   2.350
    1MUSC Al0L812234   3.756   4.000   2.351
    1MUSC Al0L912235   3.587   3.695   1.348
    1MUSC Al0LA12236   3.411   4.000   3.353
    1MUSC Si0g512237   3.678   4.462   1.614
    1MUSC Si0g612238   3.320   4.138   3.087
    1MUSC Si0g712239   3.672   4.462   2.084
    1MUSC Si0g812240   3.847   4.138   2.617
    1MUSC Si0g912241   3.419   4.307   2.084
    1MUSC Si0gA12242   3.580   4.293   2.617
    1MUSC Si0gB12243   3.931   4.307   1.613
    1MUSC Si0gC12244   3.587   4.293   3.088
    1MUSC Si0gD12245   3.938   4.010   1.614
    1MUSC Si0gE12246   3.580   3.685   3.087
    1MUSC Si0gF12247   3.412   4.010   2.084
    1MUSC Si0gG12248   3.586   3.685   2.617
    1MUSC Si0gH12249   3.679   3.855   2.084
    1MUSC Si0gI12250   3.840   3.840   2.617
    1MUSC Si0gJ12251   3.671   3.855   1.613
    1MUSC Si0gK12252   3.327   3.840   3.088
    1MUSC O022D12253   3.441   4.296   2.243
    1MUSC O022E12254   3.557   4.304   2.458
    1MUSC O022F12255   3.909   4.296   1.454
    1MUSC O022G12256   3.609   4.304   3.247
    1MUSC O022H12257   3.696   4.116   1.446
    1MUSC O022I12258   3.302   4.484   3.255
    1MUSC O022J12259   3.654   4.116   2.252
    1MUSC O022K12260   3.865   4.484   2.449
    1MUSC O022L12261   3.556   4.365   1.665
    1MUSC O022M12262   3.442   4.235   3.036
    1MUSC O022N12263   3.794   4.365   2.032
    1MUSC O022O12264   3.725   4.235   2.669
    1MUSC O022P12265   3.535   4.402   2.013
    1MUSC O022Q12266   3.464   4.198   2.688
    1MUSC O022R12267   3.815   4.402   1.685
    1MUSC O022S12268   3.703   4.198   3.016
    1MUSC O022T12269   3.435   4.158   2.013
    1MUSC O022U12270   3.563   4.442   2.688
    1MUSC O022V12271   3.915   4.158   1.684
    1MUSC O022W12272   3.603   4.442   3.017
    1MUSC O022X12273   3.696   4.474   1.454
    1MUSC O022Y12274   3.302   4.126   3.247
    1MUSC O022Z12275   3.654   4.474   2.243
    1MUSC O022a12276   3.865   4.126   2.458
    1MUSC O022b12277   3.701   3.843   2.243
    1MUSC O022c12278   3.818   3.852   2.458
    1MUSC O022d12279   3.649   3.843   1.454
    1MUSC O022e12280   3.349   3.852   3.247
    1MUSC O022f12281   3.956   3.663   1.446
    1MUSC O022g12282   3.562   4.031   3.255
    1MUSC O022h12283   3.393   3.663   2.252
    1MUSC O022i12284   3.605   4.031   2.449
    1MUSC O022j12285   3.816   3.912   1.665
    1MUSC O022k12286   3.702   3.783   3.036
    1MUSC O022l12287   3.534   3.912   2.032
    1MUSC O022m12288   3.464   3.783   2.669
    1MUSC O022n12289   3.795   3.949   2.013
    1MUSC O022o12290   3.724   3.746   2.688
    1MUSC O022p12291   3.555   3.949   1.685
    1MUSC O022q12292   3.443   3.746   3.016
    1MUSC O022r12293   3.695   3.705   2.013
    1MUSC O022s12294   3.824   3.989   2.688
    1MUSC O022t12295   3.655   3.705   1.684
    1MUSC O022u12296   3.343   3.989   3.017
    1MUSC O022v12297   3.956   4.021   1.454
    1MUSC O022w12298   3.562   3.673   3.247
    1MUSC O022x12299   3.393   4.021   2.243
    1MUSC O022y12300   3.605   3.673   2.458
    1MUSC K007x12301   3.506   5.341   0.845
    1MUSC K007y12302   3.766   4.889   0.845
    1MUSC Al0LB12303   3.685   5.053   0.343
    1MUSC Al0LC12304   3.679   5.358   0.344
    1MUSC Al0LD12305   4.031   5.053   3.355
    1MUSC Al0LE12306   3.854   5.358   1.346
    1MUSC Al0LF12307   3.946   4.600   0.343
    1MUSC Al0LG12308   3.939   4.905   0.344
    1MUSC Al0LH12309   3.770   4.600   3.355
    1MUSC Al0LI12310   3.594   4.905   1.346
    1MUSC Si0gL12311   3.861   5.368   3.621
    1MUSC Si0gM12312   3.503   5.043   1.080
    1MUSC Si0gN12313   3.855   5.368   0.077
    1MUSC Si0gO12314   4.030   5.043   0.610
    1MUSC Si0gP12315   3.602   5.212   0.077
    1MUSC Si0gQ12316   3.763   5.198   0.610
    1MUSC Si0gR12317   4.114   5.212   3.620
    1MUSC Si0gS12318   3.770   5.198   1.081
    1MUSC Si0gT12319   4.121   4.915   3.621
    1MUSC Si0gU12320   3.763   4.590   1.080
    1MUSC Si0gV12321   3.595   4.915   0.077
    1MUSC Si0gW12322   3.769   4.590   0.610
    1MUSC Si0gX12323   3.862   4.760   0.077
    1MUSC Si0gY12324   4.023   4.746   0.610
    1MUSC Si0gZ12325   3.854   4.760   3.620
    1MUSC Si0ga12326   3.510   4.746   1.081
    1MUSC O022z12327   3.624   5.201   0.236
    1MUSC O023012328   3.740   5.209   0.451
    1MUSC O023112329   4.092   5.201   3.461
    1MUSC O023212330   3.792   5.209   1.240
    1MUSC O023312331   3.879   5.021   3.453
    1MUSC O023412332   3.485   5.389   1.248
    1MUSC O023512333   3.837   5.021   0.245
    1MUSC O023612334   4.048   5.389   0.442
    1MUSC O023712335   3.739   5.270   3.672
    1MUSC O023812336   3.625   5.141   1.029
    1MUSC O023912337   3.977   5.270   0.025
    1MUSC O023A12338   3.908   5.141   0.662
    1MUSC O023B12339   3.718   5.307   0.006
    1MUSC O023C12340   3.647   5.104   0.681
    1MUSC O023D12341   3.998   5.307   3.692
    1MUSC O023E12342   3.886   5.104   1.009
    1MUSC O023F12343   3.618   5.063   0.006
    1MUSC O023G12344   3.746   5.347   0.681
    1MUSC O023H12345   4.098   5.063   3.691
    1MUSC O023I12346   3.786   5.347   1.010
    1MUSC O023J12347   3.879   5.379   3.461
    1MUSC O023K12348   3.485   5.031   1.240
    1MUSC O023L12349   3.837   5.379   0.236
    1MUSC O023M12350   4.048   5.031   0.451
    1MUSC O023N12351   3.884   4.749   0.236
    1MUSC O023O12352   4.001   4.757   0.451
    1MUSC O023P12353   3.832   4.749   3.461
    1MUSC O023Q12354   3.532   4.757   1.240
    1MUSC O023R12355   4.139   4.569   3.453
    1MUSC O023S12356   3.745   4.937   1.248
    1MUSC O023T12357   3.576   4.569   0.245
    1MUSC O023U12358   3.788   4.937   0.442
    1MUSC O023V12359   3.999   4.817   3.672
    1MUSC O023W12360   3.885   4.688   1.029
    1MUSC O023X12361   3.717   4.817   0.025
    1MUSC O023Y12362   3.647   4.688   0.662
    1MUSC O023Z12363   3.978   4.854   0.006
    1MUSC O023a12364   3.907   4.651   0.681
    1MUSC O023b12365   3.738   4.854   3.692
    1MUSC O023c12366   3.626   4.651   1.009
    1MUSC O023d12367   3.878   4.611   0.006
    1MUSC O023e12368   4.007   4.895   0.681
    1MUSC O023f12369   3.838   4.611   3.691
    1MUSC O023g12370   3.526   4.895   1.010
    1MUSC O023h12371   4.139   4.927   3.461
    1MUSC O023i12372   3.745   4.579   1.240
    1MUSC O023j12373   3.576   4.927   0.236
    1MUSC O023k12374   3.788   4.579   0.451
    1MUSC K007z12375   3.675   5.069   1.849
    1MUSC K008012376   3.323   5.341   2.852
    1MUSC K008112377   3.415   4.617   1.849
    1MUSC K008212378   3.583   4.889   2.852
    1MUSC Al0LJ12379   3.502   5.053   2.350
    1MUSC Al0LK12380   3.496   5.358   2.351
    1MUSC Al0LL12381   3.848   5.053   1.348
    1MUSC Al0LM12382   3.671   5.358   3.353
    1MUSC Al0LN12383   3.763   4.600   2.350
    1MUSC Al0LO12384   3.756   4.905   2.351
    1MUSC Al0LP12385   3.587   4.600   1.348
    1MUSC Al0LQ12386   3.411   4.905   3.353
    1MUSC Si0gb12387   3.678   5.368   1.614
    1MUSC Si0gc12388   3.320   5.043   3.087
    1MUSC Si0gd12389   3.672   5.368   2.084
    1MUSC Si0ge12390   3.847   5.043   2.617
    1MUSC Si0gf12391   3.419   5.212   2.084
    1MUSC Si0gg12392   3.580   5.198   2.617
    1MUSC Si0gh12393   3.931   5.212   1.613
    1MUSC Si0gi12394   3.587   5.198   3.088
    1MUSC Si0gj12395   3.938   4.915   1.614
    1MUSC Si0gk12396   3.580   4.590   3.087
    1MUSC Si0gl12397   3.412   4.915   2.084
    1MUSC Si0gm12398   3.586   4.590   2.617
    1MUSC Si0gn12399   3.679   4.760   2.084
    1MUSC Si0go12400   3.840   4.746   2.617
    1MUSC Si0gp12401   3.671   4.760   1.613
    1MUSC Si0gq12402   3.327   4.746   3.088
    1MUSC O023l12403   3.441   5.201   2.243
    1MUSC O023m12404   3.557   5.209   2.458
    1MUSC O023n12405   3.909   5.201   1.454
    1MUSC O023o12406   3.609   5.209   3.247
    1MUSC O023p12407   3.696   5.021   1.446
    1MUSC O023q12408   3.302   5.389   3.255
    1MUSC O023r12409   3.654   5.021   2.252
    1MUSC O023s12410   3.865   5.389   2.449
    1MUSC O023t12411   3.556   5.270   1.665
    1MUSC O023u12412   3.442   5.141   3.036
    1MUSC O023v12413   3.794   5.270   2.032
    1MUSC O023w12414   3.725   5.141   2.669
    1MUSC O023x12415   3.535   5.307   2.013
    1MUSC O023y12416   3.464   5.104   2.688
    1MUSC O023z12417   3.815   5.307   1.685
    1MUSC O024012418   3.703   5.104   3.016
    1MUSC O024112419   3.435   5.063   2.013
    1MUSC O024212420   3.563   5.347   2.688
    1MUSC O024312421   3.915   5.063   1.684
    1MUSC O024412422   3.603   5.347   3.017
    1MUSC O024512423   3.696   5.379   1.454
    1MUSC O024612424   3.302   5.031   3.247
    1MUSC O024712425   3.654   5.379   2.243
    1MUSC O024812426   3.865   5.031   2.458
    1MUSC O024912427   3.701   4.749   2.243
    1MUSC O024A12428   3.818   4.757   2.458
    1MUSC O024B12429   3.649   4.749   1.454
    1MUSC O024C12430   3.349   4.757   3.247
    1MUSC O024D12431   3.956   4.569   1.446
    1MUSC O024E12432   3.562   4.937   3.255
    1MUSC O024F12433   3.393   4.569   2.252
    1MUSC O024G12434   3.605   4.937   2.449
    1MUSC O024H12435   3.816   4.817   1.665
    1MUSC O024I12436   3.702   4.688   3.036
    1MUSC O024J12437   3.534   4.817   2.032
    1MUSC O024K12438   3.464   4.688   2.669
    1MUSC O024L12439   3.795   4.854   2.013
    1MUSC O024M12440   3.724   4.651   2.688
    1MUSC O024N12441   3.555   4.854   1.685
    1MUSC O024O12442   3.443   4.651   3.016
    1MUSC O024P12443   3.695   4.611   2.013
    1MUSC O024Q12444   3.824   4.895   2.688
    1MUSC O024R12445   3.655   4.611   1.684
    1MUSC O024S12446   3.343   4.895   3.017
    1MUSC O024T12447   3.956   4.927   1.454
    1MUSC O024U12448   3.562   4.579   3.247
    1MUSC O024V12449   3.393   4.927   2.243
    1MUSC O024W12450   3.605   4.579   2.458
    1MUSC K008312451   3.506   6.247   0.845
    1MUSC K008412452   3.766   5.794   0.845
    1MUSC Al0LR12453   3.685   5.958   0.343
    1MUSC Al0LS12454   3.679   6.263   0.344
    1MUSC Al0LT12455   4.031   5.958   3.355
    1MUSC Al0LU12456   3.854   6.263   1.346
    1MUSC Al0LV12457   3.946   5.505   0.343
    1MUSC Al0LW12458   3.939   5.810   0.344
    1MUSC Al0LX12459   3.770   5.505   3.355
    1MUSC Al0LY12460   3.594   5.810   1.346
    1MUSC Si0gr12461   3.861   6.273   3.621
    1MUSC Si0gs12462   3.503   5.948   1.080
    1MUSC Si0gt12463   3.855   6.273   0.077
    1MUSC Si0gu12464   4.030   5.948   0.610
    1MUSC Si0gv12465   3.602   6.118   0.077
    1MUSC Si0gw12466   3.763   6.103   0.610
    1MUSC Si0gx12467   4.114   6.118   3.620
    1MUSC Si0gy12468   3.770   6.103   1.081
    1MUSC Si0gz12469   4.121   5.820   3.621
    1MUSC Si0h012470   3.763   5.495   1.080
    1MUSC Si0h112471   3.595   5.820   0.077
    1MUSC Si0h212472   3.769   5.495   0.610
    1MUSC Si0h312473   3.862   5.665   0.077
    1MUSC Si0h412474   4.023   5.651   0.610
    1MUSC Si0h512475   3.854   5.665   3.620
    1MUSC Si0h612476   3.510   5.651   1.081
    1MUSC O024X12477   3.624   6.106   0.236
    1MUSC O024Y12478   3.740   6.115   0.451
    1MUSC O024Z12479   4.092   6.106   3.461
    1MUSC O024a12480   3.792   6.115   1.240
    1MUSC O024b12481   3.879   5.927   3.453
    1MUSC O024c12482   3.485   6.295   1.248
    1MUSC O024d12483   3.837   5.927   0.245
    1MUSC O024e12484   4.048   6.295   0.442
    1MUSC O024f12485   3.739   6.175   3.672
    1MUSC O024g12486   3.625   6.046   1.029
    1MUSC O024h12487   3.977   6.175   0.025
    1MUSC O024i12488   3.908   6.046   0.662
    1MUSC O024j12489   3.718   6.212   0.006
    1MUSC O024k12490   3.647   6.009   0.681
    1MUSC O024l12491   3.998   6.212   3.692
    1MUSC O024m12492   3.886   6.009   1.009
    1MUSC O024n12493   3.618   5.969   0.006
    1MUSC O024o12494   3.746   6.253   0.681
    1MUSC O024p12495   4.098   5.969   3.691
    1MUSC O024q12496   3.786   6.253   1.010
    1MUSC O024r12497   3.879   6.285   3.461
    1MUSC O024s12498   3.485   5.937   1.240
    1MUSC O024t12499   3.837   6.285   0.236
    1MUSC O024u12500   4.048   5.937   0.451
    1MUSC O024v12501   3.884   5.654   0.236
    1MUSC O024w12502   4.001   5.662   0.451
    1MUSC O024x12503   3.832   5.654   3.461
    1MUSC O024y12504   3.532   5.662   1.240
    1MUSC O024z12505   4.139   5.474   3.453
    1MUSC O025012506   3.745   5.842   1.248
    1MUSC O025112507   3.576   5.474   0.245
    1MUSC O025212508   3.788   5.842   0.442
    1MUSC O025312509   3.999   5.723   3.672
    1MUSC O025412510   3.885   5.593   1.029
    1MUSC O025512511   3.717   5.723   0.025
    1MUSC O025612512   3.647   5.593   0.662
    1MUSC O025712513   3.978   5.760   0.006
    1MUSC O025812514   3.907   5.556   0.681
    1MUSC O025912515   3.738   5.760   3.692
    1MUSC O025A12516   3.626   5.556   1.009
    1MUSC O025B12517   3.878   5.516   0.006
    1MUSC O025C12518   4.007   5.800   0.681
    1MUSC O025D12519   3.838   5.516   3.691
    1MUSC O025E12520   3.526   5.800   1.010
    1MUSC O025F12521   4.139   5.832   3.461
    1MUSC O025G12522   3.745   5.484   1.240
    1MUSC O025H12523   3.576   5.832   0.236
    1MUSC O025I12524   3.788   5.484   0.451
    1MUSC K008512525   3.675   5.975   1.849
    1MUSC K008612526   3.323   6.247   2.852
    1MUSC K008712527   3.415   5.522   1.849
    1MUSC K008812528   3.583   5.794   2.852
    1MUSC Al0LZ12529   3.502   5.958   2.350
    1MUSC Al0La12530   3.496   6.263   2.351
    1MUSC Al0Lb12531   3.848   5.958   1.348
    1MUSC Al0Lc12532   3.671   6.263   3.353
    1MUSC Al0Ld12533   3.763   5.505   2.350
    1MUSC Al0Le12534   3.756   5.810   2.351
    1MUSC Al0Lf12535   3.587   5.505   1.348
    1MUSC Al0Lg12536   3.411   5.810   3.353
    1MUSC Si0h712537   3.678   6.273   1.614
    1MUSC Si0h812538   3.320   5.948   3.087
    1MUSC Si0h912539   3.672   6.273   2.084
    1MUSC Si0hA12540   3.847   5.948   2.617
    1MUSC Si0hB12541   3.419   6.118   2.084
    1MUSC Si0hC12542   3.580   6.103   2.617
    1MUSC Si0hD12543   3.931   6.118   1.613
    1MUSC Si0hE12544   3.587   6.103   3.088
    1MUSC Si0hF12545   3.938   5.820   1.614
    1MUSC Si0hG12546   3.580   5.495   3.087
    1MUSC Si0hH12547   3.412   5.820   2.084
    1MUSC Si0hI12548   3.586   5.495   2.617
    1MUSC Si0hJ12549   3.679   5.665   2.084
    1MUSC Si0hK12550   3.840   5.651   2.617
    1MUSC Si0hL12551   3.671   5.665   1.613
    1MUSC Si0hM12552   3.327   5.651   3.088
    1MUSC O025J12553   3.441   6.106   2.243
    1MUSC O025K12554   3.557   6.115   2.458
    1MUSC O025L12555   3.909   6.106   1.454
    1MUSC O025M12556   3.609   6.115   3.247
    1MUSC O025N12557   3.696   5.927   1.446
    1MUSC O025O12558   3.302   6.295   3.255
    1MUSC O025P12559   3.654   5.927   2.252
    1MUSC O025Q12560   3.865   6.295   2.449
    1MUSC O025R12561   3.556   6.175   1.665
    1MUSC O025S12562   3.442   6.046   3.036
    1MUSC O025T12563   3.794   6.175   2.032
    1MUSC O025U12564   3.725   6.046   2.669
    1MUSC O025V12565   3.535   6.212   2.013
    1MUSC O025W12566   3.464   6.009   2.688
    1MUSC O025X12567   3.815   6.212   1.685
    1MUSC O025Y12568   3.703   6.009   3.016
    1MUSC O025Z12569   3.435   5.969   2.013
    1MUSC O025a12570   3.563   6.253   2.688
    1MUSC O025b12571   3.915   5.969   1.684
    1MUSC O025c12572   3.603   6.253   3.017
    1MUSC O025d12573   3.696   6.285   1.454
    1MUSC O025e12574   3.302   5.937   3.247
    1MUSC O025f12575   3.654   6.285   2.243
    1MUSC O025g12576   3.865   5.937   2.458
    1MUSC O025h12577   3.701   5.654   2.243
    1MUSC O025i12578   3.818   5.662   2.458
    1MUSC O025j12579   3.649   5.654   1.454
    1MUSC O025k12580   3.349   5.662   3.247
    1MUSC O025l12581   3.956   5.474   1.446
    1MUSC O025m12582   3.562   5.842   3.255
    1MUSC O025n12583   3.393   5.474   2.252
    1MUSC O025o12584   3.605   5.842   2.449
    1MUSC O025p12585   3.816   5.723   1.665
    1MUSC O025q12586   3.702   5.593   3.036
    1MUSC O025r12587   3.534   5.723   2.032
    1MUSC O025s12588   3.464   5.593   2.669
    1MUSC O025t12589   3.795   5.760   2.013
    1MUSC O025u12590   3.724   5.556   2.688
    1MUSC O025v12591   3.555   5.760   1.685
    1MUSC O025w12592   3.443   5.556   3.016
    1MUSC O025x12593   3.695   5.516   2.013
    1MUSC O025y12594   3.824   5.800   2.688
    1MUSC O025z12595   3.655   5.516   1.684
    1MUSC O026012596   3.343   5.800   3.017
    1MUSC O026112597   3.956   5.832   1.454
    1MUSC O026212598   3.562   5.484   3.247
    1MUSC O026312599   3.393   5.832   2.243
    1MUSC O026412600   3.605   5.484   2.458
    1MUSC K008912601   3.506   7.152   0.845
    1MUSC K008A12602   3.766   6.699   0.845
    1MUSC Al0Lh12603   3.685   6.863   0.343
    1MUSC Al0Li12604   3.679   7.168   0.344
    1MUSC Al0Lj12605   4.031   6.863   3.355
    1MUSC Al0Lk12606   3.854   7.168   1.346
    1MUSC Al0Ll12607   3.946   6.411   0.343
    1MUSC Al0Lm12608   3.939   6.716   0.344
    1MUSC Al0Ln12609   3.770   6.411   3.355
    1MUSC Al0Lo12610   3.594   6.716   1.346
    1MUSC Si0hN12611   3.861   7.178   3.621
    1MUSC Si0hO12612   3.503   6.853   1.080
    1MUSC Si0hP12613   3.855   7.178   0.077
    1MUSC Si0hQ12614   4.030   6.853   0.610
    1MUSC Si0hR12615   3.602   7.023   0.077
    1MUSC Si0hS12616   3.763   7.009   0.610
    1MUSC Si0hT12617   4.114   7.023   3.620
    1MUSC Si0hU12618   3.770   7.009   1.081
    1MUSC Si0hV12619   4.121   6.726   3.621
    1MUSC Si0hW12620   3.763   6.401   1.080
    1MUSC Si0hX12621   3.595   6.726   0.077
    1MUSC Si0hY12622   3.769   6.401   0.610
    1MUSC Si0hZ12623   3.862   6.570   0.077
    1MUSC Si0ha12624   4.023   6.556   0.610
    1MUSC Si0hb12625   3.854   6.570   3.620
    1MUSC Si0hc12626   3.510   6.556   1.081
    1MUSC O026512627   3.624   7.012   0.236
    1MUSC O026612628   3.740   7.020   0.451
    1MUSC O026712629   4.092   7.012   3.461
    1MUSC O026812630   3.792   7.020   1.240
    1MUSC O026912631   3.879   6.832   3.453
    1MUSC O026A12632   3.485   7.200   1.248
    1MUSC O026B12633   3.837   6.832   0.245
    1MUSC O026C12634   4.048   7.200   0.442
    1MUSC O026D12635   3.739   7.080   3.672
    1MUSC O026E12636   3.625   6.951   1.029
    1MUSC O026F12637   3.977   7.080   0.025
    1MUSC O026G12638   3.908   6.951   0.662
    1MUSC O026H12639   3.718   7.117   0.006
    1MUSC O026I12640   3.647   6.914   0.681
    1MUSC O026J12641   3.998   7.117   3.692
    1MUSC O026K12642   3.886   6.914   1.009
    1MUSC O026L12643   3.618   6.874   0.006
    1MUSC O026M12644   3.746   7.158   0.681
    1MUSC O026N12645   4.098   6.874   3.691
    1MUSC O026O12646   3.786   7.158   1.010
    1MUSC O026P12647   3.879   7.190   3.461
    1MUSC O026Q12648   3.485   6.842   1.240
    1MUSC O026R12649   3.837   7.190   0.236
    1MUSC O026S12650   4.048   6.842   0.451
    1MUSC O026T12651   3.884   6.559   0.236
    1MUSC O026U12652   4.001   6.567   0.451
    1MUSC O026V12653   3.832   6.559   3.461
    1MUSC O026W12654   3.532   6.567   1.240
    1MUSC O026X12655   4.139   6.379   3.453
    1MUSC O026Y12656   3.745   6.747   1.248
    1MUSC O026Z12657   3.576   6.379   0.245
    1MUSC O026a12658   3.788   6.747   0.442
    1MUSC O026b12659   3.999   6.628   3.672
    1MUSC O026c12660   3.885   6.499   1.029
    1MUSC O026d12661   3.717   6.628   0.025
    1MUSC O026e12662   3.647   6.499   0.662
    1MUSC O026f12663   3.978   6.665   0.006
    1MUSC O026g12664   3.907   6.462   0.681
    1MUSC O026h12665   3.738   6.665   3.692
    1MUSC O026i12666   3.626   6.462   1.009
    1MUSC O026j12667   3.878   6.421   0.006
    1MUSC O026k12668   4.007   6.705   0.681
    1MUSC O026l12669   3.838   6.421   3.691
    1MUSC O026m12670   3.526   6.705   1.010
    1MUSC O026n12671   4.139   6.737   3.461
    1MUSC O026o12672   3.745   6.389   1.240
    1MUSC O026p12673   3.576   6.737   0.236
    1MUSC O026q12674   3.788   6.389   0.451
    1MUSC K008B12675   3.675   6.880   1.849
    1MUSC K008C12676   3.323   7.152   2.852
    1MUSC K008D12677   3.415   6.427   1.849
    1MUSC K008E12678   3.583   6.699   2.852
    1MUSC Al0Lp12679   3.502   6.863   2.350
    1MUSC Al0Lq12680   3.496   7.168   2.351
    1MUSC Al0Lr12681   3.848   6.863   1.348
    1MUSC Al0Ls12682   3.671   7.168   3.353
    1MUSC Al0Lt12683   3.763   6.411   2.350
    1MUSC Al0Lu12684   3.756   6.716   2.351
    1MUSC Al0Lv12685   3.587   6.411   1.348
    1MUSC Al0Lw12686   3.411   6.716   3.353
    1MUSC Si0hd12687   3.678   7.178   1.614
    1MUSC Si0he12688   3.320   6.853   3.087
    1MUSC Si0hf12689   3.672   7.178   2.084
    1MUSC Si0hg12690   3.847   6.853   2.617
    1MUSC Si0hh12691   3.419   7.023   2.084
    1MUSC Si0hi12692   3.580   7.009   2.617
    1MUSC Si0hj12693   3.931   7.023   1.613
    1MUSC Si0hk12694   3.587   7.009   3.088
    1MUSC Si0hl12695   3.938   6.726   1.614
    1MUSC Si0hm12696   3.580   6.401   3.087
    1MUSC Si0hn12697   3.412   6.726   2.084
    1MUSC Si0ho12698   3.586   6.401   2.617
    1MUSC Si0hp12699   3.679   6.570   2.084
    1MUSC Si0hq12700   3.840   6.556   2.617
    1MUSC Si0hr12701   3.671   6.570   1.613
    1MUSC Si0hs12702   3.327   6.556   3.088
    1MUSC O026r12703   3.441   7.012   2.243
    1MUSC O026s12704   3.557   7.020   2.458
    1MUSC O026t12705   3.909   7.012   1.454
    1MUSC O026u12706   3.609   7.020   3.247
    1MUSC O026v12707   3.696   6.832   1.446
    1MUSC O026w12708   3.302   7.200   3.255
    1MUSC O026x12709   3.654   6.832   2.252
    1MUSC O026y12710   3.865   7.200   2.449
    1MUSC O026z12711   3.556   7.080   1.665
    1MUSC O027012712   3.442   6.951   3.036
    1MUSC O027112713   3.794   7.080   2.032
    1MUSC O027212714   3.725   6.951   2.669
    1MUSC O027312715   3.535   7.117   2.013
    1MUSC O027412716   3.464   6.914   2.688
    1MUSC O027512717   3.815   7.117   1.685
    1MUSC O027612718   3.703   6.914   3.016
    1MUSC O027712719   3.435   6.874   2.013
    1MUSC O027812720   3.563   7.158   2.688
    1MUSC O027912721   3.915   6.874   1.684
    1MUSC O027A12722   3.603   7.158   3.017
    1MUSC O027B12723   3.696   7.190   1.454
    1MUSC O027C12724   3.302   6.842   3.247
    1MUSC O027D12725   3.654   7.190   2.243
    1MUSC O027E12726   3.865   6.842   2.458
    1MUSC O027F12727   3.701   6.559   2.243
    1MUSC O027G12728   3.818   6.567   2.458
    1MUSC O027H12729   3.649   6.559   1.454
    1MUSC O027I12730   3.349   6.567   3.247
    1MUSC O027J12731   3.956   6.379   1.446
    1MUSC O027K12732   3.562   6.747   3.255
    1MUSC O027L12733   3.393   6.379   2.252
    1MUSC O027M12734   3.605   6.747   2.449
    1MUSC O027N12735   3.816   6.628   1.665
    1MUSC O027O12736   3.702   6.499   3.036
    1MUSC O027P12737   3.534   6.628   2.032
    1MUSC O027Q12738   3.464   6.499   2.669
    1MUSC O027R12739   3.795   6.665   2.013
    1MUSC O027S12740   3.724   6.462   2.688
    1MUSC O027T12741   3.555   6.665   1.685
    1MUSC O027U12742   3.443   6.462   3.016
    1MUSC O027V12743   3.695   6.421   2.013
    1MUSC O027W12744   3.824   6.705   2.688
    1MUSC O027X12745   3.655   6.421   1.684
    1MUSC O027Y12746   3.343   6.705   3.017
    1MUSC O027Z12747   3.956   6.737   1.454
    1MUSC O027a12748   3.562   6.389   3.247
    1MUSC O027b12749   3.393   6.737   2.243
    1MUSC O027c12750   3.605   6.389   2.458
    1MUSC K008F12751   3.506   8.057   0.845
    1MUSC K008G12752   3.766   7.605   0.845
    1MUSC Al0Lx12753   3.685   7.769   0.343
    1MUSC Al0Ly12754   3.679   8.074   0.344
    1MUSC Al0Lz12755   4.031   7.769   3.355
    1MUSC Al0M012756   3.854   8.074   1.346
    1MUSC Al0M112757   3.946   7.316   0.343
    1MUSC Al0M212758   3.939   7.621   0.344
    1MUSC Al0M312759   3.770   7.316   3.355
    1MUSC Al0M412760   3.594   7.621   1.346
    1MUSC Si0ht12761   3.861   8.084   3.621
    1MUSC Si0hu12762   3.503   7.759   1.080
    1MUSC Si0hv12763   3.855   8.084   0.077
    1MUSC Si0hw12764   4.030   7.759   0.610
    1MUSC Si0hx12765   3.602   7.928   0.077
    1MUSC Si0hy12766   3.763   7.914   0.610
    1MUSC Si0hz12767   4.114   7.928   3.620
    1MUSC Si0i012768   3.770   7.914   1.081
    1MUSC Si0i112769   4.121   7.631   3.621
    1MUSC Si0i212770   3.763   7.306   1.080
    1MUSC Si0i312771   3.595   7.631   0.077
    1MUSC Si0i412772   3.769   7.306   0.610
    1MUSC Si0i512773   3.862   7.476   0.077
    1MUSC Si0i612774   4.023   7.461   0.610
    1MUSC Si0i712775   3.854   7.476   3.620
    1MUSC Si0i812776   3.510   7.461   1.081
    1MUSC O027d12777   3.624   7.917   0.236
    1MUSC O027e12778   3.740   7.925   0.451
    1MUSC O027f12779   4.092   7.917   3.461
    1MUSC O027g12780   3.792   7.925   1.240
    1MUSC O027h12781   3.879   7.737   3.453
    1MUSC O027i12782   3.485   8.105   1.248
    1MUSC O027j12783   3.837   7.737   0.245
    1MUSC O027k12784   4.048   8.105   0.442
    1MUSC O027l12785   3.739   7.986   3.672
    1MUSC O027m12786   3.625   7.856   1.029
    1MUSC O027n12787   3.977   7.986   0.025
    1MUSC O027o12788   3.908   7.856   0.662
    1MUSC O027p12789   3.718   8.023   0.006
    1MUSC O027q12790   3.647   7.819   0.681
    1MUSC O027r12791   3.998   8.023   3.692
    1MUSC O027s12792   3.886   7.819   1.009
    1MUSC O027t12793   3.618   7.779   0.006
    1MUSC O027u12794   3.746   8.063   0.681
    1MUSC O027v12795   4.098   7.779   3.691
    1MUSC O027w12796   3.786   8.063   1.010
    1MUSC O027x12797   3.879   8.095   3.461
    1MUSC O027y12798   3.485   7.747   1.240
    1MUSC O027z12799   3.837   8.095   0.236
    1MUSC O028012800   4.048   7.747   0.451
    1MUSC O028112801   3.884   7.464   0.236
    1MUSC O028212802   4.001   7.473   0.451
    1MUSC O028312803   3.832   7.464   3.461
    1MUSC O028412804   3.532   7.473   1.240
    1MUSC O028512805   4.139   7.284   3.453
    1MUSC O028612806   3.745   7.653   1.248
    1MUSC O028712807   3.576   7.284   0.245
    1MUSC O028812808   3.788   7.653   0.442
    1MUSC O028912809   3.999   7.533   3.672
    1MUSC O028A12810   3.885   7.404   1.029
    1MUSC O028B12811   3.717   7.533   0.025
    1MUSC O028C12812   3.647   7.404   0.662
    1MUSC O028D12813   3.978   7.570   0.006
    1MUSC O028E12814   3.907   7.367   0.681
    1MUSC O028F12815   3.738   7.570   3.692
    1MUSC O028G12816   3.626   7.367   1.009
    1MUSC O028H12817   3.878   7.326   0.006
    1MUSC O028I12818   4.007   7.611   0.681
    1MUSC O028J12819   3.838   7.326   3.691
    1MUSC O028K12820   3.526   7.611   1.010
    1MUSC O028L12821   4.139   7.642   3.461
    1MUSC O028M12822   3.745   7.295   1.240
    1MUSC O028N12823   3.576   7.642   0.236
    1MUSC O028O12824   3.788   7.295   0.451
    1MUSC K008H12825   3.675   7.785   1.849
    1MUSC K008I12826   3.323   8.057   2.852
    1MUSC K008J12827   3.415   7.332   1.849
    1MUSC K008K12828   3.583   7.605   2.852
    1MUSC Al0M512829   3.502   7.769   2.350
    1MUSC Al0M612830   3.496   8.074   2.351
    1MUSC Al0M712831   3.848   7.769   1.348
    1MUSC Al0M812832   3.671   8.074   3.353
    1MUSC Al0M912833   3.763   7.316   2.350
    1MUSC Al0MA12834   3.756   7.621   2.351
    1MUSC Al0MB12835   3.587   7.316   1.348
    1MUSC Al0MC12836   3.411   7.621   3.353
    1MUSC Si0i912837   3.678   8.084   1.614
    1MUSC Si0iA12838   3.320   7.759   3.087
    1MUSC Si0iB12839   3.672   8.084   2.084
    1MUSC Si0iC12840   3.847   7.759   2.617
    1MUSC Si0iD12841   3.419   7.928   2.084
    1MUSC Si0iE12842   3.580   7.914   2.617
    1MUSC Si0iF12843   3.931   7.928   1.613
    1MUSC Si0iG12844   3.587   7.914   3.088
    1MUSC Si0iH12845   3.938   7.631   1.614
    1MUSC Si0iI12846   3.580   7.306   3.087
    1MUSC Si0iJ12847   3.412   7.631   2.084
    1MUSC Si0iK12848   3.586   7.306   2.617
    1MUSC Si0iL12849   3.679   7.476   2.084
    1MUSC Si0iM12850   3.840   7.461   2.617
    1MUSC Si0iN12851   3.671   7.476   1.613
    1MUSC Si0iO12852   3.327   7.461   3.088
    1MUSC O028P12853   3.441   7.917   2.243
    1MUSC O028Q12854   3.557   7.925   2.458
    1MUSC O028R12855   3.909   7.917   1.454
    1MUSC O028S12856   3.609   7.925   3.247
    1MUSC O028T12857   3.696   7.737   1.446
    1MUSC O028U12858   3.302   8.105   3.255
    1MUSC O028V12859   3.654   7.737   2.252
    1MUSC O028W12860   3.865   8.105   2.449
    1MUSC O028X12861   3.556   7.986   1.665
    1MUSC O028Y12862   3.442   7.856   3.036
    1MUSC O028Z12863   3.794   7.986   2.032
    1MUSC O028a12864   3.725   7.856   2.669
    1MUSC O028b12865   3.535   8.023   2.013
    1MUSC O028c12866   3.464   7.819   2.688
    1MUSC O028d12867   3.815   8.023   1.685
    1MUSC O028e12868   3.703   7.819   3.016
    1MUSC O028f12869   3.435   7.779   2.013
    1MUSC O028g12870   3.563   8.063   2.688
    1MUSC O028h12871   3.915   7.779   1.684
    1MUSC O028i12872   3.603   8.063   3.017
    1MUSC O028j12873   3.696   8.095   1.454
    1MUSC O028k12874   3.302   7.747   3.247
    1MUSC O028l12875   3.654   8.095   2.243
    1MUSC O028m12876   3.865   7.747   2.458
    1MUSC O028n12877   3.701   7.464   2.243
    1MUSC O028o12878   3.818   7.473   2.458
    1MUSC O028p12879   3.649   7.464   1.454
    1MUSC O028q12880   3.349   7.473   3.247
    1MUSC O028r12881   3.956   7.284   1.446
    1MUSC O028s12882   3.562   7.653   3.255
    1MUSC O028t12883   3.393   7.284   2.252
    1MUSC O028u12884   3.605   7.653   2.449
    1MUSC O028v12885   3.816   7.533   1.665
    1MUSC O028w12886   3.702   7.404   3.036
    1MUSC O028x12887   3.534   7.533   2.032
    1MUSC O028y12888   3.464   7.404   2.669
    1MUSC O028z12889   3.795   7.570   2.013
    1MUSC O029012890   3.724   7.367   2.688
    1MUSC O029112891   3.555   7.570   1.685
    1MUSC O029212892   3.443   7.367   3.016
    1MUSC O029312893   3.695   7.326   2.013
    1MUSC O029412894   3.824   7.611   2.688
    1MUSC O029512895   3.655   7.326   1.684
    1MUSC O029612896   3.343   7.611   3.017
    1MUSC O029712897   3.956   7.642   1.454
    1MUSC O029812898   3.562   7.295   3.247
    1MUSC O029912899   3.393   7.642   2.243
    1MUSC O029A12900   3.605   7.295   2.458
    1MUSC K008L12901   3.506   8.962   0.845
    1MUSC K008M12902   3.766   8.510   0.845
    1MUSC Al0MD12903   3.685   8.674   0.343
    1MUSC Al0ME12904   3.679   8.979   0.344
    1MUSC Al0MF12905   4.031   8.674   3.355
    1MUSC Al0MG12906   3.854   8.979   1.346
    1MUSC Al0MH12907   3.946   8.221   0.343
    1MUSC Al0MI12908   3.939   8.526   0.344
    1MUSC Al0MJ12909   3.770   8.221   3.355
    1MUSC Al0MK12910   3.594   8.526   1.346
    1MUSC Si0iP12911   3.861   8.989   3.621
    1MUSC Si0iQ12912   3.503   8.664   1.080
    1MUSC Si0iR12913   3.855   8.989   0.077
    1MUSC Si0iS12914   4.030   8.664   0.610
    1MUSC Si0iT12915   3.602   8.834   0.077
    1MUSC Si0iU12916   3.763   8.819   0.610
    1MUSC Si0iV12917   4.114   8.834   3.620
    1MUSC Si0iW12918   3.770   8.819   1.081
    1MUSC Si0iX12919   4.121   8.536   3.621
    1MUSC Si0iY12920   3.763   8.211   1.080
    1MUSC Si0iZ12921   3.595   8.536   0.077
    1MUSC Si0ia12922   3.769   8.211   0.610
    1MUSC Si0ib12923   3.862   8.381   0.077
    1MUSC Si0ic12924   4.023   8.367   0.610
    1MUSC Si0id12925   3.854   8.381   3.620
    1MUSC Si0ie12926   3.510   8.367   1.081
    1MUSC O029B12927   3.624   8.822   0.236
    1MUSC O029C12928   3.740   8.831   0.451
    1MUSC O029D12929   4.092   8.822   3.461
    1MUSC O029E12930   3.792   8.831   1.240
    1MUSC O029F12931   3.879   8.642   3.453
    1MUSC O029G12932   3.485   9.010   1.248
    1MUSC O029H12933   3.837   8.642   0.245
    1MUSC O029I12934   4.048   9.010   0.442
    1MUSC O029J12935   3.739   8.891   3.672
    1MUSC O029K12936   3.625   8.762   1.029
    1MUSC O029L12937   3.977   8.891   0.025
    1MUSC O029M12938   3.908   8.762   0.662
    1MUSC O029N12939   3.718   8.928   0.006
    1MUSC O029O12940   3.647   8.725   0.681
    1MUSC O029P12941   3.998   8.928   3.692
    1MUSC O029Q12942   3.886   8.725   1.009
    1MUSC O029R12943   3.618   8.684   0.006
    1MUSC O029S12944   3.746   8.968   0.681
    1MUSC O029T12945   4.098   8.684   3.691
    1MUSC O029U12946   3.786   8.968   1.010
    1MUSC O029V12947   3.879   9.000   3.461
    1MUSC O029W12948   3.485   8.652   1.240
    1MUSC O029X12949   3.837   9.000   0.236
    1MUSC O029Y12950   4.048   8.652   0.451
    1MUSC O029Z12951   3.884   8.370   0.236
    1MUSC O029a12952   4.001   8.378   0.451
    1MUSC O029b12953   3.832   8.370   3.461
    1MUSC O029c12954   3.532   8.378   1.240
    1MUSC O029d12955   4.139   8.190   3.453
    1MUSC O029e12956   3.745   8.558   1.248
    1MUSC O029f12957   3.576   8.190   0.245
    1MUSC O029g12958   3.788   8.558   0.442
    1MUSC O029h12959   3.999   8.438   3.672
    1MUSC O029i12960   3.885   8.309   1.029
    1MUSC O029j12961   3.717   8.438   0.025
    1MUSC O029k12962   3.647   8.309   0.662
    1MUSC O029l12963   3.978   8.475   0.006
    1MUSC O029m12964   3.907   8.272   0.681
    1MUSC O029n12965   3.738   8.475   3.692
    1MUSC O029o12966   3.626   8.272   1.009
    1MUSC O029p12967   3.878   8.232   0.006
    1MUSC O029q12968   4.007   8.516   0.681
    1MUSC O029r12969   3.838   8.232   3.691
    1MUSC O029s12970   3.526   8.516   1.010
    1MUSC O029t12971   4.139   8.548   3.461
    1MUSC O029u12972   3.745   8.200   1.240
    1MUSC O029v12973   3.576   8.548   0.236
    1MUSC O029w12974   3.788   8.200   0.451
    1MUSC K008N12975   3.675   8.690   1.849
    1MUSC K008O12976   3.323   8.962   2.852
    1MUSC K008P12977   3.415   8.238   1.849
    1MUSC K008Q12978   3.583   8.510   2.852
    1MUSC Al0ML12979   3.502   8.674   2.350
    1MUSC Al0MM12980   3.496   8.979   2.351
    1MUSC Al0MN12981   3.848   8.674   1.348
    1MUSC Al0MO12982   3.671   8.979   3.353
    1MUSC Al0MP12983   3.763   8.221   2.350
    1MUSC Al0MQ12984   3.756   8.526   2.351
    1MUSC Al0MR12985   3.587   8.221   1.348
    1MUSC Al0MS12986   3.411   8.526   3.353
    1MUSC Si0if12987   3.678   8.989   1.614
    1MUSC Si0ig12988   3.320   8.664   3.087
    1MUSC Si0ih12989   3.672   8.989   2.084
    1MUSC Si0ii12990   3.847   8.664   2.617
    1MUSC Si0ij12991   3.419   8.834   2.084
    1MUSC Si0ik12992   3.580   8.819   2.617
    1MUSC Si0il12993   3.931   8.834   1.613
    1MUSC Si0im12994   3.587   8.819   3.088
    1MUSC Si0in12995   3.938   8.536   1.614
    1MUSC Si0io12996   3.580   8.211   3.087
    1MUSC Si0ip12997   3.412   8.536   2.084
    1MUSC Si0iq12998   3.586   8.211   2.617
    1MUSC Si0ir12999   3.679   8.381   2.084
    1MUSC Si0is13000   3.840   8.367   2.617
    1MUSC Si0it13001   3.671   8.381   1.613
    1MUSC Si0iu13002   3.327   8.367   3.088
    1MUSC O029x13003   3.441   8.822   2.243
    1MUSC O029y13004   3.557   8.831   2.458
    1MUSC O029z13005   3.909   8.822   1.454
    1MUSC O02A013006   3.609   8.831   3.247
    1MUSC O02A113007   3.696   8.642   1.446
    1MUSC O02A213008   3.302   9.010   3.255
    1MUSC O02A313009   3.654   8.642   2.252
    1MUSC O02A413010   3.865   9.010   2.449
    1MUSC O02A513011   3.556   8.891   1.665
    1MUSC O02A613012   3.442   8.762   3.036
    1MUSC O02A713013   3.794   8.891   2.032
    1MUSC O02A813014   3.725   8.762   2.669
    1MUSC O02A913015   3.535   8.928   2.013
    1MUSC O02AA13016   3.464   8.725   2.688
    1MUSC O02AB13017   3.815   8.928   1.685
    1MUSC O02AC13018   3.703   8.725   3.016
    1MUSC O02AD13019   3.435   8.684   2.013
    1MUSC O02AE13020   3.563   8.968   2.688
    1MUSC O02AF13021   3.915   8.684   1.684
    1MUSC O02AG13022   3.603   8.968   3.017
    1MUSC O02AH13023   3.696   9.000   1.454
    1MUSC O02AI13024   3.302   8.652   3.247
    1MUSC O02AJ13025   3.654   9.000   2.243
    1MUSC O02AK13026   3.865   8.652   2.458
    1MUSC O02AL13027   3.701   8.370   2.243
    1MUSC O02AM13028   3.818   8.378   2.458
    1MUSC O02AN13029   3.649   8.370   1.454
    1MUSC O02AO13030   3.349   8.378   3.247
    1MUSC O02AP13031   3.956   8.190   1.446
    1MUSC O02AQ13032   3.562   8.558   3.255
    1MUSC O02AR13033   3.393   8.190   2.252
    1MUSC O02AS13034   3.605   8.558   2.449
    1MUSC O02AT13035   3.816   8.438   1.665
    1MUSC O02AU13036   3.702   8.309   3.036
    1MUSC O02AV13037   3.534   8.438   2.032
    1MUSC O02AW13038   3.464   8.309   2.669
    1MUSC O02AX13039   3.795   8.475   2.013
    1MUSC O02AY13040   3.724   8.272   2.688
    1MUSC O02AZ13041   3.555   8.475   1.685
    1MUSC O02Aa13042   3.443   8.272   3.016
    1MUSC O02Ab13043   3.695   8.232   2.013
    1MUSC O02Ac13044   3.824   8.516   2.688
    1MUSC O02Ad13045   3.655   8.232   1.684
    1MUSC O02Ae13046   3.343   8.516   3.017
    1MUSC O02Af13047   3.956   8.548   1.454
    1MUSC O02Ag13048   3.562   8.200   3.247
    1MUSC O02Ah13049   3.393   8.548   2.243
    1MUSC O02Ai13050   3.605   8.200   2.458
    1MUSC K008R13051   3.506   9.868   0.845
    1MUSC K008S13052   3.766   9.415   0.845
    1MUSC Al0MT13053   3.685   9.579   0.343
    1MUSC Al0MU13054   3.679   9.884   0.344
    1MUSC Al0MV13055   4.031   9.579   3.355
    1MUSC Al0MW13056   3.854   9.884   1.346
    1MUSC Al0MX13057   3.946   9.126   0.343
    1MUSC Al0MY13058   3.939   9.432   0.344
    1MUSC Al0MZ13059   3.770   9.126   3.355
    1MUSC Al0Ma13060   3.594   9.432   1.346
    1MUSC Si0iv13061   3.861   9.894   3.621
    1MUSC Si0iw13062   3.503   9.569   1.080
    1MUSC Si0ix13063   3.855   9.894   0.077
    1MUSC Si0iy13064   4.030   9.569   0.610
    1MUSC Si0iz13065   3.602   9.739   0.077
    1MUSC Si0j013066   3.763   9.724   0.610
    1MUSC Si0j113067   4.114   9.739   3.620
    1MUSC Si0j213068   3.770   9.724   1.081
    1MUSC Si0j313069   4.121   9.441   3.621
    1MUSC Si0j413070   3.763   9.117   1.080
    1MUSC Si0j513071   3.595   9.441   0.077
    1MUSC Si0j613072   3.769   9.117   0.610
    1MUSC Si0j713073   3.862   9.286   0.077
    1MUSC Si0j813074   4.023   9.272   0.610
    1MUSC Si0j913075   3.854   9.286   3.620
    1MUSC Si0jA13076   3.510   9.272   1.081
    1MUSC O02Aj13077   3.624   9.728   0.236
    1MUSC O02Ak13078   3.740   9.736   0.451
    1MUSC O02Al13079   4.092   9.728   3.461
    1MUSC O02Am13080   3.792   9.736   1.240
    1MUSC O02An13081   3.879   9.548   3.453
    1MUSC O02Ao13082   3.485   9.916   1.248
    1MUSC O02Ap13083   3.837   9.548   0.245
    1MUSC O02Aq13084   4.048   9.916   0.442
    1MUSC O02Ar13085   3.739   9.796   3.672
    1MUSC O02As13086   3.625   9.667   1.029
    1MUSC O02At13087   3.977   9.796   0.025
    1MUSC O02Au13088   3.908   9.667   0.662
    1MUSC O02Av13089   3.718   9.833   0.006
    1MUSC O02Aw13090   3.647   9.630   0.681
    1MUSC O02Ax13091   3.998   9.833   3.692
    1MUSC O02Ay13092   3.886   9.630   1.009
    1MUSC O02Az13093   3.618   9.590   0.006
    1MUSC O02B013094   3.746   9.874   0.681
    1MUSC O02B113095   4.098   9.590   3.691
    1MUSC O02B213096   3.786   9.874   1.010
    1MUSC O02B313097   3.879   9.906   3.461
    1MUSC O02B413098   3.485   9.558   1.240
    1MUSC O02B513099   3.837   9.906   0.236
    1MUSC O02B613100   4.048   9.558   0.451
    1MUSC O02B713101   3.884   9.275   0.236
    1MUSC O02B813102   4.001   9.283   0.451
    1MUSC O02B913103   3.832   9.275   3.461
    1MUSC O02BA13104   3.532   9.283   1.240
    1MUSC O02BB13105   4.139   9.095   3.453
    1MUSC O02BC13106   3.745   9.463   1.248
    1MUSC O02BD13107   3.576   9.095   0.245
    1MUSC O02BE13108   3.788   9.463   0.442
    1MUSC O02BF13109   3.999   9.344   3.672
    1MUSC O02BG13110   3.885   9.214   1.029
    1MUSC O02BH13111   3.717   9.344   0.025
    1MUSC O02BI13112   3.647   9.214   0.662
    1MUSC O02BJ13113   3.978   9.381   0.006
    1MUSC O02BK13114   3.907   9.177   0.681
    1MUSC O02BL13115   3.738   9.381   3.692
    1MUSC O02BM13116   3.626   9.177   1.009
    1MUSC O02BN13117   3.878   9.137   0.006
    1MUSC O02BO13118   4.007   9.421   0.681
    1MUSC O02BP13119   3.838   9.137   3.691
    1MUSC O02BQ13120   3.526   9.421   1.010
    1MUSC O02BR13121   4.139   9.453   3.461
    1MUSC O02BS13122   3.745   9.105   1.240
    1MUSC O02BT13123   3.576   9.453   0.236
    1MUSC O02BU13124   3.788   9.105   0.451
    1MUSC K008T13125   3.675   9.596   1.849
    1MUSC K008U13126   3.323   9.868   2.852
    1MUSC K008V13127   3.415   9.143   1.849
    1MUSC K008W13128   3.583   9.415   2.852
    1MUSC Al0Mb13129   3.502   9.579   2.350
    1MUSC Al0Mc13130   3.496   9.884   2.351
    1MUSC Al0Md13131   3.848   9.579   1.348
    1MUSC Al0Me13132   3.671   9.884   3.353
    1MUSC Al0Mf13133   3.763   9.126   2.350
    1MUSC Al0Mg13134   3.756   9.432   2.351
    1MUSC Al0Mh13135   3.587   9.126   1.348
    1MUSC Al0Mi13136   3.411   9.432   3.353
    1MUSC Si0jB13137   3.678   9.894   1.614
    1MUSC Si0jC13138   3.320   9.569   3.087
    1MUSC Si0jD13139   3.672   9.894   2.084
    1MUSC Si0jE13140   3.847   9.569   2.617
    1MUSC Si0jF13141   3.419   9.739   2.084
    1MUSC Si0jG13142   3.580   9.724   2.617
    1MUSC Si0jH13143   3.931   9.739   1.613
    1MUSC Si0jI13144   3.587   9.724   3.088
    1MUSC Si0jJ13145   3.938   9.441   1.614
    1MUSC Si0jK13146   3.580   9.117   3.087
    1MUSC Si0jL13147   3.412   9.441   2.084
    1MUSC Si0jM13148   3.586   9.117   2.617
    1MUSC Si0jN13149   3.679   9.286   2.084
    1MUSC Si0jO13150   3.840   9.272   2.617
    1MUSC Si0jP13151   3.671   9.286   1.613
    1MUSC Si0jQ13152   3.327   9.272   3.088
    1MUSC O02BV13153   3.441   9.728   2.243
    1MUSC O02BW13154   3.557   9.736   2.458
    1MUSC O02BX13155   3.909   9.728   1.454
    1MUSC O02BY13156   3.609   9.736   3.247
    1MUSC O02BZ13157   3.696   9.548   1.446
    1MUSC O02Ba13158   3.302   9.916   3.255
    1MUSC O02Bb13159   3.654   9.548   2.252
    1MUSC O02Bc13160   3.865   9.916   2.449
    1MUSC O02Bd13161   3.556   9.796   1.665
    1MUSC O02Be13162   3.442   9.667   3.036
    1MUSC O02Bf13163   3.794   9.796   2.032
    1MUSC O02Bg13164   3.725   9.667   2.669
    1MUSC O02Bh13165   3.535   9.833   2.013
    1MUSC O02Bi13166   3.464   9.630   2.688
    1MUSC O02Bj13167   3.815   9.833   1.685
    1MUSC O02Bk13168   3.703   9.630   3.016
    1MUSC O02Bl13169   3.435   9.590   2.013
    1MUSC O02Bm13170   3.563   9.874   2.688
    1MUSC O02Bn13171   3.915   9.590   1.684
    1MUSC O02Bo13172   3.603   9.874   3.017
    1MUSC O02Bp13173   3.696   9.906   1.454
    1MUSC O02Bq13174   3.302   9.558   3.247
    1MUSC O02Br13175   3.654   9.906   2.243
    1MUSC O02Bs13176   3.865   9.558   2.458
    1MUSC O02Bt13177   3.701   9.275   2.243
    1MUSC O02Bu13178   3.818   9.283   2.458
    1MUSC O02Bv13179   3.649   9.275   1.454
    1MUSC O02Bw13180   3.349   9.283   3.247
    1MUSC O02Bx13181   3.956   9.095   1.446
    1MUSC O02By13182   3.562   9.463   3.255
    1MUSC O02Bz13183   3.393   9.095   2.252
    1MUSC O02C013184   3.605   9.463   2.449
    1MUSC O02C113185   3.816   9.344   1.665
    1MUSC O02C213186   3.702   9.214   3.036
    1MUSC O02C313187   3.534   9.344   2.032
    1MUSC O02C413188   3.464   9.214   2.669
    1MUSC O02C513189   3.795   9.381   2.013
    1MUSC O02C613190   3.724   9.177   2.688
    1MUSC O02C713191   3.555   9.381   1.685
    1MUSC O02C813192   3.443   9.177   3.016
    1MUSC O02C913193   3.695   9.137   2.013
    1MUSC O02CA13194   3.824   9.421   2.688
    1MUSC O02CB13195   3.655   9.137   1.684
    1MUSC O02CC13196   3.343   9.421   3.017
    1MUSC O02CD13197   3.956   9.453   1.454
    1MUSC O02CE13198   3.562   9.105   3.247
    1MUSC O02CF13199   3.393   9.453   2.243
    1MUSC O02CG13200   3.605   9.105   2.458
    1MUSC K008X13201   4.027   0.815   0.845
    1MUSC K008Y13202   4.287   0.362   0.845
    1MUSC Al0Mj13203   4.206   0.526   0.343
    1MUSC Al0Mk13204   4.199   0.831   0.344
    1MUSC Al0Ml13205   4.551   0.526   3.355
    1MUSC Al0Mm13206   4.375   0.831   1.346
    1MUSC Al0Mn13207   4.466   0.074   0.343
    1MUSC Al0Mo13208   4.460   0.379   0.344
    1MUSC Al0Mp13209   4.291   0.074   3.355
    1MUSC Al0Mq13210   4.114   0.379   1.346
    1MUSC Si0jR13211   4.381   0.841   3.621
    1MUSC Si0jS13212   4.024   0.517   1.080
    1MUSC Si0jT13213   4.375   0.841   0.077
    1MUSC Si0jU13214   4.550   0.517   0.610
    1MUSC Si0jV13215   4.122   0.686   0.077
    1MUSC Si0jW13216   4.283   0.672   0.610
    1MUSC Si0jX13217   4.635   0.686   3.620
    1MUSC Si0jY13218   4.291   0.672   1.081
    1MUSC Si0jZ13219   4.642   0.389   3.621
    1MUSC Si0ja13220   4.284   0.064   1.080
    1MUSC Si0jb13221   4.115   0.389   0.077
    1MUSC Si0jc13222   4.290   0.064   0.610
    1MUSC Si0jd13223   4.382   0.233   0.077
    1MUSC Si0je13224   4.543   0.219   0.610
    1MUSC Si0jf13225   4.375   0.233   3.620
    1MUSC Si0jg13226   4.031   0.219   1.081
    1MUSC O02CH13227   4.144   0.675   0.236
    1MUSC O02CI13228   4.261   0.683   0.451
    1MUSC O02CJ13229   4.613   0.675   3.461
    1MUSC O02CK13230   4.313   0.683   1.240
    1MUSC O02CL13231   4.400   0.495   3.453
    1MUSC O02CM13232   4.005   0.863   1.248
    1MUSC O02CN13233   4.357   0.495   0.245
    1MUSC O02CO13234   4.568   0.863   0.442
    1MUSC O02CP13235   4.259   0.744   3.672
    1MUSC O02CQ13236   4.146   0.614   1.029
    1MUSC O02CR13237   4.497   0.744   0.025
    1MUSC O02CS13238   4.428   0.614   0.662
    1MUSC O02CT13239   4.238   0.781   0.006
    1MUSC O02CU13240   4.167   0.577   0.681
    1MUSC O02CV13241   4.519   0.781   3.692
    1MUSC O02CW13242   4.407   0.577   1.009
    1MUSC O02CX13243   4.138   0.537   0.006
    1MUSC O02CY13244   4.267   0.821   0.681
    1MUSC O02CZ13245   4.619   0.537   3.691
    1MUSC O02Ca13246   4.307   0.821   1.010
    1MUSC O02Cb13247   4.400   0.853   3.461
    1MUSC O02Cc13248   4.005   0.505   1.240
    1MUSC O02Cd13249   4.357   0.853   0.236
    1MUSC O02Ce13250   4.568   0.505   0.451
    1MUSC O02Cf13251   4.404   0.222   0.236
    1MUSC O02Cg13252   4.521   0.230   0.451
    1MUSC O02Ch13253   4.352   0.222   3.461
    1MUSC O02Ci13254   4.053   0.230   1.240
    1MUSC O02Cj13255   4.660   0.042   3.453
    1MUSC O02Ck13256   4.266   0.410   1.248
    1MUSC O02Cl13257   4.097   0.042   0.245
    1MUSC O02Cm13258   4.308   0.410   0.442
    1MUSC O02Cn13259   4.520   0.291   3.672
    1MUSC O02Co13260   4.406   0.162   1.029
    1MUSC O02Cp13261   4.237   0.291   0.025
    1MUSC O02Cq13262   4.168   0.162   0.662
    1MUSC O02Cr13263   4.498   0.328   0.006
    1MUSC O02Cs13264   4.427   0.125   0.681
    1MUSC O02Ct13265   4.259   0.328   3.692
    1MUSC O02Cu13266   4.147   0.125   1.009
    1MUSC O02Cv13267   4.398   0.084   0.006
    1MUSC O02Cw13268   4.527   0.368   0.681
    1MUSC O02Cx13269   4.358   0.084   3.691
    1MUSC O02Cy13270   4.047   0.368   1.010
    1MUSC O02Cz13271   4.660   0.400   3.461
    1MUSC O02D013272   4.266   0.052   1.240
    1MUSC O02D113273   4.097   0.400   0.236
    1MUSC O02D213274   4.308   0.052   0.451
    1MUSC K008Z13275   4.195   0.543   1.849
    1MUSC K008a13276   3.844   0.815   2.852
    1MUSC K008b13277   3.935   0.090   1.849
    1MUSC K008c13278   4.104   0.362   2.852
    1MUSC Al0Mr13279   4.023   0.526   2.350
    1MUSC Al0Ms13280   4.016   0.831   2.351
    1MUSC Al0Mt13281   4.368   0.526   1.348
    1MUSC Al0Mu13282   4.192   0.831   3.353
    1MUSC Al0Mv13283   4.283   0.074   2.350
    1MUSC Al0Mw13284   4.277   0.379   2.351
    1MUSC Al0Mx13285   4.108   0.074   1.348
    1MUSC Al0My13286   3.931   0.379   3.353
    1MUSC Si0jh13287   4.198   0.841   1.614
    1MUSC Si0ji13288   3.841   0.517   3.087
    1MUSC Si0jj13289   4.192   0.841   2.084
    1MUSC Si0jk13290   4.367   0.517   2.617
    1MUSC Si0jl13291   3.939   0.686   2.084
    1MUSC Si0jm13292   4.100   0.672   2.617
    1MUSC Si0jn13293   4.452   0.686   1.613
    1MUSC Si0jo13294   4.108   0.672   3.088
    1MUSC Si0jp13295   4.459   0.389   1.614
    1MUSC Si0jq13296   4.101   0.064   3.087
    1MUSC Si0jr13297   3.932   0.389   2.084
    1MUSC Si0js13298   4.107   0.064   2.617
    1MUSC Si0jt13299   4.199   0.233   2.084
    1MUSC Si0ju13300   4.360   0.219   2.617
    1MUSC Si0jv13301   4.192   0.233   1.613
    1MUSC Si0jw13302   3.848   0.219   3.088
    1MUSC O02D313303   3.961   0.675   2.243
    1MUSC O02D413304   4.078   0.683   2.458
    1MUSC O02D513305   4.430   0.675   1.454
    1MUSC O02D613306   4.130   0.683   3.247
    1MUSC O02D713307   4.217   0.495   1.446
    1MUSC O02D813308   3.822   0.863   3.255
    1MUSC O02D913309   4.174   0.495   2.252
    1MUSC O02DA13310   4.385   0.863   2.449
    1MUSC O02DB13311   4.076   0.744   1.665
    1MUSC O02DC13312   3.963   0.614   3.036
    1MUSC O02DD13313   4.314   0.744   2.032
    1MUSC O02DE13314   4.245   0.614   2.669
    1MUSC O02DF13315   4.055   0.781   2.013
    1MUSC O02DG13316   3.984   0.577   2.688
    1MUSC O02DH13317   4.336   0.781   1.685
    1MUSC O02DI13318   4.224   0.577   3.016
    1MUSC O02DJ13319   3.955   0.537   2.013
    1MUSC O02DK13320   4.084   0.821   2.688
    1MUSC O02DL13321   4.436   0.537   1.684
    1MUSC O02DM13322   4.124   0.821   3.017
    1MUSC O02DN13323   4.217   0.853   1.454
    1MUSC O02DO13324   3.822   0.505   3.247
    1MUSC O02DP13325   4.174   0.853   2.243
    1MUSC O02DQ13326   4.385   0.505   2.458
    1MUSC O02DR13327   4.221   0.222   2.243
    1MUSC O02DS13328   4.338   0.230   2.458
    1MUSC O02DT13329   4.169   0.222   1.454
    1MUSC O02DU13330   3.870   0.230   3.247
    1MUSC O02DV13331   4.477   0.042   1.446
    1MUSC O02DW13332   4.083   0.410   3.255
    1MUSC O02DX13333   3.914   0.042   2.252
    1MUSC O02DY13334   4.125   0.410   2.449
    1MUSC O02DZ13335   4.337   0.291   1.665
    1MUSC O02Da13336   4.223   0.162   3.036
    1MUSC O02Db13337   4.054   0.291   2.032
    1MUSC O02Dc13338   3.985   0.162   2.669
    1MUSC O02Dd13339   4.315   0.328   2.013
    1MUSC O02De13340   4.244   0.125   2.688
    1MUSC O02Df13341   4.076   0.328   1.685
    1MUSC O02Dg13342   3.964   0.125   3.016
    1MUSC O02Dh13343   4.215   0.084   2.013
    1MUSC O02Di13344   4.344   0.368   2.688
    1MUSC O02Dj13345   4.175   0.084   1.684
    1MUSC O02Dk13346   3.864   0.368   3.017
    1MUSC O02Dl13347   4.477   0.400   1.454
    1MUSC O02Dm13348   4.083   0.052   3.247
    1MUSC O02Dn13349   3.914   0.400   2.243
    1MUSC O02Do13350   4.125   0.052   2.458
    1MUSC K008d13351   4.027   1.720   0.845
    1MUSC K008e13352   4.287   1.268   0.845
    1MUSC Al0Mz13353   4.206   1.432   0.343
    1MUSC Al0N013354   4.199   1.737   0.344
    1MUSC Al0N113355   4.551   1.432   3.355
    1MUSC Al0N213356   4.375   1.737   1.346
    1MUSC Al0N313357   4.466   0.979   0.343
    1MUSC Al0N413358   4.460   1.284   0.344
    1MUSC Al0N513359   4.291   0.979   3.355
    1MUSC Al0N613360   4.114   1.284   1.346
    1MUSC Si0jx13361   4.381   1.747   3.621
    1MUSC Si0jy13362   4.024   1.422   1.080
    1MUSC Si0jz13363   4.375   1.747   0.077
    1MUSC Si0k013364   4.550   1.422   0.610
    1MUSC Si0k113365   4.122   1.591   0.077
    1MUSC Si0k213366   4.283   1.577   0.610
    1MUSC Si0k313367   4.635   1.591   3.620
    1MUSC Si0k413368   4.291   1.577   1.081
    1MUSC Si0k513369   4.642   1.294   3.621
    1MUSC Si0k613370   4.284   0.969   1.080
    1MUSC Si0k713371   4.115   1.294   0.077
    1MUSC Si0k813372   4.290   0.969   0.610
    1MUSC Si0k913373   4.382   1.139   0.077
    1MUSC Si0kA13374   4.543   1.124   0.610
    1MUSC Si0kB13375   4.375   1.139   3.620
    1MUSC Si0kC13376   4.031   1.124   1.081
    1MUSC O02Dp13377   4.144   1.580   0.236
    1MUSC O02Dq13378   4.261   1.588   0.451
    1MUSC O02Dr13379   4.613   1.580   3.461
    1MUSC O02Ds13380   4.313   1.588   1.240
    1MUSC O02Dt13381   4.400   1.400   3.453
    1MUSC O02Du13382   4.005   1.768   1.248
    1MUSC O02Dv13383   4.357   1.400   0.245
    1MUSC O02Dw13384   4.568   1.768   0.442
    1MUSC O02Dx13385   4.259   1.649   3.672
    1MUSC O02Dy13386   4.146   1.520   1.029
    1MUSC O02Dz13387   4.497   1.649   0.025
    1MUSC O02E013388   4.428   1.520   0.662
    1MUSC O02E113389   4.238   1.686   0.006
    1MUSC O02E213390   4.167   1.483   0.681
    1MUSC O02E313391   4.519   1.686   3.692
    1MUSC O02E413392   4.407   1.483   1.009
    1MUSC O02E513393   4.138   1.442   0.006
    1MUSC O02E613394   4.267   1.726   0.681
    1MUSC O02E713395   4.619   1.442   3.691
    1MUSC O02E813396   4.307   1.726   1.010
    1MUSC O02E913397   4.400   1.758   3.461
    1MUSC O02EA13398   4.005   1.410   1.240
    1MUSC O02EB13399   4.357   1.758   0.236
    1MUSC O02EC13400   4.568   1.410   0.451
    1MUSC O02ED13401   4.404   1.127   0.236
    1MUSC O02EE13402   4.521   1.136   0.451
    1MUSC O02EF13403   4.352   1.127   3.461
    1MUSC O02EG13404   4.053   1.136   1.240
    1MUSC O02EH13405   4.660   0.948   3.453
    1MUSC O02EI13406   4.266   1.316   1.248
    1MUSC O02EJ13407   4.097   0.948   0.245
    1MUSC O02EK13408   4.308   1.316   0.442
    1MUSC O02EL13409   4.520   1.196   3.672
    1MUSC O02EM13410   4.406   1.067   1.029
    1MUSC O02EN13411   4.237   1.196   0.025
    1MUSC O02EO13412   4.168   1.067   0.662
    1MUSC O02EP13413   4.498   1.233   0.006
    1MUSC O02EQ13414   4.427   1.030   0.681
    1MUSC O02ER13415   4.259   1.233   3.692
    1MUSC O02ES13416   4.147   1.030   1.009
    1MUSC O02ET13417   4.398   0.990   0.006
    1MUSC O02EU13418   4.527   1.274   0.681
    1MUSC O02EV13419   4.358   0.990   3.691
    1MUSC O02EW13420   4.047   1.274   1.010
    1MUSC O02EX13421   4.660   1.306   3.461
    1MUSC O02EY13422   4.266   0.958   1.240
    1MUSC O02EZ13423   4.097   1.306   0.236
    1MUSC O02Ea13424   4.308   0.958   0.451
    1MUSC K008f13425   4.195   1.448   1.849
    1MUSC K008g13426   3.844   1.720   2.852
    1MUSC K008h13427   3.935   0.996   1.849
    1MUSC K008i13428   4.104   1.268   2.852
    1MUSC Al0N713429   4.023   1.432   2.350
    1MUSC Al0N813430   4.016   1.737   2.351
    1MUSC Al0N913431   4.368   1.432   1.348
    1MUSC Al0NA13432   4.192   1.737   3.353
    1MUSC Al0NB13433   4.283   0.979   2.350
    1MUSC Al0NC13434   4.277   1.284   2.351
    1MUSC Al0ND13435   4.108   0.979   1.348
    1MUSC Al0NE13436   3.931   1.284   3.353
    1MUSC Si0kD13437   4.198   1.747   1.614
    1MUSC Si0kE13438   3.841   1.422   3.087
    1MUSC Si0kF13439   4.192   1.747   2.084
    1MUSC Si0kG13440   4.367   1.422   2.617
    1MUSC Si0kH13441   3.939   1.591   2.084
    1MUSC Si0kI13442   4.100   1.577   2.617
    1MUSC Si0kJ13443   4.452   1.591   1.613
    1MUSC Si0kK13444   4.108   1.577   3.088
    1MUSC Si0kL13445   4.459   1.294   1.614
    1MUSC Si0kM13446   4.101   0.969   3.087
    1MUSC Si0kN13447   3.932   1.294   2.084
    1MUSC Si0kO13448   4.107   0.969   2.617
    1MUSC Si0kP13449   4.199   1.139   2.084
    1MUSC Si0kQ13450   4.360   1.124   2.617
    1MUSC Si0kR13451   4.192   1.139   1.613
    1MUSC Si0kS13452   3.848   1.124   3.088
    1MUSC O02Eb13453   3.961   1.580   2.243
    1MUSC O02Ec13454   4.078   1.588   2.458
    1MUSC O02Ed13455   4.430   1.580   1.454
    1MUSC O02Ee13456   4.130   1.588   3.247
    1MUSC O02Ef13457   4.217   1.400   1.446
    1MUSC O02Eg13458   3.822   1.768   3.255
    1MUSC O02Eh13459   4.174   1.400   2.252
    1MUSC O02Ei13460   4.385   1.768   2.449
    1MUSC O02Ej13461   4.076   1.649   1.665
    1MUSC O02Ek13462   3.963   1.520   3.036
    1MUSC O02El13463   4.314   1.649   2.032
    1MUSC O02Em13464   4.245   1.520   2.669
    1MUSC O02En13465   4.055   1.686   2.013
    1MUSC O02Eo13466   3.984   1.483   2.688
    1MUSC O02Ep13467   4.336   1.686   1.685
    1MUSC O02Eq13468   4.224   1.483   3.016
    1MUSC O02Er13469   3.955   1.442   2.013
    1MUSC O02Es13470   4.084   1.726   2.688
    1MUSC O02Et13471   4.436   1.442   1.684
    1MUSC O02Eu13472   4.124   1.726   3.017
    1MUSC O02Ev13473   4.217   1.758   1.454
    1MUSC O02Ew13474   3.822   1.410   3.247
    1MUSC O02Ex13475   4.174   1.758   2.243
    1MUSC O02Ey13476   4.385   1.410   2.458
    1MUSC O02Ez13477   4.221   1.127   2.243
    1MUSC O02F013478   4.338   1.136   2.458
    1MUSC O02F113479   4.169   1.127   1.454
    1MUSC O02F213480   3.870   1.136   3.247
    1MUSC O02F313481   4.477   0.948   1.446
    1MUSC O02F413482   4.083   1.316   3.255
    1MUSC O02F513483   3.914   0.948   2.252
    1MUSC O02F613484   4.125   1.316   2.449
    1MUSC O02F713485   4.337   1.196   1.665
    1MUSC O02F813486   4.223   1.067   3.036
    1MUSC O02F913487   4.054   1.196   2.032
    1MUSC O02FA13488   3.985   1.067   2.669
    1MUSC O02FB13489   4.315   1.233   2.013
    1MUSC O02FC13490   4.244   1.030   2.688
    1MUSC O02FD13491   4.076   1.233   1.685
    1MUSC O02FE13492   3.964   1.030   3.016
    1MUSC O02FF13493   4.215   0.990   2.013
    1MUSC O02FG13494   4.344   1.274   2.688
    1MUSC O02FH13495   4.175   0.990   1.684
    1MUSC O02FI13496   3.864   1.274   3.017
    1MUSC O02FJ13497   4.477   1.306   1.454
    1MUSC O02FK13498   4.083   0.958   3.247
    1MUSC O02FL13499   3.914   1.306   2.243
    1MUSC O02FM13500   4.125   0.958   2.458
    1MUSC K008j13501   4.027   2.626   0.845
    1MUSC K008k13502   4.287   2.173   0.845
    1MUSC Al0NF13503   4.206   2.337   0.343
    1MUSC Al0NG13504   4.199   2.642   0.344
    1MUSC Al0NH13505   4.551   2.337   3.355
    1MUSC Al0NI13506   4.375   2.642   1.346
    1MUSC Al0NJ13507   4.466   1.884   0.343
    1MUSC Al0NK13508   4.460   2.189   0.344
    1MUSC Al0NL13509   4.291   1.884   3.355
    1MUSC Al0NM13510   4.114   2.189   1.346
    1MUSC Si0kT13511   4.381   2.652   3.621
    1MUSC Si0kU13512   4.024   2.327   1.080
    1MUSC Si0kV13513   4.375   2.652   0.077
    1MUSC Si0kW13514   4.550   2.327   0.610
    1MUSC Si0kX13515   4.122   2.497   0.077
    1MUSC Si0kY13516   4.283   2.482   0.610
    1MUSC Si0kZ13517   4.635   2.497   3.620
    1MUSC Si0ka13518   4.291   2.482   1.081
    1MUSC Si0kb13519   4.642   2.199   3.621
    1MUSC Si0kc13520   4.284   1.874   1.080
    1MUSC Si0kd13521   4.115   2.199   0.077
    1MUSC Si0ke13522   4.290   1.874   0.610
    1MUSC Si0kf13523   4.382   2.044   0.077
    1MUSC Si0kg13524   4.543   2.030   0.610
    1MUSC Si0kh13525   4.375   2.044   3.620
    1MUSC Si0ki13526   4.031   2.030   1.081
    1MUSC O02FN13527   4.144   2.485   0.236
    1MUSC O02FO13528   4.261   2.494   0.451
    1MUSC O02FP13529   4.613   2.485   3.461
    1MUSC O02FQ13530   4.313   2.494   1.240
    1MUSC O02FR13531   4.400   2.305   3.453
    1MUSC O02FS13532   4.005   2.674   1.248
    1MUSC O02FT13533   4.357   2.305   0.245
    1MUSC O02FU13534   4.568   2.674   0.442
    1MUSC O02FV13535   4.259   2.554   3.672
    1MUSC O02FW13536   4.146   2.425   1.029
    1MUSC O02FX13537   4.497   2.554   0.025
    1MUSC O02FY13538   4.428   2.425   0.662
    1MUSC O02FZ13539   4.238   2.591   0.006
    1MUSC O02Fa13540   4.167   2.388   0.681
    1MUSC O02Fb13541   4.519   2.591   3.692
    1MUSC O02Fc13542   4.407   2.388   1.009
    1MUSC O02Fd13543   4.138   2.347   0.006
    1MUSC O02Fe13544   4.267   2.632   0.681
    1MUSC O02Ff13545   4.619   2.347   3.691
    1MUSC O02Fg13546   4.307   2.632   1.010
    1MUSC O02Fh13547   4.400   2.663   3.461
    1MUSC O02Fi13548   4.005   2.316   1.240
    1MUSC O02Fj13549   4.357   2.663   0.236
    1MUSC O02Fk13550   4.568   2.316   0.451
    1MUSC O02Fl13551   4.404   2.033   0.236
    1MUSC O02Fm13552   4.521   2.041   0.451
    1MUSC O02Fn13553   4.352   2.033   3.461
    1MUSC O02Fo13554   4.053   2.041   1.240
    1MUSC O02Fp13555   4.660   1.853   3.453
    1MUSC O02Fq13556   4.266   2.221   1.248
    1MUSC O02Fr13557   4.097   1.853   0.245
    1MUSC O02Fs13558   4.308   2.221   0.442
    1MUSC O02Ft13559   4.520   2.101   3.672
    1MUSC O02Fu13560   4.406   1.972   1.029
    1MUSC O02Fv13561   4.237   2.101   0.025
    1MUSC O02Fw13562   4.168   1.972   0.662
    1MUSC O02Fx13563   4.498   2.139   0.006
    1MUSC O02Fy13564   4.427   1.935   0.681
    1MUSC O02Fz13565   4.259   2.139   3.692
    1MUSC O02G013566   4.147   1.935   1.009
    1MUSC O02G113567   4.398   1.895   0.006
    1MUSC O02G213568   4.527   2.179   0.681
    1MUSC O02G313569   4.358   1.895   3.691
    1MUSC O02G413570   4.047   2.179   1.010
    1MUSC O02G513571   4.660   2.211   3.461
    1MUSC O02G613572   4.266   1.863   1.240
    1MUSC O02G713573   4.097   2.211   0.236
    1MUSC O02G813574   4.308   1.863   0.451
    1MUSC K008l13575   4.195   2.353   1.849
    1MUSC K008m13576   3.844   2.626   2.852
    1MUSC K008n13577   3.935   1.901   1.849
    1MUSC K008o13578   4.104   2.173   2.852
    1MUSC Al0NN13579   4.023   2.337   2.350
    1MUSC Al0NO13580   4.016   2.642   2.351
    1MUSC Al0NP13581   4.368   2.337   1.348
    1MUSC Al0NQ13582   4.192   2.642   3.353
    1MUSC Al0NR13583   4.283   1.884   2.350
    1MUSC Al0NS13584   4.277   2.189   2.351
    1MUSC Al0NT13585   4.108   1.884   1.348
    1MUSC Al0NU13586   3.931   2.189   3.353
    1MUSC Si0kj13587   4.198   2.652   1.614
    1MUSC Si0kk13588   3.841   2.327   3.087
    1MUSC Si0kl13589   4.192   2.652   2.084
    1MUSC Si0km13590   4.367   2.327   2.617
    1MUSC Si0kn13591   3.939   2.497   2.084
    1MUSC Si0ko13592   4.100   2.482   2.617
    1MUSC Si0kp13593   4.452   2.497   1.613
    1MUSC Si0kq13594   4.108   2.482   3.088
    1MUSC Si0kr13595   4.459   2.199   1.614
    1MUSC Si0ks13596   4.101   1.874   3.087
    1MUSC Si0kt13597   3.932   2.199   2.084
    1MUSC Si0ku13598   4.107   1.874   2.617
    1MUSC Si0kv13599   4.199   2.044   2.084
    1MUSC Si0kw13600   4.360   2.030   2.617
    1MUSC Si0kx13601   4.192   2.044   1.613
    1MUSC Si0ky13602   3.848   2.030   3.088
    1MUSC O02G913603   3.961   2.485   2.243
    1MUSC O02GA13604   4.078   2.494   2.458
    1MUSC O02GB13605   4.430   2.485   1.454
    1MUSC O02GC13606   4.130   2.494   3.247
    1MUSC O02GD13607   4.217   2.305   1.446
    1MUSC O02GE13608   3.822   2.674   3.255
    1MUSC O02GF13609   4.174   2.305   2.252
    1MUSC O02GG13610   4.385   2.674   2.449
    1MUSC O02GH13611   4.076   2.554   1.665
    1MUSC O02GI13612   3.963   2.425   3.036
    1MUSC O02GJ13613   4.314   2.554   2.032
    1MUSC O02GK13614   4.245   2.425   2.669
    1MUSC O02GL13615   4.055   2.591   2.013
    1MUSC O02GM13616   3.984   2.388   2.688
    1MUSC O02GN13617   4.336   2.591   1.685
    1MUSC O02GO13618   4.224   2.388   3.016
    1MUSC O02GP13619   3.955   2.347   2.013
    1MUSC O02GQ13620   4.084   2.632   2.688
    1MUSC O02GR13621   4.436   2.347   1.684
    1MUSC O02GS13622   4.124   2.632   3.017
    1MUSC O02GT13623   4.217   2.663   1.454
    1MUSC O02GU13624   3.822   2.316   3.247
    1MUSC O02GV13625   4.174   2.663   2.243
    1MUSC O02GW13626   4.385   2.316   2.458
    1MUSC O02GX13627   4.221   2.033   2.243
    1MUSC O02GY13628   4.338   2.041   2.458
    1MUSC O02GZ13629   4.169   2.033   1.454
    1MUSC O02Ga13630   3.870   2.041   3.247
    1MUSC O02Gb13631   4.477   1.853   1.446
    1MUSC O02Gc13632   4.083   2.221   3.255
    1MUSC O02Gd13633   3.914   1.853   2.252
    1MUSC O02Ge13634   4.125   2.221   2.449
    1MUSC O02Gf13635   4.337   2.101   1.665
    1MUSC O02Gg13636   4.223   1.972   3.036
    1MUSC O02Gh13637   4.054   2.101   2.032
    1MUSC O02Gi13638   3.985   1.972   2.669
    1MUSC O02Gj13639   4.315   2.139   2.013
    1MUSC O02Gk13640   4.244   1.935   2.688
    1MUSC O02Gl13641   4.076   2.139   1.685
    1MUSC O02Gm13642   3.964   1.935   3.016
    1MUSC O02Gn13643   4.215   1.895   2.013
    1MUSC O02Go13644   4.344   2.179   2.688
    1MUSC O02Gp13645   4.175   1.895   1.684
    1MUSC O02Gq13646   3.864   2.179   3.017
    1MUSC O02Gr13647   4.477   2.211   1.454
    1MUSC O02Gs13648   4.083   1.863   3.247
    1MUSC O02Gt13649   3.914   2.211   2.243
    1MUSC O02Gu13650   4.125   1.863   2.458
    1MUSC K008p13651   4.027   3.531   0.845
    1MUSC K008q13652   4.287   3.078   0.845
    1MUSC Al0NV13653   4.206   3.242   0.343
    1MUSC Al0NW13654   4.199   3.547   0.344
    1MUSC Al0NX13655   4.551   3.242   3.355
    1MUSC Al0NY13656   4.375   3.547   1.346
    1MUSC Al0NZ13657   4.466   2.790   0.343
    1MUSC Al0Na13658   4.460   3.095   0.344
    1MUSC Al0Nb13659   4.291   2.790   3.355
    1MUSC Al0Nc13660   4.114   3.095   1.346
    1MUSC Si0kz13661   4.381   3.557   3.621
    1MUSC Si0l013662   4.024   3.232   1.080
    1MUSC Si0l113663   4.375   3.557   0.077
    1MUSC Si0l213664   4.550   3.232   0.610
    1MUSC Si0l313665   4.122   3.402   0.077
    1MUSC Si0l413666   4.283   3.388   0.610
    1MUSC Si0l513667   4.635   3.402   3.620
    1MUSC Si0l613668   4.291   3.388   1.081
    1MUSC Si0l713669   4.642   3.105   3.621
    1MUSC Si0l813670   4.284   2.780   1.080
    1MUSC Si0l913671   4.115   3.105   0.077
    1MUSC Si0lA13672   4.290   2.780   0.610
    1MUSC Si0lB13673   4.382   2.949   0.077
    1MUSC Si0lC13674   4.543   2.935   0.610
    1MUSC Si0lD13675   4.375   2.949   3.620
    1MUSC Si0lE13676   4.031   2.935   1.081
    1MUSC O02Gv13677   4.144   3.391   0.236
    1MUSC O02Gw13678   4.261   3.399   0.451
    1MUSC O02Gx13679   4.613   3.391   3.461
    1MUSC O02Gy13680   4.313   3.399   1.240
    1MUSC O02Gz13681   4.400   3.211   3.453
    1MUSC O02H013682   4.005   3.579   1.248
    1MUSC O02H113683   4.357   3.211   0.245
    1MUSC O02H213684   4.568   3.579   0.442
    1MUSC O02H313685   4.259   3.459   3.672
    1MUSC O02H413686   4.146   3.330   1.029
    1MUSC O02H513687   4.497   3.459   0.025
    1MUSC O02H613688   4.428   3.330   0.662
    1MUSC O02H713689   4.238   3.496   0.006
    1MUSC O02H813690   4.167   3.293   0.681
    1MUSC O02H913691   4.519   3.496   3.692
    1MUSC O02HA13692   4.407   3.293   1.009
    1MUSC O02HB13693   4.138   3.253   0.006
    1MUSC O02HC13694   4.267   3.537   0.681
    1MUSC O02HD13695   4.619   3.253   3.691
    1MUSC O02HE13696   4.307   3.537   1.010
    1MUSC O02HF13697   4.400   3.569   3.461
    1MUSC O02HG13698   4.005   3.221   1.240
    1MUSC O02HH13699   4.357   3.569   0.236
    1MUSC O02HI13700   4.568   3.221   0.451
    1MUSC O02HJ13701   4.404   2.938   0.236
    1MUSC O02HK13702   4.521   2.946   0.451
    1MUSC O02HL13703   4.352   2.938   3.461
    1MUSC O02HM13704   4.053   2.946   1.240
    1MUSC O02HN13705   4.660   2.758   3.453
    1MUSC O02HO13706   4.266   3.126   1.248
    1MUSC O02HP13707   4.097   2.758   0.245
    1MUSC O02HQ13708   4.308   3.126   0.442
    1MUSC O02HR13709   4.520   3.007   3.672
    1MUSC O02HS13710   4.406   2.877   1.029
    1MUSC O02HT13711   4.237   3.007   0.025
    1MUSC O02HU13712   4.168   2.877   0.662
    1MUSC O02HV13713   4.498   3.044   0.006
    1MUSC O02HW13714   4.427   2.840   0.681
    1MUSC O02HX13715   4.259   3.044   3.692
    1MUSC O02HY13716   4.147   2.840   1.009
    1MUSC O02HZ13717   4.398   2.800   0.006
    1MUSC O02Ha13718   4.527   3.084   0.681
    1MUSC O02Hb13719   4.358   2.800   3.691
    1MUSC O02Hc13720   4.047   3.084   1.010
    1MUSC O02Hd13721   4.660   3.116   3.461
    1MUSC O02He13722   4.266   2.768   1.240
    1MUSC O02Hf13723   4.097   3.116   0.236
    1MUSC O02Hg13724   4.308   2.768   0.451
    1MUSC K008r13725   4.195   3.259   1.849
    1MUSC K008s13726   3.844   3.531   2.852
    1MUSC K008t13727   3.935   2.806   1.849
    1MUSC K008u13728   4.104   3.078   2.852
    1MUSC Al0Nd13729   4.023   3.242   2.350
    1MUSC Al0Ne13730   4.016   3.547   2.351
    1MUSC Al0Nf13731   4.368   3.242   1.348
    1MUSC Al0Ng13732   4.192   3.547   3.353
    1MUSC Al0Nh13733   4.283   2.790   2.350
    1MUSC Al0Ni13734   4.277   3.095   2.351
    1MUSC Al0Nj13735   4.108   2.790   1.348
    1MUSC Al0Nk13736   3.931   3.095   3.353
    1MUSC Si0lF13737   4.198   3.557   1.614
    1MUSC Si0lG13738   3.841   3.232   3.087
    1MUSC Si0lH13739   4.192   3.557   2.084
    1MUSC Si0lI13740   4.367   3.232   2.617
    1MUSC Si0lJ13741   3.939   3.402   2.084
    1MUSC Si0lK13742   4.100   3.388   2.617
    1MUSC Si0lL13743   4.452   3.402   1.613
    1MUSC Si0lM13744   4.108   3.388   3.088
    1MUSC Si0lN13745   4.459   3.105   1.614
    1MUSC Si0lO13746   4.101   2.780   3.087
    1MUSC Si0lP13747   3.932   3.105   2.084
    1MUSC Si0lQ13748   4.107   2.780   2.617
    1MUSC Si0lR13749   4.199   2.949   2.084
    1MUSC Si0lS13750   4.360   2.935   2.617
    1MUSC Si0lT13751   4.192   2.949   1.613
    1MUSC Si0lU13752   3.848   2.935   3.088
    1MUSC O02Hh13753   3.961   3.391   2.243
    1MUSC O02Hi13754   4.078   3.399   2.458
    1MUSC O02Hj13755   4.430   3.391   1.454
    1MUSC O02Hk13756   4.130   3.399   3.247
    1MUSC O02Hl13757   4.217   3.211   1.446
    1MUSC O02Hm13758   3.822   3.579   3.255
    1MUSC O02Hn13759   4.174   3.211   2.252
    1MUSC O02Ho13760   4.385   3.579   2.449
    1MUSC O02Hp13761   4.076   3.459   1.665
    1MUSC O02Hq13762   3.963   3.330   3.036
    1MUSC O02Hr13763   4.314   3.459   2.032
    1MUSC O02Hs13764   4.245   3.330   2.669
    1MUSC O02Ht13765   4.055   3.496   2.013
    1MUSC O02Hu13766   3.984   3.293   2.688
    1MUSC O02Hv13767   4.336   3.496   1.685
    1MUSC O02Hw13768   4.224   3.293   3.016
    1MUSC O02Hx13769   3.955   3.253   2.013
    1MUSC O02Hy13770   4.084   3.537   2.688
    1MUSC O02Hz13771   4.436   3.253   1.684
    1MUSC O02I013772   4.124   3.537   3.017
    1MUSC O02I113773   4.217   3.569   1.454
    1MUSC O02I213774   3.822   3.221   3.247
    1MUSC O02I313775   4.174   3.569   2.243
    1MUSC O02I413776   4.385   3.221   2.458
    1MUSC O02I513777   4.221   2.938   2.243
    1MUSC O02I613778   4.338   2.946   2.458
    1MUSC O02I713779   4.169   2.938   1.454
    1MUSC O02I813780   3.870   2.946   3.247
    1MUSC O02I913781   4.477   2.758   1.446
    1MUSC O02IA13782   4.083   3.126   3.255
    1MUSC O02IB13783   3.914   2.758   2.252
    1MUSC O02IC13784   4.125   3.126   2.449
    1MUSC O02ID13785   4.337   3.007   1.665
    1MUSC O02IE13786   4.223   2.877   3.036
    1MUSC O02IF13787   4.054   3.007   2.032
    1MUSC O02IG13788   3.985   2.877   2.669
    1MUSC O02IH13789   4.315   3.044   2.013
    1MUSC O02II13790   4.244   2.840   2.688
    1MUSC O02IJ13791   4.076   3.044   1.685
    1MUSC O02IK13792   3.964   2.840   3.016
    1MUSC O02IL13793   4.215   2.800   2.013
    1MUSC O02IM13794   4.344   3.084   2.688
    1MUSC O02IN13795   4.175   2.800   1.684
    1MUSC O02IO13796   3.864   3.084   3.017
    1MUSC O02IP13797   4.477   3.116   1.454
    1MUSC O02IQ13798   4.083   2.768   3.247
    1MUSC O02IR13799   3.914   3.116   2.243
    1MUSC O02IS13800   4.125   2.768   2.458
    1MUSC K008v13801   4.027   4.436   0.845
    1MUSC K008w13802   4.287   3.983   0.845
    1MUSC Al0Nl13803   4.206   4.147   0.343
    1MUSC Al0Nm13804   4.199   4.453   0.344
    1MUSC Al0Nn13805   4.551   4.147   3.355
    1MUSC Al0No13806   4.375   4.453   1.346
    1MUSC Al0Np13807   4.466   3.695   0.343
    1MUSC Al0Nq13808   4.460   4.000   0.344
    1MUSC Al0Nr13809   4.291   3.695   3.355
    1MUSC Al0Ns13810   4.114   4.000   1.346
    1MUSC Si0lV13811   4.381   4.462   3.621
    1MUSC Si0lW13812   4.024   4.138   1.080
    1MUSC Si0lX13813   4.375   4.462   0.077
    1MUSC Si0lY13814   4.550   4.138   0.610
    1MUSC Si0lZ13815   4.122   4.307   0.077
    1MUSC Si0la13816   4.283   4.293   0.610
    1MUSC Si0lb13817   4.635   4.307   3.620
    1MUSC Si0lc13818   4.291   4.293   1.081
    1MUSC Si0ld13819   4.642   4.010   3.621
    1MUSC Si0le13820   4.284   3.685   1.080
    1MUSC Si0lf13821   4.115   4.010   0.077
    1MUSC Si0lg13822   4.290   3.685   0.610
    1MUSC Si0lh13823   4.382   3.855   0.077
    1MUSC Si0li13824   4.543   3.840   0.610
    1MUSC Si0lj13825   4.375   3.855   3.620
    1MUSC Si0lk13826   4.031   3.840   1.081
    1MUSC O02IT13827   4.144   4.296   0.236
    1MUSC O02IU13828   4.261   4.304   0.451
    1MUSC O02IV13829   4.613   4.296   3.461
    1MUSC O02IW13830   4.313   4.304   1.240
    1MUSC O02IX13831   4.400   4.116   3.453
    1MUSC O02IY13832   4.005   4.484   1.248
    1MUSC O02IZ13833   4.357   4.116   0.245
    1MUSC O02Ia13834   4.568   4.484   0.442
    1MUSC O02Ib13835   4.259   4.365   3.672
    1MUSC O02Ic13836   4.146   4.235   1.029
    1MUSC O02Id13837   4.497   4.365   0.025
    1MUSC O02Ie13838   4.428   4.235   0.662
    1MUSC O02If13839   4.238   4.402   0.006
    1MUSC O02Ig13840   4.167   4.198   0.681
    1MUSC O02Ih13841   4.519   4.402   3.692
    1MUSC O02Ii13842   4.407   4.198   1.009
    1MUSC O02Ij13843   4.138   4.158   0.006
    1MUSC O02Ik13844   4.267   4.442   0.681
    1MUSC O02Il13845   4.619   4.158   3.691
    1MUSC O02Im13846   4.307   4.442   1.010
    1MUSC O02In13847   4.400   4.474   3.461
    1MUSC O02Io13848   4.005   4.126   1.240
    1MUSC O02Ip13849   4.357   4.474   0.236
    1MUSC O02Iq13850   4.568   4.126   0.451
    1MUSC O02Ir13851   4.404   3.843   0.236
    1MUSC O02Is13852   4.521   3.852   0.451
    1MUSC O02It13853   4.352   3.843   3.461
    1MUSC O02Iu13854   4.053   3.852   1.240
    1MUSC O02Iv13855   4.660   3.663   3.453
    1MUSC O02Iw13856   4.266   4.031   1.248
    1MUSC O02Ix13857   4.097   3.663   0.245
    1MUSC O02Iy13858   4.308   4.031   0.442
    1MUSC O02Iz13859   4.520   3.912   3.672
    1MUSC O02J013860   4.406   3.783   1.029
    1MUSC O02J113861   4.237   3.912   0.025
    1MUSC O02J213862   4.168   3.783   0.662
    1MUSC O02J313863   4.498   3.949   0.006
    1MUSC O02J413864   4.427   3.746   0.681
    1MUSC O02J513865   4.259   3.949   3.692
    1MUSC O02J613866   4.147   3.746   1.009
    1MUSC O02J713867   4.398   3.705   0.006
    1MUSC O02J813868   4.527   3.989   0.681
    1MUSC O02J913869   4.358   3.705   3.691
    1MUSC O02JA13870   4.047   3.989   1.010
    1MUSC O02JB13871   4.660   4.021   3.461
    1MUSC O02JC13872   4.266   3.673   1.240
    1MUSC O02JD13873   4.097   4.021   0.236
    1MUSC O02JE13874   4.308   3.673   0.451
    1MUSC K008x13875   4.195   4.164   1.849
    1MUSC K008y13876   3.844   4.436   2.852
    1MUSC K008z13877   3.935   3.711   1.849
    1MUSC K009013878   4.104   3.983   2.852
    1MUSC Al0Nt13879   4.023   4.147   2.350
    1MUSC Al0Nu13880   4.016   4.453   2.351
    1MUSC Al0Nv13881   4.368   4.147   1.348
    1MUSC Al0Nw13882   4.192   4.453   3.353
    1MUSC Al0Nx13883   4.283   3.695   2.350
    1MUSC Al0Ny13884   4.277   4.000   2.351
    1MUSC Al0Nz13885   4.108   3.695   1.348
    1MUSC Al0O013886   3.931   4.000   3.353
    1MUSC Si0ll13887   4.198   4.462   1.614
    1MUSC Si0lm13888   3.841   4.138   3.087
    1MUSC Si0ln13889   4.192   4.462   2.084
    1MUSC Si0lo13890   4.367   4.138   2.617
    1MUSC Si0lp13891   3.939   4.307   2.084
    1MUSC Si0lq13892   4.100   4.293   2.617
    1MUSC Si0lr13893   4.452   4.307   1.613
    1MUSC Si0ls13894   4.108   4.293   3.088
    1MUSC Si0lt13895   4.459   4.010   1.614
    1MUSC Si0lu13896   4.101   3.685   3.087
    1MUSC Si0lv13897   3.932   4.010   2.084
    1MUSC Si0lw13898   4.107   3.685   2.617
    1MUSC Si0lx13899   4.199   3.855   2.084
    1MUSC Si0ly13900   4.360   3.840   2.617
    1MUSC Si0lz13901   4.192   3.855   1.613
    1MUSC Si0m013902   3.848   3.840   3.088
    1MUSC O02JF13903   3.961   4.296   2.243
    1MUSC O02JG13904   4.078   4.304   2.458
    1MUSC O02JH13905   4.430   4.296   1.454
    1MUSC O02JI13906   4.130   4.304   3.247
    1MUSC O02JJ13907   4.217   4.116   1.446
    1MUSC O02JK13908   3.822   4.484   3.255
    1MUSC O02JL13909   4.174   4.116   2.252
    1MUSC O02JM13910   4.385   4.484   2.449
    1MUSC O02JN13911   4.076   4.365   1.665
    1MUSC O02JO13912   3.963   4.235   3.036
    1MUSC O02JP13913   4.314   4.365   2.032
    1MUSC O02JQ13914   4.245   4.235   2.669
    1MUSC O02JR13915   4.055   4.402   2.013
    1MUSC O02JS13916   3.984   4.198   2.688
    1MUSC O02JT13917   4.336   4.402   1.685
    1MUSC O02JU13918   4.224   4.198   3.016
    1MUSC O02JV13919   3.955   4.158   2.013
    1MUSC O02JW13920   4.084   4.442   2.688
    1MUSC O02JX13921   4.436   4.158   1.684
    1MUSC O02JY13922   4.124   4.442   3.017
    1MUSC O02JZ13923   4.217   4.474   1.454
    1MUSC O02Ja13924   3.822   4.126   3.247
    1MUSC O02Jb13925   4.174   4.474   2.243
    1MUSC O02Jc13926   4.385   4.126   2.458
    1MUSC O02Jd13927   4.221   3.843   2.243
    1MUSC O02Je13928   4.338   3.852   2.458
    1MUSC O02Jf13929   4.169   3.843   1.454
    1MUSC O02Jg13930   3.870   3.852   3.247
    1MUSC O02Jh13931   4.477   3.663   1.446
    1MUSC O02Ji13932   4.083   4.031   3.255
    1MUSC O02Jj13933   3.914   3.663   2.252
    1MUSC O02Jk13934   4.125   4.031   2.449
    1MUSC O02Jl13935   4.337   3.912   1.665
    1MUSC O02Jm13936   4.223   3.783   3.036
    1MUSC O02Jn13937   4.054   3.912   2.032
    1MUSC O02Jo13938   3.985   3.783   2.669
    1MUSC O02Jp13939   4.315   3.949   2.013
    1MUSC O02Jq13940   4.244   3.746   2.688
    1MUSC O02Jr13941   4.076   3.949   1.685
    1MUSC O02Js13942   3.964   3.746   3.016
    1MUSC O02Jt13943   4.215   3.705   2.013
    1MUSC O02Ju13944   4.344   3.989   2.688
    1MUSC O02Jv13945   4.175   3.705   1.684
    1MUSC O02Jw13946   3.864   3.989   3.017
    1MUSC O02Jx13947   4.477   4.021   1.454
    1MUSC O02Jy13948   4.083   3.673   3.247
    1MUSC O02Jz13949   3.914   4.021   2.243
    1MUSC O02K013950   4.125   3.673   2.458
    1MUSC K009113951   4.027   5.341   0.845
    1MUSC K009213952   4.287   4.889   0.845
    1MUSC Al0O113953   4.206   5.053   0.343
    1MUSC Al0O213954   4.199   5.358   0.344
    1MUSC Al0O313955   4.551   5.053   3.355
    1MUSC Al0O413956   4.375   5.358   1.346
    1MUSC Al0O513957   4.466   4.600   0.343
    1MUSC Al0O613958   4.460   4.905   0.344
    1MUSC Al0O713959   4.291   4.600   3.355
    1MUSC Al0O813960   4.114   4.905   1.346
    1MUSC Si0m113961   4.381   5.368   3.621
    1MUSC Si0m213962   4.024   5.043   1.080
    1MUSC Si0m313963   4.375   5.368   0.077
    1MUSC Si0m413964   4.550   5.043   0.610
    1MUSC Si0m513965   4.122   5.212   0.077
    1MUSC Si0m613966   4.283   5.198   0.610
    1MUSC Si0m713967   4.635   5.212   3.620
    1MUSC Si0m813968   4.291   5.198   1.081
    1MUSC Si0m913969   4.642   4.915   3.621
    1MUSC Si0mA13970   4.284   4.590   1.080
    1MUSC Si0mB13971   4.115   4.915   0.077
    1MUSC Si0mC13972   4.290   4.590   0.610
    1MUSC Si0mD13973   4.382   4.760   0.077
    1MUSC Si0mE13974   4.543   4.746   0.610
    1MUSC Si0mF13975   4.375   4.760   3.620
    1MUSC Si0mG13976   4.031   4.746   1.081
    1MUSC O02K113977   4.144   5.201   0.236
    1MUSC O02K213978   4.261   5.209   0.451
    1MUSC O02K313979   4.613   5.201   3.461
    1MUSC O02K413980   4.313   5.209   1.240
    1MUSC O02K513981   4.400   5.021   3.453
    1MUSC O02K613982   4.005   5.389   1.248
    1MUSC O02K713983   4.357   5.021   0.245
    1MUSC O02K813984   4.568   5.389   0.442
    1MUSC O02K913985   4.259   5.270   3.672
    1MUSC O02KA13986   4.146   5.141   1.029
    1MUSC O02KB13987   4.497   5.270   0.025
    1MUSC O02KC13988   4.428   5.141   0.662
    1MUSC O02KD13989   4.238   5.307   0.006
    1MUSC O02KE13990   4.167   5.104   0.681
    1MUSC O02KF13991   4.519   5.307   3.692
    1MUSC O02KG13992   4.407   5.104   1.009
    1MUSC O02KH13993   4.138   5.063   0.006
    1MUSC O02KI13994   4.267   5.347   0.681
    1MUSC O02KJ13995   4.619   5.063   3.691
    1MUSC O02KK13996   4.307   5.347   1.010
    1MUSC O02KL13997   4.400   5.379   3.461
    1MUSC O02KM13998   4.005   5.031   1.240
    1MUSC O02KN13999   4.357   5.379   0.236
    1MUSC O02KO14000   4.568   5.031   0.451
    1MUSC O02KP14001   4.404   4.749   0.236
    1MUSC O02KQ14002   4.521   4.757   0.451
    1MUSC O02KR14003   4.352   4.749   3.461
    1MUSC O02KS14004   4.053   4.757   1.240
    1MUSC O02KT14005   4.660   4.569   3.453
    1MUSC O02KU14006   4.266   4.937   1.248
    1MUSC O02KV14007   4.097   4.569   0.245
    1MUSC O02KW14008   4.308   4.937   0.442
    1MUSC O02KX14009   4.520   4.817   3.672
    1MUSC O02KY14010   4.406   4.688   1.029
    1MUSC O02KZ14011   4.237   4.817   0.025
    1MUSC O02Ka14012   4.168   4.688   0.662
    1MUSC O02Kb14013   4.498   4.854   0.006
    1MUSC O02Kc14014   4.427   4.651   0.681
    1MUSC O02Kd14015   4.259   4.854   3.692
    1MUSC O02Ke14016   4.147   4.651   1.009
    1MUSC O02Kf14017   4.398   4.611   0.006
    1MUSC O02Kg14018   4.527   4.895   0.681
    1MUSC O02Kh14019   4.358   4.611   3.691
    1MUSC O02Ki14020   4.047   4.895   1.010
    1MUSC O02Kj14021   4.660   4.927   3.461
    1MUSC O02Kk14022   4.266   4.579   1.240
    1MUSC O02Kl14023   4.097   4.927   0.236
    1MUSC O02Km14024   4.308   4.579   0.451
    1MUSC K009314025   4.195   5.069   1.849
    1MUSC K009414026   3.844   5.341   2.852
    1MUSC K009514027   3.935   4.617   1.849
    1MUSC K009614028   4.104   4.889   2.852
    1MUSC Al0O914029   4.023   5.053   2.350
    1MUSC Al0OA14030   4.016   5.358   2.351
    1MUSC Al0OB14031   4.368   5.053   1.348
    1MUSC Al0OC14032   4.192   5.358   3.353
    1MUSC Al0OD14033   4.283   4.600   2.350
    1MUSC Al0OE14034   4.277   4.905   2.351
    1MUSC Al0OF14035   4.108   4.600   1.348
    1MUSC Al0OG14036   3.931   4.905   3.353
    1MUSC Si0mH14037   4.198   5.368   1.614
    1MUSC Si0mI14038   3.841   5.043   3.087
    1MUSC Si0mJ14039   4.192   5.368   2.084
    1MUSC Si0mK14040   4.367   5.043   2.617
    1MUSC Si0mL14041   3.939   5.212   2.084
    1MUSC Si0mM14042   4.100   5.198   2.617
    1MUSC Si0mN14043   4.452   5.212   1.613
    1MUSC Si0mO14044   4.108   5.198   3.088
    1MUSC Si0mP14045   4.459   4.915   1.614
    1MUSC Si0mQ14046   4.101   4.590   3.087
    1MUSC Si0mR14047   3.932   4.915   2.084
    1MUSC Si0mS14048   4.107   4.590   2.617
    1MUSC Si0mT14049   4.199   4.760   2.084
    1MUSC Si0mU14050   4.360   4.746   2.617
    1MUSC Si0mV14051   4.192   4.760   1.613
    1MUSC Si0mW14052   3.848   4.746   3.088
    1MUSC O02Kn14053   3.961   5.201   2.243
    1MUSC O02Ko14054   4.078   5.209   2.458
    1MUSC O02Kp14055   4.430   5.201   1.454
    1MUSC O02Kq14056   4.130   5.209   3.247
    1MUSC O02Kr14057   4.217   5.021   1.446
    1MUSC O02Ks14058   3.822   5.389   3.255
    1MUSC O02Kt14059   4.174   5.021   2.252
    1MUSC O02Ku14060   4.385   5.389   2.449
    1MUSC O02Kv14061   4.076   5.270   1.665
    1MUSC O02Kw14062   3.963   5.141   3.036
    1MUSC O02Kx14063   4.314   5.270   2.032
    1MUSC O02Ky14064   4.245   5.141   2.669
    1MUSC O02Kz14065   4.055   5.307   2.013
    1MUSC O02L014066   3.984   5.104   2.688
    1MUSC O02L114067   4.336   5.307   1.685
    1MUSC O02L214068   4.224   5.104   3.016
    1MUSC O02L314069   3.955   5.063   2.013
    1MUSC O02L414070   4.084   5.347   2.688
    1MUSC O02L514071   4.436   5.063   1.684
    1MUSC O02L614072   4.124   5.347   3.017
    1MUSC O02L714073   4.217   5.379   1.454
    1MUSC O02L814074   3.822   5.031   3.247
    1MUSC O02L914075   4.174   5.379   2.243
    1MUSC O02LA14076   4.385   5.031   2.458
    1MUSC O02LB14077   4.221   4.749   2.243
    1MUSC O02LC14078   4.338   4.757   2.458
    1MUSC O02LD14079   4.169   4.749   1.454
    1MUSC O02LE14080   3.870   4.757   3.247
    1MUSC O02LF14081   4.477   4.569   1.446
    1MUSC O02LG14082   4.083   4.937   3.255
    1MUSC O02LH14083   3.914   4.569   2.252
    1MUSC O02LI14084   4.125   4.937   2.449
    1MUSC O02LJ14085   4.337   4.817   1.665
    1MUSC O02LK14086   4.223   4.688   3.036
    1MUSC O02LL14087   4.054   4.817   2.032
    1MUSC O02LM14088   3.985   4.688   2.669
    1MUSC O02LN14089   4.315   4.854   2.013
    1MUSC O02LO14090   4.244   4.651   2.688
    1MUSC O02LP14091   4.076   4.854   1.685
    1MUSC O02LQ14092   3.964   4.651   3.016
    1MUSC O02LR14093   4.215   4.611   2.013
    1MUSC O02LS14094   4.344   4.895   2.688
    1MUSC O02LT14095   4.175   4.611   1.684
    1MUSC O02LU14096   3.864   4.895   3.017
    1MUSC O02LV14097   4.477   4.927   1.454
    1MUSC O02LW14098   4.083   4.579   3.247
    1MUSC O02LX14099   3.914   4.927   2.243
    1MUSC O02LY14100   4.125   4.579   2.458
    1MUSC K009714101   4.027   6.247   0.845
    1MUSC K009814102   4.287   5.794   0.845
    1MUSC Al0OH14103   4.206   5.958   0.343
    1MUSC Al0OI14104   4.199   6.263   0.344
    1MUSC Al0OJ14105   4.551   5.958   3.355
    1MUSC Al0OK14106   4.375   6.263   1.346
    1MUSC Al0OL14107   4.466   5.505   0.343
    1MUSC Al0OM14108   4.460   5.810   0.344
    1MUSC Al0ON14109   4.291   5.505   3.355
    1MUSC Al0OO14110   4.114   5.810   1.346
    1MUSC Si0mX14111   4.381   6.273   3.621
    1MUSC Si0mY14112   4.024   5.948   1.080
    1MUSC Si0mZ14113   4.375   6.273   0.077
    1MUSC Si0ma14114   4.550   5.948   0.610
    1MUSC Si0mb14115   4.122   6.118   0.077
    1MUSC Si0mc14116   4.283   6.103   0.610
    1MUSC Si0md14117   4.635   6.118   3.620
    1MUSC Si0me14118   4.291   6.103   1.081
    1MUSC Si0mf14119   4.642   5.820   3.621
    1MUSC Si0mg14120   4.284   5.495   1.080
    1MUSC Si0mh14121   4.115   5.820   0.077
    1MUSC Si0mi14122   4.290   5.495   0.610
    1MUSC Si0mj14123   4.382   5.665   0.077
    1MUSC Si0mk14124   4.543   5.651   0.610
    1MUSC Si0ml14125   4.375   5.665   3.620
    1MUSC Si0mm14126   4.031   5.651   1.081
    1MUSC O02LZ14127   4.144   6.106   0.236
    1MUSC O02La14128   4.261   6.115   0.451
    1MUSC O02Lb14129   4.613   6.106   3.461
    1MUSC O02Lc14130   4.313   6.115   1.240
    1MUSC O02Ld14131   4.400   5.927   3.453
    1MUSC O02Le14132   4.005   6.295   1.248
    1MUSC O02Lf14133   4.357   5.927   0.245
    1MUSC O02Lg14134   4.568   6.295   0.442
    1MUSC O02Lh14135   4.259   6.175   3.672
    1MUSC O02Li14136   4.146   6.046   1.029
    1MUSC O02Lj14137   4.497   6.175   0.025
    1MUSC O02Lk14138   4.428   6.046   0.662
    1MUSC O02Ll14139   4.238   6.212   0.006
    1MUSC O02Lm14140   4.167   6.009   0.681
    1MUSC O02Ln14141   4.519   6.212   3.692
    1MUSC O02Lo14142   4.407   6.009   1.009
    1MUSC O02Lp14143   4.138   5.969   0.006
    1MUSC O02Lq14144   4.267   6.253   0.681
    1MUSC O02Lr14145   4.619   5.969   3.691
    1MUSC O02Ls14146   4.307   6.253   1.010
    1MUSC O02Lt14147   4.400   6.285   3.461
    1MUSC O02Lu14148   4.005   5.937   1.240
    1MUSC O02Lv14149   4.357   6.285   0.236
    1MUSC O02Lw14150   4.568   5.937   0.451
    1MUSC O02Lx14151   4.404   5.654   0.236
    1MUSC O02Ly14152   4.521   5.662   0.451
    1MUSC O02Lz14153   4.352   5.654   3.461
    1MUSC O02M014154   4.053   5.662   1.240
    1MUSC O02M114155   4.660   5.474   3.453
    1MUSC O02M214156   4.266   5.842   1.248
    1MUSC O02M314157   4.097   5.474   0.245
    1MUSC O02M414158   4.308   5.842   0.442
    1MUSC O02M514159   4.520   5.723   3.672
    1MUSC O02M614160   4.406   5.593   1.029
    1MUSC O02M714161   4.237   5.723   0.025
    1MUSC O02M814162   4.168   5.593   0.662
    1MUSC O02M914163   4.498   5.760   0.006
    1MUSC O02MA14164   4.427   5.556   0.681
    1MUSC O02MB14165   4.259   5.760   3.692
    1MUSC O02MC14166   4.147   5.556   1.009
    1MUSC O02MD14167   4.398   5.516   0.006
    1MUSC O02ME14168   4.527   5.800   0.681
    1MUSC O02MF14169   4.358   5.516   3.691
    1MUSC O02MG14170   4.047   5.800   1.010
    1MUSC O02MH14171   4.660   5.832   3.461
    1MUSC O02MI14172   4.266   5.484   1.240
    1MUSC O02MJ14173   4.097   5.832   0.236
    1MUSC O02MK14174   4.308   5.484   0.451
    1MUSC K009914175   4.195   5.975   1.849
    1MUSC K009A14176   3.844   6.247   2.852
    1MUSC K009B14177   3.935   5.522   1.849
    1MUSC K009C14178   4.104   5.794   2.852
    1MUSC Al0OP14179   4.023   5.958   2.350
    1MUSC Al0OQ14180   4.016   6.263   2.351
    1MUSC Al0OR14181   4.368   5.958   1.348
    1MUSC Al0OS14182   4.192   6.263   3.353
    1MUSC Al0OT14183   4.283   5.505   2.350
    1MUSC Al0OU14184   4.277   5.810   2.351
    1MUSC Al0OV14185   4.108   5.505   1.348
    1MUSC Al0OW14186   3.931   5.810   3.353
    1MUSC Si0mn14187   4.198   6.273   1.614
    1MUSC Si0mo14188   3.841   5.948   3.087
    1MUSC Si0mp14189   4.192   6.273   2.084
    1MUSC Si0mq14190   4.367   5.948   2.617
    1MUSC Si0mr14191   3.939   6.118   2.084
    1MUSC Si0ms14192   4.100   6.103   2.617
    1MUSC Si0mt14193   4.452   6.118   1.613
    1MUSC Si0mu14194   4.108   6.103   3.088
    1MUSC Si0mv14195   4.459   5.820   1.614
    1MUSC Si0mw14196   4.101   5.495   3.087
    1MUSC Si0mx14197   3.932   5.820   2.084
    1MUSC Si0my14198   4.107   5.495   2.617
    1MUSC Si0mz14199   4.199   5.665   2.084
    1MUSC Si0n014200   4.360   5.651   2.617
    1MUSC Si0n114201   4.192   5.665   1.613
    1MUSC Si0n214202   3.848   5.651   3.088
    1MUSC O02ML14203   3.961   6.106   2.243
    1MUSC O02MM14204   4.078   6.115   2.458
    1MUSC O02MN14205   4.430   6.106   1.454
    1MUSC O02MO14206   4.130   6.115   3.247
    1MUSC O02MP14207   4.217   5.927   1.446
    1MUSC O02MQ14208   3.822   6.295   3.255
    1MUSC O02MR14209   4.174   5.927   2.252
    1MUSC O02MS14210   4.385   6.295   2.449
    1MUSC O02MT14211   4.076   6.175   1.665
    1MUSC O02MU14212   3.963   6.046   3.036
    1MUSC O02MV14213   4.314   6.175   2.032
    1MUSC O02MW14214   4.245   6.046   2.669
    1MUSC O02MX14215   4.055   6.212   2.013
    1MUSC O02MY14216   3.984   6.009   2.688
    1MUSC O02MZ14217   4.336   6.212   1.685
    1MUSC O02Ma14218   4.224   6.009   3.016
    1MUSC O02Mb14219   3.955   5.969   2.013
    1MUSC O02Mc14220   4.084   6.253   2.688
    1MUSC O02Md14221   4.436   5.969   1.684
    1MUSC O02Me14222   4.124   6.253   3.017
    1MUSC O02Mf14223   4.217   6.285   1.454
    1MUSC O02Mg14224   3.822   5.937   3.247
    1MUSC O02Mh14225   4.174   6.285   2.243
    1MUSC O02Mi14226   4.385   5.937   2.458
    1MUSC O02Mj14227   4.221   5.654   2.243
    1MUSC O02Mk14228   4.338   5.662   2.458
    1MUSC O02Ml14229   4.169   5.654   1.454
    1MUSC O02Mm14230   3.870   5.662   3.247
    1MUSC O02Mn14231   4.477   5.474   1.446
    1MUSC O02Mo14232   4.083   5.842   3.255
    1MUSC O02Mp14233   3.914   5.474   2.252
    1MUSC O02Mq14234   4.125   5.842   2.449
    1MUSC O02Mr14235   4.337   5.723   1.665
    1MUSC O02Ms14236   4.223   5.593   3.036
    1MUSC O02Mt14237   4.054   5.723   2.032
    1MUSC O02Mu14238   3.985   5.593   2.669
    1MUSC O02Mv14239   4.315   5.760   2.013
    1MUSC O02Mw14240   4.244   5.556   2.688
    1MUSC O02Mx14241   4.076   5.760   1.685
    1MUSC O02My14242   3.964   5.556   3.016
    1MUSC O02Mz14243   4.215   5.516   2.013
    1MUSC O02N014244   4.344   5.800   2.688
    1MUSC O02N114245   4.175   5.516   1.684
    1MUSC O02N214246   3.864   5.800   3.017
    1MUSC O02N314247   4.477   5.832   1.454
    1MUSC O02N414248   4.083   5.484   3.247
    1MUSC O02N514249   3.914   5.832   2.243
    1MUSC O02N614250   4.125   5.484   2.458
    1MUSC K009D14251   4.027   7.152   0.845
    1MUSC K009E14252   4.287   6.699   0.845
    1MUSC Al0OX14253   4.206   6.863   0.343
    1MUSC Al0OY14254   4.199   7.168   0.344
    1MUSC Al0OZ14255   4.551   6.863   3.355
    1MUSC Al0Oa14256   4.375   7.168   1.346
    1MUSC Al0Ob14257   4.466   6.411   0.343
    1MUSC Al0Oc14258   4.460   6.716   0.344
    1MUSC Al0Od14259   4.291   6.411   3.355
    1MUSC Al0Oe14260   4.114   6.716   1.346
    1MUSC Si0n314261   4.381   7.178   3.621
    1MUSC Si0n414262   4.024   6.853   1.080
    1MUSC Si0n514263   4.375   7.178   0.077
    1MUSC Si0n614264   4.550   6.853   0.610
    1MUSC Si0n714265   4.122   7.023   0.077
    1MUSC Si0n814266   4.283   7.009   0.610
    1MUSC Si0n914267   4.635   7.023   3.620
    1MUSC Si0nA14268   4.291   7.009   1.081
    1MUSC Si0nB14269   4.642   6.726   3.621
    1MUSC Si0nC14270   4.284   6.401   1.080
    1MUSC Si0nD14271   4.115   6.726   0.077
    1MUSC Si0nE14272   4.290   6.401   0.610
    1MUSC Si0nF14273   4.382   6.570   0.077
    1MUSC Si0nG14274   4.543   6.556   0.610
    1MUSC Si0nH14275   4.375   6.570   3.620
    1MUSC Si0nI14276   4.031   6.556   1.081
    1MUSC O02N714277   4.144   7.012   0.236
    1MUSC O02N814278   4.261   7.020   0.451
    1MUSC O02N914279   4.613   7.012   3.461
    1MUSC O02NA14280   4.313   7.020   1.240
    1MUSC O02NB14281   4.400   6.832   3.453
    1MUSC O02NC14282   4.005   7.200   1.248
    1MUSC O02ND14283   4.357   6.832   0.245
    1MUSC O02NE14284   4.568   7.200   0.442
    1MUSC O02NF14285   4.259   7.080   3.672
    1MUSC O02NG14286   4.146   6.951   1.029
    1MUSC O02NH14287   4.497   7.080   0.025
    1MUSC O02NI14288   4.428   6.951   0.662
    1MUSC O02NJ14289   4.238   7.117   0.006
    1MUSC O02NK14290   4.167   6.914   0.681
    1MUSC O02NL14291   4.519   7.117   3.692
    1MUSC O02NM14292   4.407   6.914   1.009
    1MUSC O02NN14293   4.138   6.874   0.006
    1MUSC O02NO14294   4.267   7.158   0.681
    1MUSC O02NP14295   4.619   6.874   3.691
    1MUSC O02NQ14296   4.307   7.158   1.010
    1MUSC O02NR14297   4.400   7.190   3.461
    1MUSC O02NS14298   4.005   6.842   1.240
    1MUSC O02NT14299   4.357   7.190   0.236
    1MUSC O02NU14300   4.568   6.842   0.451
    1MUSC O02NV14301   4.404   6.559   0.236
    1MUSC O02NW14302   4.521   6.567   0.451
    1MUSC O02NX14303   4.352   6.559   3.461
    1MUSC O02NY14304   4.053   6.567   1.240
    1MUSC O02NZ14305   4.660   6.379   3.453
    1MUSC O02Na14306   4.266   6.747   1.248
    1MUSC O02Nb14307   4.097   6.379   0.245
    1MUSC O02Nc14308   4.308   6.747   0.442
    1MUSC O02Nd14309   4.520   6.628   3.672
    1MUSC O02Ne14310   4.406   6.499   1.029
    1MUSC O02Nf14311   4.237   6.628   0.025
    1MUSC O02Ng14312   4.168   6.499   0.662
    1MUSC O02Nh14313   4.498   6.665   0.006
    1MUSC O02Ni14314   4.427   6.462   0.681
    1MUSC O02Nj14315   4.259   6.665   3.692
    1MUSC O02Nk14316   4.147   6.462   1.009
    1MUSC O02Nl14317   4.398   6.421   0.006
    1MUSC O02Nm14318   4.527   6.705   0.681
    1MUSC O02Nn14319   4.358   6.421   3.691
    1MUSC O02No14320   4.047   6.705   1.010
    1MUSC O02Np14321   4.660   6.737   3.461
    1MUSC O02Nq14322   4.266   6.389   1.240
    1MUSC O02Nr14323   4.097   6.737   0.236
    1MUSC O02Ns14324   4.308   6.389   0.451
    1MUSC K009F14325   4.195   6.880   1.849
    1MUSC K009G14326   3.844   7.152   2.852
    1MUSC K009H14327   3.935   6.427   1.849
    1MUSC K009I14328   4.104   6.699   2.852
    1MUSC Al0Of14329   4.023   6.863   2.350
    1MUSC Al0Og14330   4.016   7.168   2.351
    1MUSC Al0Oh14331   4.368   6.863   1.348
    1MUSC Al0Oi14332   4.192   7.168   3.353
    1MUSC Al0Oj14333   4.283   6.411   2.350
    1MUSC Al0Ok14334   4.277   6.716   2.351
    1MUSC Al0Ol14335   4.108   6.411   1.348
    1MUSC Al0Om14336   3.931   6.716   3.353
    1MUSC Si0nJ14337   4.198   7.178   1.614
    1MUSC Si0nK14338   3.841   6.853   3.087
    1MUSC Si0nL14339   4.192   7.178   2.084
    1MUSC Si0nM14340   4.367   6.853   2.617
    1MUSC Si0nN14341   3.939   7.023   2.084
    1MUSC Si0nO14342   4.100   7.009   2.617
    1MUSC Si0nP14343   4.452   7.023   1.613
    1MUSC Si0nQ14344   4.108   7.009   3.088
    1MUSC Si0nR14345   4.459   6.726   1.614
    1MUSC Si0nS14346   4.101   6.401   3.087
    1MUSC Si0nT14347   3.932   6.726   2.084
    1MUSC Si0nU14348   4.107   6.401   2.617
    1MUSC Si0nV14349   4.199   6.570   2.084
    1MUSC Si0nW14350   4.360   6.556   2.617
    1MUSC Si0nX14351   4.192   6.570   1.613
    1MUSC Si0nY14352   3.848   6.556   3.088
    1MUSC O02Nt14353   3.961   7.012   2.243
    1MUSC O02Nu14354   4.078   7.020   2.458
    1MUSC O02Nv14355   4.430   7.012   1.454
    1MUSC O02Nw14356   4.130   7.020   3.247
    1MUSC O02Nx14357   4.217   6.832   1.446
    1MUSC O02Ny14358   3.822   7.200   3.255
    1MUSC O02Nz14359   4.174   6.832   2.252
    1MUSC O02O014360   4.385   7.200   2.449
    1MUSC O02O114361   4.076   7.080   1.665
    1MUSC O02O214362   3.963   6.951   3.036
    1MUSC O02O314363   4.314   7.080   2.032
    1MUSC O02O414364   4.245   6.951   2.669
    1MUSC O02O514365   4.055   7.117   2.013
    1MUSC O02O614366   3.984   6.914   2.688
    1MUSC O02O714367   4.336   7.117   1.685
    1MUSC O02O814368   4.224   6.914   3.016
    1MUSC O02O914369   3.955   6.874   2.013
    1MUSC O02OA14370   4.084   7.158   2.688
    1MUSC O02OB14371   4.436   6.874   1.684
    1MUSC O02OC14372   4.124   7.158   3.017
    1MUSC O02OD14373   4.217   7.190   1.454
    1MUSC O02OE14374   3.822   6.842   3.247
    1MUSC O02OF14375   4.174   7.190   2.243
    1MUSC O02OG14376   4.385   6.842   2.458
    1MUSC O02OH14377   4.221   6.559   2.243
    1MUSC O02OI14378   4.338   6.567   2.458
    1MUSC O02OJ14379   4.169   6.559   1.454
    1MUSC O02OK14380   3.870   6.567   3.247
    1MUSC O02OL14381   4.477   6.379   1.446
    1MUSC O02OM14382   4.083   6.747   3.255
    1MUSC O02ON14383   3.914   6.379   2.252
    1MUSC O02OO14384   4.125   6.747   2.449
    1MUSC O02OP14385   4.337   6.628   1.665
    1MUSC O02OQ14386   4.223   6.499   3.036
    1MUSC O02OR14387   4.054   6.628   2.032
    1MUSC O02OS14388   3.985   6.499   2.669
    1MUSC O02OT14389   4.315   6.665   2.013
    1MUSC O02OU14390   4.244   6.462   2.688
    1MUSC O02OV14391   4.076   6.665   1.685
    1MUSC O02OW14392   3.964   6.462   3.016
    1MUSC O02OX14393   4.215   6.421   2.013
    1MUSC O02OY14394   4.344   6.705   2.688
    1MUSC O02OZ14395   4.175   6.421   1.684
    1MUSC O02Oa14396   3.864   6.705   3.017
    1MUSC O02Ob14397   4.477   6.737   1.454
    1MUSC O02Oc14398   4.083   6.389   3.247
    1MUSC O02Od14399   3.914   6.737   2.243
    1MUSC O02Oe14400   4.125   6.389   2.458
    1MUSC K009J14401   4.027   8.057   0.845
    1MUSC K009K14402   4.287   7.605   0.845
    1MUSC Al0On14403   4.206   7.769   0.343
    1MUSC Al0Oo14404   4.199   8.074   0.344
    1MUSC Al0Op14405   4.551   7.769   3.355
    1MUSC Al0Oq14406   4.375   8.074   1.346
    1MUSC Al0Or14407   4.466   7.316   0.343
    1MUSC Al0Os14408   4.460   7.621   0.344
    1MUSC Al0Ot14409   4.291   7.316   3.355
    1MUSC Al0Ou14410   4.114   7.621   1.346
    1MUSC Si0nZ14411   4.381   8.084   3.621
    1MUSC Si0na14412   4.024   7.759   1.080
    1MUSC Si0nb14413   4.375   8.084   0.077
    1MUSC Si0nc14414   4.550   7.759   0.610
    1MUSC Si0nd14415   4.122   7.928   0.077
    1MUSC Si0ne14416   4.283   7.914   0.610
    1MUSC Si0nf14417   4.635   7.928   3.620
    1MUSC Si0ng14418   4.291   7.914   1.081
    1MUSC Si0nh14419   4.642   7.631   3.621
    1MUSC Si0ni14420   4.284   7.306   1.080
    1MUSC Si0nj14421   4.115   7.631   0.077
    1MUSC Si0nk14422   4.290   7.306   0.610
    1MUSC Si0nl14423   4.382   7.476   0.077
    1MUSC Si0nm14424   4.543   7.461   0.610
    1MUSC Si0nn14425   4.375   7.476   3.620
    1MUSC Si0no14426   4.031   7.461   1.081
    1MUSC O02Of14427   4.144   7.917   0.236
    1MUSC O02Og14428   4.261   7.925   0.451
    1MUSC O02Oh14429   4.613   7.917   3.461
    1MUSC O02Oi14430   4.313   7.925   1.240
    1MUSC O02Oj14431   4.400   7.737   3.453
    1MUSC O02Ok14432   4.005   8.105   1.248
    1MUSC O02Ol14433   4.357   7.737   0.245
    1MUSC O02Om14434   4.568   8.105   0.442
    1MUSC O02On14435   4.259   7.986   3.672
    1MUSC O02Oo14436   4.146   7.856   1.029
    1MUSC O02Op14437   4.497   7.986   0.025
    1MUSC O02Oq14438   4.428   7.856   0.662
    1MUSC O02Or14439   4.238   8.023   0.006
    1MUSC O02Os14440   4.167   7.819   0.681
    1MUSC O02Ot14441   4.519   8.023   3.692
    1MUSC O02Ou14442   4.407   7.819   1.009
    1MUSC O02Ov14443   4.138   7.779   0.006
    1MUSC O02Ow14444   4.267   8.063   0.681
    1MUSC O02Ox14445   4.619   7.779   3.691
    1MUSC O02Oy14446   4.307   8.063   1.010
    1MUSC O02Oz14447   4.400   8.095   3.461
    1MUSC O02P014448   4.005   7.747   1.240
    1MUSC O02P114449   4.357   8.095   0.236
    1MUSC O02P214450   4.568   7.747   0.451
    1MUSC O02P314451   4.404   7.464   0.236
    1MUSC O02P414452   4.521   7.473   0.451
    1MUSC O02P514453   4.352   7.464   3.461
    1MUSC O02P614454   4.053   7.473   1.240
    1MUSC O02P714455   4.660   7.284   3.453
    1MUSC O02P814456   4.266   7.653   1.248
    1MUSC O02P914457   4.097   7.284   0.245
    1MUSC O02PA14458   4.308   7.653   0.442
    1MUSC O02PB14459   4.520   7.533   3.672
    1MUSC O02PC14460   4.406   7.404   1.029
    1MUSC O02PD14461   4.237   7.533   0.025
    1MUSC O02PE14462   4.168   7.404   0.662
    1MUSC O02PF14463   4.498   7.570   0.006
    1MUSC O02PG14464   4.427   7.367   0.681
    1MUSC O02PH14465   4.259   7.570   3.692
    1MUSC O02PI14466   4.147   7.367   1.009
    1MUSC O02PJ14467   4.398   7.326   0.006
    1MUSC O02PK14468   4.527   7.611   0.681
    1MUSC O02PL14469   4.358   7.326   3.691
    1MUSC O02PM14470   4.047   7.611   1.010
    1MUSC O02PN14471   4.660   7.642   3.461
    1MUSC O02PO14472   4.266   7.295   1.240
    1MUSC O02PP14473   4.097   7.642   0.236
    1MUSC O02PQ14474   4.308   7.295   0.451
    1MUSC K009L14475   4.195   7.785   1.849
    1MUSC K009M14476   3.844   8.057   2.852
    1MUSC K009N14477   3.935   7.332   1.849
    1MUSC K009O14478   4.104   7.605   2.852
    1MUSC Al0Ov14479   4.023   7.769   2.350
    1MUSC Al0Ow14480   4.016   8.074   2.351
    1MUSC Al0Ox14481   4.368   7.769   1.348
    1MUSC Al0Oy14482   4.192   8.074   3.353
    1MUSC Al0Oz14483   4.283   7.316   2.350
    1MUSC Al0P014484   4.277   7.621   2.351
    1MUSC Al0P114485   4.108   7.316   1.348
    1MUSC Al0P214486   3.931   7.621   3.353
    1MUSC Si0np14487   4.198   8.084   1.614
    1MUSC Si0nq14488   3.841   7.759   3.087
    1MUSC Si0nr14489   4.192   8.084   2.084
    1MUSC Si0ns14490   4.367   7.759   2.617
    1MUSC Si0nt14491   3.939   7.928   2.084
    1MUSC Si0nu14492   4.100   7.914   2.617
    1MUSC Si0nv14493   4.452   7.928   1.613
    1MUSC Si0nw14494   4.108   7.914   3.088
    1MUSC Si0nx14495   4.459   7.631   1.614
    1MUSC Si0ny14496   4.101   7.306   3.087
    1MUSC Si0nz14497   3.932   7.631   2.084
    1MUSC Si0o014498   4.107   7.306   2.617
    1MUSC Si0o114499   4.199   7.476   2.084
    1MUSC Si0o214500   4.360   7.461   2.617
    1MUSC Si0o314501   4.192   7.476   1.613
    1MUSC Si0o414502   3.848   7.461   3.088
    1MUSC O02PR14503   3.961   7.917   2.243
    1MUSC O02PS14504   4.078   7.925   2.458
    1MUSC O02PT14505   4.430   7.917   1.454
    1MUSC O02PU14506   4.130   7.925   3.247
    1MUSC O02PV14507   4.217   7.737   1.446
    1MUSC O02PW14508   3.822   8.105   3.255
    1MUSC O02PX14509   4.174   7.737   2.252
    1MUSC O02PY14510   4.385   8.105   2.449
    1MUSC O02PZ14511   4.076   7.986   1.665
    1MUSC O02Pa14512   3.963   7.856   3.036
    1MUSC O02Pb14513   4.314   7.986   2.032
    1MUSC O02Pc14514   4.245   7.856   2.669
    1MUSC O02Pd14515   4.055   8.023   2.013
    1MUSC O02Pe14516   3.984   7.819   2.688
    1MUSC O02Pf14517   4.336   8.023   1.685
    1MUSC O02Pg14518   4.224   7.819   3.016
    1MUSC O02Ph14519   3.955   7.779   2.013
    1MUSC O02Pi14520   4.084   8.063   2.688
    1MUSC O02Pj14521   4.436   7.779   1.684
    1MUSC O02Pk14522   4.124   8.063   3.017
    1MUSC O02Pl14523   4.217   8.095   1.454
    1MUSC O02Pm14524   3.822   7.747   3.247
    1MUSC O02Pn14525   4.174   8.095   2.243
    1MUSC O02Po14526   4.385   7.747   2.458
    1MUSC O02Pp14527   4.221   7.464   2.243
    1MUSC O02Pq14528   4.338   7.473   2.458
    1MUSC O02Pr14529   4.169   7.464   1.454
    1MUSC O02Ps14530   3.870   7.473   3.247
    1MUSC O02Pt14531   4.477   7.284   1.446
    1MUSC O02Pu14532   4.083   7.653   3.255
    1MUSC O02Pv14533   3.914   7.284   2.252
    1MUSC O02Pw14534   4.125   7.653   2.449
    1MUSC O02Px14535   4.337   7.533   1.665
    1MUSC O02Py14536   4.223   7.404   3.036
    1MUSC O02Pz14537   4.054   7.533   2.032
    1MUSC O02Q014538   3.985   7.404   2.669
    1MUSC O02Q114539   4.315   7.570   2.013
    1MUSC O02Q214540   4.244   7.367   2.688
    1MUSC O02Q314541   4.076   7.570   1.685
    1MUSC O02Q414542   3.964   7.367   3.016
    1MUSC O02Q514543   4.215   7.326   2.013
    1MUSC O02Q614544   4.344   7.611   2.688
    1MUSC O02Q714545   4.175   7.326   1.684
    1MUSC O02Q814546   3.864   7.611   3.017
    1MUSC O02Q914547   4.477   7.642   1.454
    1MUSC O02QA14548   4.083   7.295   3.247
    1MUSC O02QB14549   3.914   7.642   2.243
    1MUSC O02QC14550   4.125   7.295   2.458
    1MUSC K009P14551   4.027   8.962   0.845
    1MUSC K009Q14552   4.287   8.510   0.845
    1MUSC Al0P314553   4.206   8.674   0.343
    1MUSC Al0P414554   4.199   8.979   0.344
    1MUSC Al0P514555   4.551   8.674   3.355
    1MUSC Al0P614556   4.375   8.979   1.346
    1MUSC Al0P714557   4.466   8.221   0.343
    1MUSC Al0P814558   4.460   8.526   0.344
    1MUSC Al0P914559   4.291   8.221   3.355
    1MUSC Al0PA14560   4.114   8.526   1.346
    1MUSC Si0o514561   4.381   8.989   3.621
    1MUSC Si0o614562   4.024   8.664   1.080
    1MUSC Si0o714563   4.375   8.989   0.077
    1MUSC Si0o814564   4.550   8.664   0.610
    1MUSC Si0o914565   4.122   8.834   0.077
    1MUSC Si0oA14566   4.283   8.819   0.610
    1MUSC Si0oB14567   4.635   8.834   3.620
    1MUSC Si0oC14568   4.291   8.819   1.081
    1MUSC Si0oD14569   4.642   8.536   3.621
    1MUSC Si0oE14570   4.284   8.211   1.080
    1MUSC Si0oF14571   4.115   8.536   0.077
    1MUSC Si0oG14572   4.290   8.211   0.610
    1MUSC Si0oH14573   4.382   8.381   0.077
    1MUSC Si0oI14574   4.543   8.367   0.610
    1MUSC Si0oJ14575   4.375   8.381   3.620
    1MUSC Si0oK14576   4.031   8.367   1.081
    1MUSC O02QD14577   4.144   8.822   0.236
    1MUSC O02QE14578   4.261   8.831   0.451
    1MUSC O02QF14579   4.613   8.822   3.461
    1MUSC O02QG14580   4.313   8.831   1.240
    1MUSC O02QH14581   4.400   8.642   3.453
    1MUSC O02QI14582   4.005   9.010   1.248
    1MUSC O02QJ14583   4.357   8.642   0.245
    1MUSC O02QK14584   4.568   9.010   0.442
    1MUSC O02QL14585   4.259   8.891   3.672
    1MUSC O02QM14586   4.146   8.762   1.029
    1MUSC O02QN14587   4.497   8.891   0.025
    1MUSC O02QO14588   4.428   8.762   0.662
    1MUSC O02QP14589   4.238   8.928   0.006
    1MUSC O02QQ14590   4.167   8.725   0.681
    1MUSC O02QR14591   4.519   8.928   3.692
    1MUSC O02QS14592   4.407   8.725   1.009
    1MUSC O02QT14593   4.138   8.684   0.006
    1MUSC O02QU14594   4.267   8.968   0.681
    1MUSC O02QV14595   4.619   8.684   3.691
    1MUSC O02QW14596   4.307   8.968   1.010
    1MUSC O02QX14597   4.400   9.000   3.461
    1MUSC O02QY14598   4.005   8.652   1.240
    1MUSC O02QZ14599   4.357   9.000   0.236
    1MUSC O02Qa14600   4.568   8.652   0.451
    1MUSC O02Qb14601   4.404   8.370   0.236
    1MUSC O02Qc14602   4.521   8.378   0.451
    1MUSC O02Qd14603   4.352   8.370   3.461
    1MUSC O02Qe14604   4.053   8.378   1.240
    1MUSC O02Qf14605   4.660   8.190   3.453
    1MUSC O02Qg14606   4.266   8.558   1.248
    1MUSC O02Qh14607   4.097   8.190   0.245
    1MUSC O02Qi14608   4.308   8.558   0.442
    1MUSC O02Qj14609   4.520   8.438   3.672
    1MUSC O02Qk14610   4.406   8.309   1.029
    1MUSC O02Ql14611   4.237   8.438   0.025
    1MUSC O02Qm14612   4.168   8.309   0.662
    1MUSC O02Qn14613   4.498   8.475   0.006
    1MUSC O02Qo14614   4.427   8.272   0.681
    1MUSC O02Qp14615   4.259   8.475   3.692
    1MUSC O02Qq14616   4.147   8.272   1.009
    1MUSC O02Qr14617   4.398   8.232   0.006
    1MUSC O02Qs14618   4.527   8.516   0.681
    1MUSC O02Qt14619   4.358   8.232   3.691
    1MUSC O02Qu14620   4.047   8.516   1.010
    1MUSC O02Qv14621   4.660   8.548   3.461
    1MUSC O02Qw14622   4.266   8.200   1.240
    1MUSC O02Qx14623   4.097   8.548   0.236
    1MUSC O02Qy14624   4.308   8.200   0.451
    1MUSC K009R14625   4.195   8.690   1.849
    1MUSC K009S14626   3.844   8.962   2.852
    1MUSC K009T14627   3.935   8.238   1.849
    1MUSC K009U14628   4.104   8.510   2.852
    1MUSC Al0PB14629   4.023   8.674   2.350
    1MUSC Al0PC14630   4.016   8.979   2.351
    1MUSC Al0PD14631   4.368   8.674   1.348
    1MUSC Al0PE14632   4.192   8.979   3.353
    1MUSC Al0PF14633   4.283   8.221   2.350
    1MUSC Al0PG14634   4.277   8.526   2.351
    1MUSC Al0PH14635   4.108   8.221   1.348
    1MUSC Al0PI14636   3.931   8.526   3.353
    1MUSC Si0oL14637   4.198   8.989   1.614
    1MUSC Si0oM14638   3.841   8.664   3.087
    1MUSC Si0oN14639   4.192   8.989   2.084
    1MUSC Si0oO14640   4.367   8.664   2.617
    1MUSC Si0oP14641   3.939   8.834   2.084
    1MUSC Si0oQ14642   4.100   8.819   2.617
    1MUSC Si0oR14643   4.452   8.834   1.613
    1MUSC Si0oS14644   4.108   8.819   3.088
    1MUSC Si0oT14645   4.459   8.536   1.614
    1MUSC Si0oU14646   4.101   8.211   3.087
    1MUSC Si0oV14647   3.932   8.536   2.084
    1MUSC Si0oW14648   4.107   8.211   2.617
    1MUSC Si0oX14649   4.199   8.381   2.084
    1MUSC Si0oY14650   4.360   8.367   2.617
    1MUSC Si0oZ14651   4.192   8.381   1.613
    1MUSC Si0oa14652   3.848   8.367   3.088
    1MUSC O02Qz14653   3.961   8.822   2.243
    1MUSC O02R014654   4.078   8.831   2.458
    1MUSC O02R114655   4.430   8.822   1.454
    1MUSC O02R214656   4.130   8.831   3.247
    1MUSC O02R314657   4.217   8.642   1.446
    1MUSC O02R414658   3.822   9.010   3.255
    1MUSC O02R514659   4.174   8.642   2.252
    1MUSC O02R614660   4.385   9.010   2.449
    1MUSC O02R714661   4.076   8.891   1.665
    1MUSC O02R814662   3.963   8.762   3.036
    1MUSC O02R914663   4.314   8.891   2.032
    1MUSC O02RA14664   4.245   8.762   2.669
    1MUSC O02RB14665   4.055   8.928   2.013
    1MUSC O02RC14666   3.984   8.725   2.688
    1MUSC O02RD14667   4.336   8.928   1.685
    1MUSC O02RE14668   4.224   8.725   3.016
    1MUSC O02RF14669   3.955   8.684   2.013
    1MUSC O02RG14670   4.084   8.968   2.688
    1MUSC O02RH14671   4.436   8.684   1.684
    1MUSC O02RI14672   4.124   8.968   3.017
    1MUSC O02RJ14673   4.217   9.000   1.454
    1MUSC O02RK14674   3.822   8.652   3.247
    1MUSC O02RL14675   4.174   9.000   2.243
    1MUSC O02RM14676   4.385   8.652   2.458
    1MUSC O02RN14677   4.221   8.370   2.243
    1MUSC O02RO14678   4.338   8.378   2.458
    1MUSC O02RP14679   4.169   8.370   1.454
    1MUSC O02RQ14680   3.870   8.378   3.247
    1MUSC O02RR14681   4.477   8.190   1.446
    1MUSC O02RS14682   4.083   8.558   3.255
    1MUSC O02RT14683   3.914   8.190   2.252
    1MUSC O02RU14684   4.125   8.558   2.449
    1MUSC O02RV14685   4.337   8.438   1.665
    1MUSC O02RW14686   4.223   8.309   3.036
    1MUSC O02RX14687   4.054   8.438   2.032
    1MUSC O02RY14688   3.985   8.309   2.669
    1MUSC O02RZ14689   4.315   8.475   2.013
    1MUSC O02Ra14690   4.244   8.272   2.688
    1MUSC O02Rb14691   4.076   8.475   1.685
    1MUSC O02Rc14692   3.964   8.272   3.016
    1MUSC O02Rd14693   4.215   8.232   2.013
    1MUSC O02Re14694   4.344   8.516   2.688
    1MUSC O02Rf14695   4.175   8.232   1.684
    1MUSC O02Rg14696   3.864   8.516   3.017
    1MUSC O02Rh14697   4.477   8.548   1.454
    1MUSC O02Ri14698   4.083   8.200   3.247
    1MUSC O02Rj14699   3.914   8.548   2.243
    1MUSC O02Rk14700   4.125   8.200   2.458
    1MUSC K009V14701   4.027   9.868   0.845
    1MUSC K009W14702   4.287   9.415   0.845
    1MUSC Al0PJ14703   4.206   9.579   0.343
    1MUSC Al0PK14704   4.199   9.884   0.344
    1MUSC Al0PL14705   4.551   9.579   3.355
    1MUSC Al0PM14706   4.375   9.884   1.346
    1MUSC Al0PN14707   4.466   9.126   0.343
    1MUSC Al0PO14708   4.460   9.432   0.344
    1MUSC Al0PP14709   4.291   9.126   3.355
    1MUSC Al0PQ14710   4.114   9.432   1.346
    1MUSC Si0ob14711   4.381   9.894   3.621
    1MUSC Si0oc14712   4.024   9.569   1.080
    1MUSC Si0od14713   4.375   9.894   0.077
    1MUSC Si0oe14714   4.550   9.569   0.610
    1MUSC Si0of14715   4.122   9.739   0.077
    1MUSC Si0og14716   4.283   9.724   0.610
    1MUSC Si0oh14717   4.635   9.739   3.620
    1MUSC Si0oi14718   4.291   9.724   1.081
    1MUSC Si0oj14719   4.642   9.441   3.621
    1MUSC Si0ok14720   4.284   9.117   1.080
    1MUSC Si0ol14721   4.115   9.441   0.077
    1MUSC Si0om14722   4.290   9.117   0.610
    1MUSC Si0on14723   4.382   9.286   0.077
    1MUSC Si0oo14724   4.543   9.272   0.610
    1MUSC Si0op14725   4.375   9.286   3.620
    1MUSC Si0oq14726   4.031   9.272   1.081
    1MUSC O02Rl14727   4.144   9.728   0.236
    1MUSC O02Rm14728   4.261   9.736   0.451
    1MUSC O02Rn14729   4.613   9.728   3.461
    1MUSC O02Ro14730   4.313   9.736   1.240
    1MUSC O02Rp14731   4.400   9.548   3.453
    1MUSC O02Rq14732   4.005   9.916   1.248
    1MUSC O02Rr14733   4.357   9.548   0.245
    1MUSC O02Rs14734   4.568   9.916   0.442
    1MUSC O02Rt14735   4.259   9.796   3.672
    1MUSC O02Ru14736   4.146   9.667   1.029
    1MUSC O02Rv14737   4.497   9.796   0.025
    1MUSC O02Rw14738   4.428   9.667   0.662
    1MUSC O02Rx14739   4.238   9.833   0.006
    1MUSC O02Ry14740   4.167   9.630   0.681
    1MUSC O02Rz14741   4.519   9.833   3.692
    1MUSC O02S014742   4.407   9.630   1.009
    1MUSC O02S114743   4.138   9.590   0.006
    1MUSC O02S214744   4.267   9.874   0.681
    1MUSC O02S314745   4.619   9.590   3.691
    1MUSC O02S414746   4.307   9.874   1.010
    1MUSC O02S514747   4.400   9.906   3.461
    1MUSC O02S614748   4.005   9.558   1.240
    1MUSC O02S714749   4.357   9.906   0.236
    1MUSC O02S814750   4.568   9.558   0.451
    1MUSC O02S914751   4.404   9.275   0.236
    1MUSC O02SA14752   4.521   9.283   0.451
    1MUSC O02SB14753   4.352   9.275   3.461
    1MUSC O02SC14754   4.053   9.283   1.240
    1MUSC O02SD14755   4.660   9.095   3.453
    1MUSC O02SE14756   4.266   9.463   1.248
    1MUSC O02SF14757   4.097   9.095   0.245
    1MUSC O02SG14758   4.308   9.463   0.442
    1MUSC O02SH14759   4.520   9.344   3.672
    1MUSC O02SI14760   4.406   9.214   1.029
    1MUSC O02SJ14761   4.237   9.344   0.025
    1MUSC O02SK14762   4.168   9.214   0.662
    1MUSC O02SL14763   4.498   9.381   0.006
    1MUSC O02SM14764   4.427   9.177   0.681
    1MUSC O02SN14765   4.259   9.381   3.692
    1MUSC O02SO14766   4.147   9.177   1.009
    1MUSC O02SP14767   4.398   9.137   0.006
    1MUSC O02SQ14768   4.527   9.421   0.681
    1MUSC O02SR14769   4.358   9.137   3.691
    1MUSC O02SS14770   4.047   9.421   1.010
    1MUSC O02ST14771   4.660   9.453   3.461
    1MUSC O02SU14772   4.266   9.105   1.240
    1MUSC O02SV14773   4.097   9.453   0.236
    1MUSC O02SW14774   4.308   9.105   0.451
    1MUSC K009X14775   4.195   9.596   1.849
    1MUSC K009Y14776   3.844   9.868   2.852
    1MUSC K009Z14777   3.935   9.143   1.849
    1MUSC K009a14778   4.104   9.415   2.852
    1MUSC Al0PR14779   4.023   9.579   2.350
    1MUSC Al0PS14780   4.016   9.884   2.351
    1MUSC Al0PT14781   4.368   9.579   1.348
    1MUSC Al0PU14782   4.192   9.884   3.353
    1MUSC Al0PV14783   4.283   9.126   2.350
    1MUSC Al0PW14784   4.277   9.432   2.351
    1MUSC Al0PX14785   4.108   9.126   1.348
    1MUSC Al0PY14786   3.931   9.432   3.353
    1MUSC Si0or14787   4.198   9.894   1.614
    1MUSC Si0os14788   3.841   9.569   3.087
    1MUSC Si0ot14789   4.192   9.894   2.084
    1MUSC Si0ou14790   4.367   9.569   2.617
    1MUSC Si0ov14791   3.939   9.739   2.084
    1MUSC Si0ow14792   4.100   9.724   2.617
    1MUSC Si0ox14793   4.452   9.739   1.613
    1MUSC Si0oy14794   4.108   9.724   3.088
    1MUSC Si0oz14795   4.459   9.441   1.614
    1MUSC Si0p014796   4.101   9.117   3.087
    1MUSC Si0p114797   3.932   9.441   2.084
    1MUSC Si0p214798   4.107   9.117   2.617
    1MUSC Si0p314799   4.199   9.286   2.084
    1MUSC Si0p414800   4.360   9.272   2.617
    1MUSC Si0p514801   4.192   9.286   1.613
    1MUSC Si0p614802   3.848   9.272   3.088
    1MUSC O02SX14803   3.961   9.728   2.243
    1MUSC O02SY14804   4.078   9.736   2.458
    1MUSC O02SZ14805   4.430   9.728   1.454
    1MUSC O02Sa14806   4.130   9.736   3.247
    1MUSC O02Sb14807   4.217   9.548   1.446
    1MUSC O02Sc14808   3.822   9.916   3.255
    1MUSC O02Sd14809   4.174   9.548   2.252
    1MUSC O02Se14810   4.385   9.916   2.449
    1MUSC O02Sf14811   4.076   9.796   1.665
    1MUSC O02Sg14812   3.963   9.667   3.036
    1MUSC O02Sh14813   4.314   9.796   2.032
    1MUSC O02Si14814   4.245   9.667   2.669
    1MUSC O02Sj14815   4.055   9.833   2.013
    1MUSC O02Sk14816   3.984   9.630   2.688
    1MUSC O02Sl14817   4.336   9.833   1.685
    1MUSC O02Sm14818   4.224   9.630   3.016
    1MUSC O02Sn14819   3.955   9.590   2.013
    1MUSC O02So14820   4.084   9.874   2.688
    1MUSC O02Sp14821   4.436   9.590   1.684
    1MUSC O02Sq14822   4.124   9.874   3.017
    1MUSC O02Sr14823   4.217   9.906   1.454
    1MUSC O02Ss14824   3.822   9.558   3.247
    1MUSC O02St14825   4.174   9.906   2.243
    1MUSC O02Su14826   4.385   9.558   2.458
    1MUSC O02Sv14827   4.221   9.275   2.243
    1MUSC O02Sw14828   4.338   9.283   2.458
    1MUSC O02Sx14829   4.169   9.275   1.454
    1MUSC O02Sy14830   3.870   9.283   3.247
    1MUSC O02Sz14831   4.477   9.095   1.446
    1MUSC O02T014832   4.083   9.463   3.255
    1MUSC O02T114833   3.914   9.095   2.252
    1MUSC O02T214834   4.125   9.463   2.449
    1MUSC O02T314835   4.337   9.344   1.665
    1MUSC O02T414836   4.223   9.214   3.036
    1MUSC O02T514837   4.054   9.344   2.032
    1MUSC O02T614838   3.985   9.214   2.669
    1MUSC O02T714839   4.315   9.381   2.013
    1MUSC O02T814840   4.244   9.177   2.688
    1MUSC O02T914841   4.076   9.381   1.685
    1MUSC O02TA14842   3.964   9.177   3.016
    1MUSC O02TB14843   4.215   9.137   2.013
    1MUSC O02TC14844   4.344   9.421   2.688
    1MUSC O02TD14845   4.175   9.137   1.684
    1MUSC O02TE14846   3.864   9.421   3.017
    1MUSC O02TF14847   4.477   9.453   1.454
    1MUSC O02TG14848   4.083   9.105   3.247
    1MUSC O02TH14849   3.914   9.453   2.243
    1MUSC O02TI14850   4.125   9.105   2.458
    1MUSC K009b14851   4.547   0.815   0.845
    1MUSC K009c14852   4.807   0.362   0.845
    1MUSC Al0PZ14853   4.726   0.526   0.343
    1MUSC Al0Pa14854   4.720   0.831   0.344
    1MUSC Al0Pb14855   5.072   0.526   3.355
    1MUSC Al0Pc14856   4.895   0.831   1.346
    1MUSC Al0Pd14857   4.987   0.074   0.343
    1MUSC Al0Pe14858   4.980   0.379   0.344
    1MUSC Al0Pf14859   4.811   0.074   3.355
    1MUSC Al0Pg14860   4.635   0.379   1.346
    1MUSC Si0p714861   4.902   0.841   3.621
    1MUSC Si0p814862   4.544   0.517   1.080
    1MUSC Si0p914863   4.896   0.841   0.077
    1MUSC Si0pA14864   5.071   0.517   0.610
    1MUSC Si0pB14865   4.643   0.686   0.077
    1MUSC Si0pC14866   4.804   0.672   0.610
    1MUSC Si0pD14867   5.155   0.686   3.620
    1MUSC Si0pE14868   4.811   0.672   1.081
    1MUSC Si0pF14869   5.162   0.389   3.621
    1MUSC Si0pG14870   4.804   0.064   1.080
    1MUSC Si0pH14871   4.636   0.389   0.077
    1MUSC Si0pI14872   4.810   0.064   0.610
    1MUSC Si0pJ14873   4.903   0.233   0.077
    1MUSC Si0pK14874   5.064   0.219   0.610
    1MUSC Si0pL14875   4.895   0.233   3.620
    1MUSC Si0pM14876   4.551   0.219   1.081
    1MUSC O02TJ14877   4.665   0.675   0.236
    1MUSC O02TK14878   4.781   0.683   0.451
    1MUSC O02TL14879   5.133   0.675   3.461
    1MUSC O02TM14880   4.833   0.683   1.240
    1MUSC O02TN14881   4.920   0.495   3.453
    1MUSC O02TO14882   4.526   0.863   1.248
    1MUSC O02TP14883   4.878   0.495   0.245
    1MUSC O02TQ14884   5.089   0.863   0.442
    1MUSC O02TR14885   4.780   0.744   3.672
    1MUSC O02TS14886   4.666   0.614   1.029
    1MUSC O02TT14887   5.018   0.744   0.025
    1MUSC O02TU14888   4.949   0.614   0.662
    1MUSC O02TV14889   4.759   0.781   0.006
    1MUSC O02TW14890   4.688   0.577   0.681
    1MUSC O02TX14891   5.039   0.781   3.692
    1MUSC O02TY14892   4.927   0.577   1.009
    1MUSC O02TZ14893   4.659   0.537   0.006
    1MUSC O02Ta14894   4.787   0.821   0.681
    1MUSC O02Tb14895   5.139   0.537   3.691
    1MUSC O02Tc14896   4.827   0.821   1.010
    1MUSC O02Td14897   4.920   0.853   3.461
    1MUSC O02Te14898   4.526   0.505   1.240
    1MUSC O02Tf14899   4.878   0.853   0.236
    1MUSC O02Tg14900   5.089   0.505   0.451
    1MUSC O02Th14901   4.925   0.222   0.236
    1MUSC O02Ti14902   5.042   0.230   0.451
    1MUSC O02Tj14903   4.873   0.222   3.461
    1MUSC O02Tk14904   4.573   0.230   1.240
    1MUSC O02Tl14905   5.180   0.042   3.453
    1MUSC O02Tm14906   4.786   0.410   1.248
    1MUSC O02Tn14907   4.617   0.042   0.245
    1MUSC O02To14908   4.829   0.410   0.442
    1MUSC O02Tp14909   5.040   0.291   3.672
    1MUSC O02Tq14910   4.926   0.162   1.029
    1MUSC O02Tr14911   4.758   0.291   0.025
    1MUSC O02Ts14912   4.688   0.162   0.662
    1MUSC O02Tt14913   5.019   0.328   0.006
    1MUSC O02Tu14914   4.948   0.125   0.681
    1MUSC O02Tv14915   4.779   0.328   3.692
    1MUSC O02Tw14916   4.667   0.125   1.009
    1MUSC O02Tx14917   4.919   0.084   0.006
    1MUSC O02Ty14918   5.048   0.368   0.681
    1MUSC O02Tz14919   4.879   0.084   3.691
    1MUSC O02U014920   4.567   0.368   1.010
    1MUSC O02U114921   5.180   0.400   3.461
    1MUSC O02U214922   4.786   0.052   1.240
    1MUSC O02U314923   4.617   0.400   0.236
    1MUSC O02U414924   4.829   0.052   0.451
    1MUSC K009d14925   4.716   0.543   1.849
    1MUSC K009e14926   4.364   0.815   2.852
    1MUSC K009f14927   4.456   0.090   1.849
    1MUSC K009g14928   4.624   0.362   2.852
    1MUSC Al0Ph14929   4.543   0.526   2.350
    1MUSC Al0Pi14930   4.537   0.831   2.351
    1MUSC Al0Pj14931   4.889   0.526   1.348
    1MUSC Al0Pk14932   4.712   0.831   3.353
    1MUSC Al0Pl14933   4.804   0.074   2.350
    1MUSC Al0Pm14934   4.797   0.379   2.351
    1MUSC Al0Pn14935   4.628   0.074   1.348
    1MUSC Al0Po14936   4.452   0.379   3.353
    1MUSC Si0pN14937   4.719   0.841   1.614
    1MUSC Si0pO14938   4.361   0.517   3.087
    1MUSC Si0pP14939   4.713   0.841   2.084
    1MUSC Si0pQ14940   4.888   0.517   2.617
    1MUSC Si0pR14941   4.460   0.686   2.084
    1MUSC Si0pS14942   4.621   0.672   2.617
    1MUSC Si0pT14943   4.972   0.686   1.613
    1MUSC Si0pU14944   4.628   0.672   3.088
    1MUSC Si0pV14945   4.979   0.389   1.614
    1MUSC Si0pW14946   4.621   0.064   3.087
    1MUSC Si0pX14947   4.453   0.389   2.084
    1MUSC Si0pY14948   4.627   0.064   2.617
    1MUSC Si0pZ14949   4.720   0.233   2.084
    1MUSC Si0pa14950   4.881   0.219   2.617
    1MUSC Si0pb14951   4.712   0.233   1.613
    1MUSC Si0pc14952   4.368   0.219   3.088
    1MUSC O02U514953   4.482   0.675   2.243
    1MUSC O02U614954   4.598   0.683   2.458
    1MUSC O02U714955   4.950   0.675   1.454
    1MUSC O02U814956   4.650   0.683   3.247
    1MUSC O02U914957   4.737   0.495   1.446
    1MUSC O02UA14958   4.343   0.863   3.255
    1MUSC O02UB14959   4.695   0.495   2.252
    1MUSC O02UC14960   4.906   0.863   2.449
    1MUSC O02UD14961   4.597   0.744   1.665
    1MUSC O02UE14962   4.483   0.614   3.036
    1MUSC O02UF14963   4.835   0.744   2.032
    1MUSC O02UG14964   4.766   0.614   2.669
    1MUSC O02UH14965   4.576   0.781   2.013
    1MUSC O02UI14966   4.505   0.577   2.688
    1MUSC O02UJ14967   4.856   0.781   1.685
    1MUSC O02UK14968   4.744   0.577   3.016
    1MUSC O02UL14969   4.476   0.537   2.013
    1MUSC O02UM14970   4.604   0.821   2.688
    1MUSC O02UN14971   4.956   0.537   1.684
    1MUSC O02UO14972   4.644   0.821   3.017
    1MUSC O02UP14973   4.737   0.853   1.454
    1MUSC O02UQ14974   4.343   0.505   3.247
    1MUSC O02UR14975   4.695   0.853   2.243
    1MUSC O02US14976   4.906   0.505   2.458
    1MUSC O02UT14977   4.742   0.222   2.243
    1MUSC O02UU14978   4.859   0.230   2.458
    1MUSC O02UV14979   4.690   0.222   1.454
    1MUSC O02UW14980   4.390   0.230   3.247
    1MUSC O02UX14981   4.997   0.042   1.446
    1MUSC O02UY14982   4.603   0.410   3.255
    1MUSC O02UZ14983   4.434   0.042   2.252
    1MUSC O02Ua14984   4.646   0.410   2.449
    1MUSC O02Ub14985   4.857   0.291   1.665
    1MUSC O02Uc14986   4.743   0.162   3.036
    1MUSC O02Ud14987   4.575   0.291   2.032
    1MUSC O02Ue14988   4.505   0.162   2.669
    1MUSC O02Uf14989   4.836   0.328   2.013
    1MUSC O02Ug14990   4.765   0.125   2.688
    1MUSC O02Uh14991   4.596   0.328   1.685
    1MUSC O02Ui14992   4.484   0.125   3.016
    1MUSC O02Uj14993   4.736   0.084   2.013
    1MUSC O02Uk14994   4.865   0.368   2.688
    1MUSC O02Ul14995   4.696   0.084   1.684
    1MUSC O02Um14996   4.384   0.368   3.017
    1MUSC O02Un14997   4.997   0.400   1.454
    1MUSC O02Uo14998   4.603   0.052   3.247
    1MUSC O02Up14999   4.434   0.400   2.243
    1MUSC O02Uq15000   4.646   0.052   2.458
    1MUSC K009h15001   4.547   1.720   0.845
    1MUSC K009i15002   4.807   1.268   0.845
    1MUSC Al0Pp15003   4.726   1.432   0.343
    1MUSC Al0Pq15004   4.720   1.737   0.344
    1MUSC Al0Pr15005   5.072   1.432   3.355
    1MUSC Al0Ps15006   4.895   1.737   1.346
    1MUSC Al0Pt15007   4.987   0.979   0.343
    1MUSC Al0Pu15008   4.980   1.284   0.344
    1MUSC Al0Pv15009   4.811   0.979   3.355
    1MUSC Al0Pw15010   4.635   1.284   1.346
    1MUSC Si0pd15011   4.902   1.747   3.621
    1MUSC Si0pe15012   4.544   1.422   1.080
    1MUSC Si0pf15013   4.896   1.747   0.077
    1MUSC Si0pg15014   5.071   1.422   0.610
    1MUSC Si0ph15015   4.643   1.591   0.077
    1MUSC Si0pi15016   4.804   1.577   0.610
    1MUSC Si0pj15017   5.155   1.591   3.620
    1MUSC Si0pk15018   4.811   1.577   1.081
    1MUSC Si0pl15019   5.162   1.294   3.621
    1MUSC Si0pm15020   4.804   0.969   1.080
    1MUSC Si0pn15021   4.636   1.294   0.077
    1MUSC Si0po15022   4.810   0.969   0.610
    1MUSC Si0pp15023   4.903   1.139   0.077
    1MUSC Si0pq15024   5.064   1.124   0.610
    1MUSC Si0pr15025   4.895   1.139   3.620
    1MUSC Si0ps15026   4.551   1.124   1.081
    1MUSC O02Ur15027   4.665   1.580   0.236
    1MUSC O02Us15028   4.781   1.588   0.451
    1MUSC O02Ut15029   5.133   1.580   3.461
    1MUSC O02Uu15030   4.833   1.588   1.240
    1MUSC O02Uv15031   4.920   1.400   3.453
    1MUSC O02Uw15032   4.526   1.768   1.248
    1MUSC O02Ux15033   4.878   1.400   0.245
    1MUSC O02Uy15034   5.089   1.768   0.442
    1MUSC O02Uz15035   4.780   1.649   3.672
    1MUSC O02V015036   4.666   1.520   1.029
    1MUSC O02V115037   5.018   1.649   0.025
    1MUSC O02V215038   4.949   1.520   0.662
    1MUSC O02V315039   4.759   1.686   0.006
    1MUSC O02V415040   4.688   1.483   0.681
    1MUSC O02V515041   5.039   1.686   3.692
    1MUSC O02V615042   4.927   1.483   1.009
    1MUSC O02V715043   4.659   1.442   0.006
    1MUSC O02V815044   4.787   1.726   0.681
    1MUSC O02V915045   5.139   1.442   3.691
    1MUSC O02VA15046   4.827   1.726   1.010
    1MUSC O02VB15047   4.920   1.758   3.461
    1MUSC O02VC15048   4.526   1.410   1.240
    1MUSC O02VD15049   4.878   1.758   0.236
    1MUSC O02VE15050   5.089   1.410   0.451
    1MUSC O02VF15051   4.925   1.127   0.236
    1MUSC O02VG15052   5.042   1.136   0.451
    1MUSC O02VH15053   4.873   1.127   3.461
    1MUSC O02VI15054   4.573   1.136   1.240
    1MUSC O02VJ15055   5.180   0.948   3.453
    1MUSC O02VK15056   4.786   1.316   1.248
    1MUSC O02VL15057   4.617   0.948   0.245
    1MUSC O02VM15058   4.829   1.316   0.442
    1MUSC O02VN15059   5.040   1.196   3.672
    1MUSC O02VO15060   4.926   1.067   1.029
    1MUSC O02VP15061   4.758   1.196   0.025
    1MUSC O02VQ15062   4.688   1.067   0.662
    1MUSC O02VR15063   5.019   1.233   0.006
    1MUSC O02VS15064   4.948   1.030   0.681
    1MUSC O02VT15065   4.779   1.233   3.692
    1MUSC O02VU15066   4.667   1.030   1.009
    1MUSC O02VV15067   4.919   0.990   0.006
    1MUSC O02VW15068   5.048   1.274   0.681
    1MUSC O02VX15069   4.879   0.990   3.691
    1MUSC O02VY15070   4.567   1.274   1.010
    1MUSC O02VZ15071   5.180   1.306   3.461
    1MUSC O02Va15072   4.786   0.958   1.240
    1MUSC O02Vb15073   4.617   1.306   0.236
    1MUSC O02Vc15074   4.829   0.958   0.451
    1MUSC K009j15075   4.716   1.448   1.849
    1MUSC K009k15076   4.364   1.720   2.852
    1MUSC K009l15077   4.456   0.996   1.849
    1MUSC K009m15078   4.624   1.268   2.852
    1MUSC Al0Px15079   4.543   1.432   2.350
    1MUSC Al0Py15080   4.537   1.737   2.351
    1MUSC Al0Pz15081   4.889   1.432   1.348
    1MUSC Al0Q015082   4.712   1.737   3.353
    1MUSC Al0Q115083   4.804   0.979   2.350
    1MUSC Al0Q215084   4.797   1.284   2.351
    1MUSC Al0Q315085   4.628   0.979   1.348
    1MUSC Al0Q415086   4.452   1.284   3.353
    1MUSC Si0pt15087   4.719   1.747   1.614
    1MUSC Si0pu15088   4.361   1.422   3.087
    1MUSC Si0pv15089   4.713   1.747   2.084
    1MUSC Si0pw15090   4.888   1.422   2.617
    1MUSC Si0px15091   4.460   1.591   2.084
    1MUSC Si0py15092   4.621   1.577   2.617
    1MUSC Si0pz15093   4.972   1.591   1.613
    1MUSC Si0q015094   4.628   1.577   3.088
    1MUSC Si0q115095   4.979   1.294   1.614
    1MUSC Si0q215096   4.621   0.969   3.087
    1MUSC Si0q315097   4.453   1.294   2.084
    1MUSC Si0q415098   4.627   0.969   2.617
    1MUSC Si0q515099   4.720   1.139   2.084
    1MUSC Si0q615100   4.881   1.124   2.617
    1MUSC Si0q715101   4.712   1.139   1.613
    1MUSC Si0q815102   4.368   1.124   3.088
    1MUSC O02Vd15103   4.482   1.580   2.243
    1MUSC O02Ve15104   4.598   1.588   2.458
    1MUSC O02Vf15105   4.950   1.580   1.454
    1MUSC O02Vg15106   4.650   1.588   3.247
    1MUSC O02Vh15107   4.737   1.400   1.446
    1MUSC O02Vi15108   4.343   1.768   3.255
    1MUSC O02Vj15109   4.695   1.400   2.252
    1MUSC O02Vk15110   4.906   1.768   2.449
    1MUSC O02Vl15111   4.597   1.649   1.665
    1MUSC O02Vm15112   4.483   1.520   3.036
    1MUSC O02Vn15113   4.835   1.649   2.032
    1MUSC O02Vo15114   4.766   1.520   2.669
    1MUSC O02Vp15115   4.576   1.686   2.013
    1MUSC O02Vq15116   4.505   1.483   2.688
    1MUSC O02Vr15117   4.856   1.686   1.685
    1MUSC O02Vs15118   4.744   1.483   3.016
    1MUSC O02Vt15119   4.476   1.442   2.013
    1MUSC O02Vu15120   4.604   1.726   2.688
    1MUSC O02Vv15121   4.956   1.442   1.684
    1MUSC O02Vw15122   4.644   1.726   3.017
    1MUSC O02Vx15123   4.737   1.758   1.454
    1MUSC O02Vy15124   4.343   1.410   3.247
    1MUSC O02Vz15125   4.695   1.758   2.243
    1MUSC O02W015126   4.906   1.410   2.458
    1MUSC O02W115127   4.742   1.127   2.243
    1MUSC O02W215128   4.859   1.136   2.458
    1MUSC O02W315129   4.690   1.127   1.454
    1MUSC O02W415130   4.390   1.136   3.247
    1MUSC O02W515131   4.997   0.948   1.446
    1MUSC O02W615132   4.603   1.316   3.255
    1MUSC O02W715133   4.434   0.948   2.252
    1MUSC O02W815134   4.646   1.316   2.449
    1MUSC O02W915135   4.857   1.196   1.665
    1MUSC O02WA15136   4.743   1.067   3.036
    1MUSC O02WB15137   4.575   1.196   2.032
    1MUSC O02WC15138   4.505   1.067   2.669
    1MUSC O02WD15139   4.836   1.233   2.013
    1MUSC O02WE15140   4.765   1.030   2.688
    1MUSC O02WF15141   4.596   1.233   1.685
    1MUSC O02WG15142   4.484   1.030   3.016
    1MUSC O02WH15143   4.736   0.990   2.013
    1MUSC O02WI15144   4.865   1.274   2.688
    1MUSC O02WJ15145   4.696   0.990   1.684
    1MUSC O02WK15146   4.384   1.274   3.017
    1MUSC O02WL15147   4.997   1.306   1.454
    1MUSC O02WM15148   4.603   0.958   3.247
    1MUSC O02WN15149   4.434   1.306   2.243
    1MUSC O02WO15150   4.646   0.958   2.458
    1MUSC K009n15151   4.547   2.626   0.845
    1MUSC K009o15152   4.807   2.173   0.845
    1MUSC Al0Q515153   4.726   2.337   0.343
    1MUSC Al0Q615154   4.720   2.642   0.344
    1MUSC Al0Q715155   5.072   2.337   3.355
    1MUSC Al0Q815156   4.895   2.642   1.346
    1MUSC Al0Q915157   4.987   1.884   0.343
    1MUSC Al0QA15158   4.980   2.189   0.344
    1MUSC Al0QB15159   4.811   1.884   3.355
    1MUSC Al0QC15160   4.635   2.189   1.346
    1MUSC Si0q915161   4.902   2.652   3.621
    1MUSC Si0qA15162   4.544   2.327   1.080
    1MUSC Si0qB15163   4.896   2.652   0.077
    1MUSC Si0qC15164   5.071   2.327   0.610
    1MUSC Si0qD15165   4.643   2.497   0.077
    1MUSC Si0qE15166   4.804   2.482   0.610
    1MUSC Si0qF15167   5.155   2.497   3.620
    1MUSC Si0qG15168   4.811   2.482   1.081
    1MUSC Si0qH15169   5.162   2.199   3.621
    1MUSC Si0qI15170   4.804   1.874   1.080
    1MUSC Si0qJ15171   4.636   2.199   0.077
    1MUSC Si0qK15172   4.810   1.874   0.610
    1MUSC Si0qL15173   4.903   2.044   0.077
    1MUSC Si0qM15174   5.064   2.030   0.610
    1MUSC Si0qN15175   4.895   2.044   3.620
    1MUSC Si0qO15176   4.551   2.030   1.081
    1MUSC O02WP15177   4.665   2.485   0.236
    1MUSC O02WQ15178   4.781   2.494   0.451
    1MUSC O02WR15179   5.133   2.485   3.461
    1MUSC O02WS15180   4.833   2.494   1.240
    1MUSC O02WT15181   4.920   2.305   3.453
    1MUSC O02WU15182   4.526   2.674   1.248
    1MUSC O02WV15183   4.878   2.305   0.245
    1MUSC O02WW15184   5.089   2.674   0.442
    1MUSC O02WX15185   4.780   2.554   3.672
    1MUSC O02WY15186   4.666   2.425   1.029
    1MUSC O02WZ15187   5.018   2.554   0.025
    1MUSC O02Wa15188   4.949   2.425   0.662
    1MUSC O02Wb15189   4.759   2.591   0.006
    1MUSC O02Wc15190   4.688   2.388   0.681
    1MUSC O02Wd15191   5.039   2.591   3.692
    1MUSC O02We15192   4.927   2.388   1.009
    1MUSC O02Wf15193   4.659   2.347   0.006
    1MUSC O02Wg15194   4.787   2.632   0.681
    1MUSC O02Wh15195   5.139   2.347   3.691
    1MUSC O02Wi15196   4.827   2.632   1.010
    1MUSC O02Wj15197   4.920   2.663   3.461
    1MUSC O02Wk15198   4.526   2.316   1.240
    1MUSC O02Wl15199   4.878   2.663   0.236
    1MUSC O02Wm15200   5.089   2.316   0.451
    1MUSC O02Wn15201   4.925   2.033   0.236
    1MUSC O02Wo15202   5.042   2.041   0.451
    1MUSC O02Wp15203   4.873   2.033   3.461
    1MUSC O02Wq15204   4.573   2.041   1.240
    1MUSC O02Wr15205   5.180   1.853   3.453
    1MUSC O02Ws15206   4.786   2.221   1.248
    1MUSC O02Wt15207   4.617   1.853   0.245
    1MUSC O02Wu15208   4.829   2.221   0.442
    1MUSC O02Wv15209   5.040   2.101   3.672
    1MUSC O02Ww15210   4.926   1.972   1.029
    1MUSC O02Wx15211   4.758   2.101   0.025
    1MUSC O02Wy15212   4.688   1.972   0.662
    1MUSC O02Wz15213   5.019   2.139   0.006
    1MUSC O02X015214   4.948   1.935   0.681
    1MUSC O02X115215   4.779   2.139   3.692
    1MUSC O02X215216   4.667   1.935   1.009
    1MUSC O02X315217   4.919   1.895   0.006
    1MUSC O02X415218   5.048   2.179   0.681
    1MUSC O02X515219   4.879   1.895   3.691
    1MUSC O02X615220   4.567   2.179   1.010
    1MUSC O02X715221   5.180   2.211   3.461
    1MUSC O02X815222   4.786   1.863   1.240
    1MUSC O02X915223   4.617   2.211   0.236
    1MUSC O02XA15224   4.829   1.863   0.451
    1MUSC K009p15225   4.716   2.353   1.849
    1MUSC K009q15226   4.364   2.626   2.852
    1MUSC K009r15227   4.456   1.901   1.849
    1MUSC K009s15228   4.624   2.173   2.852
    1MUSC Al0QD15229   4.543   2.337   2.350
    1MUSC Al0QE15230   4.537   2.642   2.351
    1MUSC Al0QF15231   4.889   2.337   1.348
    1MUSC Al0QG15232   4.712   2.642   3.353
    1MUSC Al0QH15233   4.804   1.884   2.350
    1MUSC Al0QI15234   4.797   2.189   2.351
    1MUSC Al0QJ15235   4.628   1.884   1.348
    1MUSC Al0QK15236   4.452   2.189   3.353
    1MUSC Si0qP15237   4.719   2.652   1.614
    1MUSC Si0qQ15238   4.361   2.327   3.087
    1MUSC Si0qR15239   4.713   2.652   2.084
    1MUSC Si0qS15240   4.888   2.327   2.617
    1MUSC Si0qT15241   4.460   2.497   2.084
    1MUSC Si0qU15242   4.621   2.482   2.617
    1MUSC Si0qV15243   4.972   2.497   1.613
    1MUSC Si0qW15244   4.628   2.482   3.088
    1MUSC Si0qX15245   4.979   2.199   1.614
    1MUSC Si0qY15246   4.621   1.874   3.087
    1MUSC Si0qZ15247   4.453   2.199   2.084
    1MUSC Si0qa15248   4.627   1.874   2.617
    1MUSC Si0qb15249   4.720   2.044   2.084
    1MUSC Si0qc15250   4.881   2.030   2.617
    1MUSC Si0qd15251   4.712   2.044   1.613
    1MUSC Si0qe15252   4.368   2.030   3.088
    1MUSC O02XB15253   4.482   2.485   2.243
    1MUSC O02XC15254   4.598   2.494   2.458
    1MUSC O02XD15255   4.950   2.485   1.454
    1MUSC O02XE15256   4.650   2.494   3.247
    1MUSC O02XF15257   4.737   2.305   1.446
    1MUSC O02XG15258   4.343   2.674   3.255
    1MUSC O02XH15259   4.695   2.305   2.252
    1MUSC O02XI15260   4.906   2.674   2.449
    1MUSC O02XJ15261   4.597   2.554   1.665
    1MUSC O02XK15262   4.483   2.425   3.036
    1MUSC O02XL15263   4.835   2.554   2.032
    1MUSC O02XM15264   4.766   2.425   2.669
    1MUSC O02XN15265   4.576   2.591   2.013
    1MUSC O02XO15266   4.505   2.388   2.688
    1MUSC O02XP15267   4.856   2.591   1.685
    1MUSC O02XQ15268   4.744   2.388   3.016
    1MUSC O02XR15269   4.476   2.347   2.013
    1MUSC O02XS15270   4.604   2.632   2.688
    1MUSC O02XT15271   4.956   2.347   1.684
    1MUSC O02XU15272   4.644   2.632   3.017
    1MUSC O02XV15273   4.737   2.663   1.454
    1MUSC O02XW15274   4.343   2.316   3.247
    1MUSC O02XX15275   4.695   2.663   2.243
    1MUSC O02XY15276   4.906   2.316   2.458
    1MUSC O02XZ15277   4.742   2.033   2.243
    1MUSC O02Xa15278   4.859   2.041   2.458
    1MUSC O02Xb15279   4.690   2.033   1.454
    1MUSC O02Xc15280   4.390   2.041   3.247
    1MUSC O02Xd15281   4.997   1.853   1.446
    1MUSC O02Xe15282   4.603   2.221   3.255
    1MUSC O02Xf15283   4.434   1.853   2.252
    1MUSC O02Xg15284   4.646   2.221   2.449
    1MUSC O02Xh15285   4.857   2.101   1.665
    1MUSC O02Xi15286   4.743   1.972   3.036
    1MUSC O02Xj15287   4.575   2.101   2.032
    1MUSC O02Xk15288   4.505   1.972   2.669
    1MUSC O02Xl15289   4.836   2.139   2.013
    1MUSC O02Xm15290   4.765   1.935   2.688
    1MUSC O02Xn15291   4.596   2.139   1.685
    1MUSC O02Xo15292   4.484   1.935   3.016
    1MUSC O02Xp15293   4.736   1.895   2.013
    1MUSC O02Xq15294   4.865   2.179   2.688
    1MUSC O02Xr15295   4.696   1.895   1.684
    1MUSC O02Xs15296   4.384   2.179   3.017
    1MUSC O02Xt15297   4.997   2.211   1.454
    1MUSC O02Xu15298   4.603   1.863   3.247
    1MUSC O02Xv15299   4.434   2.211   2.243
    1MUSC O02Xw15300   4.646   1.863   2.458
    1MUSC K009t15301   4.547   3.531   0.845
    1MUSC K009u15302   4.807   3.078   0.845
    1MUSC Al0QL15303   4.726   3.242   0.343
    1MUSC Al0QM15304   4.720   3.547   0.344
    1MUSC Al0QN15305   5.072   3.242   3.355
    1MUSC Al0QO15306   4.895   3.547   1.346
    1MUSC Al0QP15307   4.987   2.790   0.343
    1MUSC Al0QQ15308   4.980   3.095   0.344
    1MUSC Al0QR15309   4.811   2.790   3.355
    1MUSC Al0QS15310   4.635   3.095   1.346
    1MUSC Si0qf15311   4.902   3.557   3.621
    1MUSC Si0qg15312   4.544   3.232   1.080
    1MUSC Si0qh15313   4.896   3.557   0.077
    1MUSC Si0qi15314   5.071   3.232   0.610
    1MUSC Si0qj15315   4.643   3.402   0.077
    1MUSC Si0qk15316   4.804   3.388   0.610
    1MUSC Si0ql15317   5.155   3.402   3.620
    1MUSC Si0qm15318   4.811   3.388   1.081
    1MUSC Si0qn15319   5.162   3.105   3.621
    1MUSC Si0qo15320   4.804   2.780   1.080
    1MUSC Si0qp15321   4.636   3.105   0.077
    1MUSC Si0qq15322   4.810   2.780   0.610
    1MUSC Si0qr15323   4.903   2.949   0.077
    1MUSC Si0qs15324   5.064   2.935   0.610
    1MUSC Si0qt15325   4.895   2.949   3.620
    1MUSC Si0qu15326   4.551   2.935   1.081
    1MUSC O02Xx15327   4.665   3.391   0.236
    1MUSC O02Xy15328   4.781   3.399   0.451
    1MUSC O02Xz15329   5.133   3.391   3.461
    1MUSC O02Y015330   4.833   3.399   1.240
    1MUSC O02Y115331   4.920   3.211   3.453
    1MUSC O02Y215332   4.526   3.579   1.248
    1MUSC O02Y315333   4.878   3.211   0.245
    1MUSC O02Y415334   5.089   3.579   0.442
    1MUSC O02Y515335   4.780   3.459   3.672
    1MUSC O02Y615336   4.666   3.330   1.029
    1MUSC O02Y715337   5.018   3.459   0.025
    1MUSC O02Y815338   4.949   3.330   0.662
    1MUSC O02Y915339   4.759   3.496   0.006
    1MUSC O02YA15340   4.688   3.293   0.681
    1MUSC O02YB15341   5.039   3.496   3.692
    1MUSC O02YC15342   4.927   3.293   1.009
    1MUSC O02YD15343   4.659   3.253   0.006
    1MUSC O02YE15344   4.787   3.537   0.681
    1MUSC O02YF15345   5.139   3.253   3.691
    1MUSC O02YG15346   4.827   3.537   1.010
    1MUSC O02YH15347   4.920   3.569   3.461
    1MUSC O02YI15348   4.526   3.221   1.240
    1MUSC O02YJ15349   4.878   3.569   0.236
    1MUSC O02YK15350   5.089   3.221   0.451
    1MUSC O02YL15351   4.925   2.938   0.236
    1MUSC O02YM15352   5.042   2.946   0.451
    1MUSC O02YN15353   4.873   2.938   3.461
    1MUSC O02YO15354   4.573   2.946   1.240
    1MUSC O02YP15355   5.180   2.758   3.453
    1MUSC O02YQ15356   4.786   3.126   1.248
    1MUSC O02YR15357   4.617   2.758   0.245
    1MUSC O02YS15358   4.829   3.126   0.442
    1MUSC O02YT15359   5.040   3.007   3.672
    1MUSC O02YU15360   4.926   2.877   1.029
    1MUSC O02YV15361   4.758   3.007   0.025
    1MUSC O02YW15362   4.688   2.877   0.662
    1MUSC O02YX15363   5.019   3.044   0.006
    1MUSC O02YY15364   4.948   2.840   0.681
    1MUSC O02YZ15365   4.779   3.044   3.692
    1MUSC O02Ya15366   4.667   2.840   1.009
    1MUSC O02Yb15367   4.919   2.800   0.006
    1MUSC O02Yc15368   5.048   3.084   0.681
    1MUSC O02Yd15369   4.879   2.800   3.691
    1MUSC O02Ye15370   4.567   3.084   1.010
    1MUSC O02Yf15371   5.180   3.116   3.461
    1MUSC O02Yg15372   4.786   2.768   1.240
    1MUSC O02Yh15373   4.617   3.116   0.236
    1MUSC O02Yi15374   4.829   2.768   0.451
    1MUSC K009v15375   4.716   3.259   1.849
    1MUSC K009w15376   4.364   3.531   2.852
    1MUSC K009x15377   4.456   2.806   1.849
    1MUSC K009y15378   4.624   3.078   2.852
    1MUSC Al0QT15379   4.543   3.242   2.350
    1MUSC Al0QU15380   4.537   3.547   2.351
    1MUSC Al0QV15381   4.889   3.242   1.348
    1MUSC Al0QW15382   4.712   3.547   3.353
    1MUSC Al0QX15383   4.804   2.790   2.350
    1MUSC Al0QY15384   4.797   3.095   2.351
    1MUSC Al0QZ15385   4.628   2.790   1.348
    1MUSC Al0Qa15386   4.452   3.095   3.353
    1MUSC Si0qv15387   4.719   3.557   1.614
    1MUSC Si0qw15388   4.361   3.232   3.087
    1MUSC Si0qx15389   4.713   3.557   2.084
    1MUSC Si0qy15390   4.888   3.232   2.617
    1MUSC Si0qz15391   4.460   3.402   2.084
    1MUSC Si0r015392   4.621   3.388   2.617
    1MUSC Si0r115393   4.972   3.402   1.613
    1MUSC Si0r215394   4.628   3.388   3.088
    1MUSC Si0r315395   4.979   3.105   1.614
    1MUSC Si0r415396   4.621   2.780   3.087
    1MUSC Si0r515397   4.453   3.105   2.084
    1MUSC Si0r615398   4.627   2.780   2.617
    1MUSC Si0r715399   4.720   2.949   2.084
    1MUSC Si0r815400   4.881   2.935   2.617
    1MUSC Si0r915401   4.712   2.949   1.613
    1MUSC Si0rA15402   4.368   2.935   3.088
    1MUSC O02Yj15403   4.482   3.391   2.243
    1MUSC O02Yk15404   4.598   3.399   2.458
    1MUSC O02Yl15405   4.950   3.391   1.454
    1MUSC O02Ym15406   4.650   3.399   3.247
    1MUSC O02Yn15407   4.737   3.211   1.446
    1MUSC O02Yo15408   4.343   3.579   3.255
    1MUSC O02Yp15409   4.695   3.211   2.252
    1MUSC O02Yq15410   4.906   3.579   2.449
    1MUSC O02Yr15411   4.597   3.459   1.665
    1MUSC O02Ys15412   4.483   3.330   3.036
    1MUSC O02Yt15413   4.835   3.459   2.032
    1MUSC O02Yu15414   4.766   3.330   2.669
    1MUSC O02Yv15415   4.576   3.496   2.013
    1MUSC O02Yw15416   4.505   3.293   2.688
    1MUSC O02Yx15417   4.856   3.496   1.685
    1MUSC O02Yy15418   4.744   3.293   3.016
    1MUSC O02Yz15419   4.476   3.253   2.013
    1MUSC O02Z015420   4.604   3.537   2.688
    1MUSC O02Z115421   4.956   3.253   1.684
    1MUSC O02Z215422   4.644   3.537   3.017
    1MUSC O02Z315423   4.737   3.569   1.454
    1MUSC O02Z415424   4.343   3.221   3.247
    1MUSC O02Z515425   4.695   3.569   2.243
    1MUSC O02Z615426   4.906   3.221   2.458
    1MUSC O02Z715427   4.742   2.938   2.243
    1MUSC O02Z815428   4.859   2.946   2.458
    1MUSC O02Z915429   4.690   2.938   1.454
    1MUSC O02ZA15430   4.390   2.946   3.247
    1MUSC O02ZB15431   4.997   2.758   1.446
    1MUSC O02ZC15432   4.603   3.126   3.255
    1MUSC O02ZD15433   4.434   2.758   2.252
    1MUSC O02ZE15434   4.646   3.126   2.449
    1MUSC O02ZF15435   4.857   3.007   1.665
    1MUSC O02ZG15436   4.743   2.877   3.036
    1MUSC O02ZH15437   4.575   3.007   2.032
    1MUSC O02ZI15438   4.505   2.877   2.669
    1MUSC O02ZJ15439   4.836   3.044   2.013
    1MUSC O02ZK15440   4.765   2.840   2.688
    1MUSC O02ZL15441   4.596   3.044   1.685
    1MUSC O02ZM15442   4.484   2.840   3.016
    1MUSC O02ZN15443   4.736   2.800   2.013
    1MUSC O02ZO15444   4.865   3.084   2.688
    1MUSC O02ZP15445   4.696   2.800   1.684
    1MUSC O02ZQ15446   4.384   3.084   3.017
    1MUSC O02ZR15447   4.997   3.116   1.454
    1MUSC O02ZS15448   4.603   2.768   3.247
    1MUSC O02ZT15449   4.434   3.116   2.243
    1MUSC O02ZU15450   4.646   2.768   2.458
    1MUSC K009z15451   4.547   4.436   0.845
    1MUSC K00A015452   4.807   3.983   0.845
    1MUSC Al0Qb15453   4.726   4.147   0.343
    1MUSC Al0Qc15454   4.720   4.453   0.344
    1MUSC Al0Qd15455   5.072   4.147   3.355
    1MUSC Al0Qe15456   4.895   4.453   1.346
    1MUSC Al0Qf15457   4.987   3.695   0.343
    1MUSC Al0Qg15458   4.980   4.000   0.344
    1MUSC Al0Qh15459   4.811   3.695   3.355
    1MUSC Al0Qi15460   4.635   4.000   1.346
    1MUSC Si0rB15461   4.902   4.462   3.621
    1MUSC Si0rC15462   4.544   4.138   1.080
    1MUSC Si0rD15463   4.896   4.462   0.077
    1MUSC Si0rE15464   5.071   4.138   0.610
    1MUSC Si0rF15465   4.643   4.307   0.077
    1MUSC Si0rG15466   4.804   4.293   0.610
    1MUSC Si0rH15467   5.155   4.307   3.620
    1MUSC Si0rI15468   4.811   4.293   1.081
    1MUSC Si0rJ15469   5.162   4.010   3.621
    1MUSC Si0rK15470   4.804   3.685   1.080
    1MUSC Si0rL15471   4.636   4.010   0.077
    1MUSC Si0rM15472   4.810   3.685   0.610
    1MUSC Si0rN15473   4.903   3.855   0.077
    1MUSC Si0rO15474   5.064   3.840   0.610
    1MUSC Si0rP15475   4.895   3.855   3.620
    1MUSC Si0rQ15476   4.551   3.840   1.081
    1MUSC O02ZV15477   4.665   4.296   0.236
    1MUSC O02ZW15478   4.781   4.304   0.451
    1MUSC O02ZX15479   5.133   4.296   3.461
    1MUSC O02ZY15480   4.833   4.304   1.240
    1MUSC O02ZZ15481   4.920   4.116   3.453
    1MUSC O02Za15482   4.526   4.484   1.248
    1MUSC O02Zb15483   4.878   4.116   0.245
    1MUSC O02Zc15484   5.089   4.484   0.442
    1MUSC O02Zd15485   4.780   4.365   3.672
    1MUSC O02Ze15486   4.666   4.235   1.029
    1MUSC O02Zf15487   5.018   4.365   0.025
    1MUSC O02Zg15488   4.949   4.235   0.662
    1MUSC O02Zh15489   4.759   4.402   0.006
    1MUSC O02Zi15490   4.688   4.198   0.681
    1MUSC O02Zj15491   5.039   4.402   3.692
    1MUSC O02Zk15492   4.927   4.198   1.009
    1MUSC O02Zl15493   4.659   4.158   0.006
    1MUSC O02Zm15494   4.787   4.442   0.681
    1MUSC O02Zn15495   5.139   4.158   3.691
    1MUSC O02Zo15496   4.827   4.442   1.010
    1MUSC O02Zp15497   4.920   4.474   3.461
    1MUSC O02Zq15498   4.526   4.126   1.240
    1MUSC O02Zr15499   4.878   4.474   0.236
    1MUSC O02Zs15500   5.089   4.126   0.451
    1MUSC O02Zt15501   4.925   3.843   0.236
    1MUSC O02Zu15502   5.042   3.852   0.451
    1MUSC O02Zv15503   4.873   3.843   3.461
    1MUSC O02Zw15504   4.573   3.852   1.240
    1MUSC O02Zx15505   5.180   3.663   3.453
    1MUSC O02Zy15506   4.786   4.031   1.248
    1MUSC O02Zz15507   4.617   3.663   0.245
    1MUSC O02a015508   4.829   4.031   0.442
    1MUSC O02a115509   5.040   3.912   3.672
    1MUSC O02a215510   4.926   3.783   1.029
    1MUSC O02a315511   4.758   3.912   0.025
    1MUSC O02a415512   4.688   3.783   0.662
    1MUSC O02a515513   5.019   3.949   0.006
    1MUSC O02a615514   4.948   3.746   0.681
    1MUSC O02a715515   4.779   3.949   3.692
    1MUSC O02a815516   4.667   3.746   1.009
    1MUSC O02a915517   4.919   3.705   0.006
    1MUSC O02aA15518   5.048   3.989   0.681
    1MUSC O02aB15519   4.879   3.705   3.691
    1MUSC O02aC15520   4.567   3.989   1.010
    1MUSC O02aD15521   5.180   4.021   3.461
    1MUSC O02aE15522   4.786   3.673   1.240
    1MUSC O02aF15523   4.617   4.021   0.236
    1MUSC O02aG15524   4.829   3.673   0.451
    1MUSC K00A115525   4.716   4.164   1.849
    1MUSC K00A215526   4.364   4.436   2.852
    1MUSC K00A315527   4.456   3.711   1.849
    1MUSC K00A415528   4.624   3.983   2.852
    1MUSC Al0Qj15529   4.543   4.147   2.350
    1MUSC Al0Qk15530   4.537   4.453   2.351
    1MUSC Al0Ql15531   4.889   4.147   1.348
    1MUSC Al0Qm15532   4.712   4.453   3.353
    1MUSC Al0Qn15533   4.804   3.695   2.350
    1MUSC Al0Qo15534   4.797   4.000   2.351
    1MUSC Al0Qp15535   4.628   3.695   1.348
    1MUSC Al0Qq15536   4.452   4.000   3.353
    1MUSC Si0rR15537   4.719   4.462   1.614
    1MUSC Si0rS15538   4.361   4.138   3.087
    1MUSC Si0rT15539   4.713   4.462   2.084
    1MUSC Si0rU15540   4.888   4.138   2.617
    1MUSC Si0rV15541   4.460   4.307   2.084
    1MUSC Si0rW15542   4.621   4.293   2.617
    1MUSC Si0rX15543   4.972   4.307   1.613
    1MUSC Si0rY15544   4.628   4.293   3.088
    1MUSC Si0rZ15545   4.979   4.010   1.614
    1MUSC Si0ra15546   4.621   3.685   3.087
    1MUSC Si0rb15547   4.453   4.010   2.084
    1MUSC Si0rc15548   4.627   3.685   2.617
    1MUSC Si0rd15549   4.720   3.855   2.084
    1MUSC Si0re15550   4.881   3.840   2.617
    1MUSC Si0rf15551   4.712   3.855   1.613
    1MUSC Si0rg15552   4.368   3.840   3.088
    1MUSC O02aH15553   4.482   4.296   2.243
    1MUSC O02aI15554   4.598   4.304   2.458
    1MUSC O02aJ15555   4.950   4.296   1.454
    1MUSC O02aK15556   4.650   4.304   3.247
    1MUSC O02aL15557   4.737   4.116   1.446
    1MUSC O02aM15558   4.343   4.484   3.255
    1MUSC O02aN15559   4.695   4.116   2.252
    1MUSC O02aO15560   4.906   4.484   2.449
    1MUSC O02aP15561   4.597   4.365   1.665
    1MUSC O02aQ15562   4.483   4.235   3.036
    1MUSC O02aR15563   4.835   4.365   2.032
    1MUSC O02aS15564   4.766   4.235   2.669
    1MUSC O02aT15565   4.576   4.402   2.013
    1MUSC O02aU15566   4.505   4.198   2.688
    1MUSC O02aV15567   4.856   4.402   1.685
    1MUSC O02aW15568   4.744   4.198   3.016
    1MUSC O02aX15569   4.476   4.158   2.013
    1MUSC O02aY15570   4.604   4.442   2.688
    1MUSC O02aZ15571   4.956   4.158   1.684
    1MUSC O02aa15572   4.644   4.442   3.017
    1MUSC O02ab15573   4.737   4.474   1.454
    1MUSC O02ac15574   4.343   4.126   3.247
    1MUSC O02ad15575   4.695   4.474   2.243
    1MUSC O02ae15576   4.906   4.126   2.458
    1MUSC O02af15577   4.742   3.843   2.243
    1MUSC O02ag15578   4.859   3.852   2.458
    1MUSC O02ah15579   4.690   3.843   1.454
    1MUSC O02ai15580   4.390   3.852   3.247
    1MUSC O02aj15581   4.997   3.663   1.446
    1MUSC O02ak15582   4.603   4.031   3.255
    1MUSC O02al15583   4.434   3.663   2.252
    1MUSC O02am15584   4.646   4.031   2.449
    1MUSC O02an15585   4.857   3.912   1.665
    1MUSC O02ao15586   4.743   3.783   3.036
    1MUSC O02ap15587   4.575   3.912   2.032
    1MUSC O02aq15588   4.505   3.783   2.669
    1MUSC O02ar15589   4.836   3.949   2.013
    1MUSC O02as15590   4.765   3.746   2.688
    1MUSC O02at15591   4.596   3.949   1.685
    1MUSC O02au15592   4.484   3.746   3.016
    1MUSC O02av15593   4.736   3.705   2.013
    1MUSC O02aw15594   4.865   3.989   2.688
    1MUSC O02ax15595   4.696   3.705   1.684
    1MUSC O02ay15596   4.384   3.989   3.017
    1MUSC O02az15597   4.997   4.021   1.454
    1MUSC O02b015598   4.603   3.673   3.247
    1MUSC O02b115599   4.434   4.021   2.243
    1MUSC O02b215600   4.646   3.673   2.458
    1MUSC K00A515601   4.547   5.341   0.845
    1MUSC K00A615602   4.807   4.889   0.845
    1MUSC Al0Qr15603   4.726   5.053   0.343
    1MUSC Al0Qs15604   4.720   5.358   0.344
    1MUSC Al0Qt15605   5.072   5.053   3.355
    1MUSC Al0Qu15606   4.895   5.358   1.346
    1MUSC Al0Qv15607   4.987   4.600   0.343
    1MUSC Al0Qw15608   4.980   4.905   0.344
    1MUSC Al0Qx15609   4.811   4.600   3.355
    1MUSC Al0Qy15610   4.635   4.905   1.346
    1MUSC Si0rh15611   4.902   5.368   3.621
    1MUSC Si0ri15612   4.544   5.043   1.080
    1MUSC Si0rj15613   4.896   5.368   0.077
    1MUSC Si0rk15614   5.071   5.043   0.610
    1MUSC Si0rl15615   4.643   5.212   0.077
    1MUSC Si0rm15616   4.804   5.198   0.610
    1MUSC Si0rn15617   5.155   5.212   3.620
    1MUSC Si0ro15618   4.811   5.198   1.081
    1MUSC Si0rp15619   5.162   4.915   3.621
    1MUSC Si0rq15620   4.804   4.590   1.080
    1MUSC Si0rr15621   4.636   4.915   0.077
    1MUSC Si0rs15622   4.810   4.590   0.610
    1MUSC Si0rt15623   4.903   4.760   0.077
    1MUSC Si0ru15624   5.064   4.746   0.610
    1MUSC Si0rv15625   4.895   4.760   3.620
    1MUSC Si0rw15626   4.551   4.746   1.081
    1MUSC O02b315627   4.665   5.201   0.236
    1MUSC O02b415628   4.781   5.209   0.451
    1MUSC O02b515629   5.133   5.201   3.461
    1MUSC O02b615630   4.833   5.209   1.240
    1MUSC O02b715631   4.920   5.021   3.453
    1MUSC O02b815632   4.526   5.389   1.248
    1MUSC O02b915633   4.878   5.021   0.245
    1MUSC O02bA15634   5.089   5.389   0.442
    1MUSC O02bB15635   4.780   5.270   3.672
    1MUSC O02bC15636   4.666   5.141   1.029
    1MUSC O02bD15637   5.018   5.270   0.025
    1MUSC O02bE15638   4.949   5.141   0.662
    1MUSC O02bF15639   4.759   5.307   0.006
    1MUSC O02bG15640   4.688   5.104   0.681
    1MUSC O02bH15641   5.039   5.307   3.692
    1MUSC O02bI15642   4.927   5.104   1.009
    1MUSC O02bJ15643   4.659   5.063   0.006
    1MUSC O02bK15644   4.787   5.347   0.681
    1MUSC O02bL15645   5.139   5.063   3.691
    1MUSC O02bM15646   4.827   5.347   1.010
    1MUSC O02bN15647   4.920   5.379   3.461
    1MUSC O02bO15648   4.526   5.031   1.240
    1MUSC O02bP15649   4.878   5.379   0.236
    1MUSC O02bQ15650   5.089   5.031   0.451
    1MUSC O02bR15651   4.925   4.749   0.236
    1MUSC O02bS15652   5.042   4.757   0.451
    1MUSC O02bT15653   4.873   4.749   3.461
    1MUSC O02bU15654   4.573   4.757   1.240
    1MUSC O02bV15655   5.180   4.569   3.453
    1MUSC O02bW15656   4.786   4.937   1.248
    1MUSC O02bX15657   4.617   4.569   0.245
    1MUSC O02bY15658   4.829   4.937   0.442
    1MUSC O02bZ15659   5.040   4.817   3.672
    1MUSC O02ba15660   4.926   4.688   1.029
    1MUSC O02bb15661   4.758   4.817   0.025
    1MUSC O02bc15662   4.688   4.688   0.662
    1MUSC O02bd15663   5.019   4.854   0.006
    1MUSC O02be15664   4.948   4.651   0.681
    1MUSC O02bf15665   4.779   4.854   3.692
    1MUSC O02bg15666   4.667   4.651   1.009
    1MUSC O02bh15667   4.919   4.611   0.006
    1MUSC O02bi15668   5.048   4.895   0.681
    1MUSC O02bj15669   4.879   4.611   3.691
    1MUSC O02bk15670   4.567   4.895   1.010
    1MUSC O02bl15671   5.180   4.927   3.461
    1MUSC O02bm15672   4.786   4.579   1.240
    1MUSC O02bn15673   4.617   4.927   0.236
    1MUSC O02bo15674   4.829   4.579   0.451
    1MUSC K00A715675   4.716   5.069   1.849
    1MUSC K00A815676   4.364   5.341   2.852
    1MUSC K00A915677   4.456   4.617   1.849
    1MUSC K00AA15678   4.624   4.889   2.852
    1MUSC Al0Qz15679   4.543   5.053   2.350
    1MUSC Al0R015680   4.537   5.358   2.351
    1MUSC Al0R115681   4.889   5.053   1.348
    1MUSC Al0R215682   4.712   5.358   3.353
    1MUSC Al0R315683   4.804   4.600   2.350
    1MUSC Al0R415684   4.797   4.905   2.351
    1MUSC Al0R515685   4.628   4.600   1.348
    1MUSC Al0R615686   4.452   4.905   3.353
    1MUSC Si0rx15687   4.719   5.368   1.614
    1MUSC Si0ry15688   4.361   5.043   3.087
    1MUSC Si0rz15689   4.713   5.368   2.084
    1MUSC Si0s015690   4.888   5.043   2.617
    1MUSC Si0s115691   4.460   5.212   2.084
    1MUSC Si0s215692   4.621   5.198   2.617
    1MUSC Si0s315693   4.972   5.212   1.613
    1MUSC Si0s415694   4.628   5.198   3.088
    1MUSC Si0s515695   4.979   4.915   1.614
    1MUSC Si0s615696   4.621   4.590   3.087
    1MUSC Si0s715697   4.453   4.915   2.084
    1MUSC Si0s815698   4.627   4.590   2.617
    1MUSC Si0s915699   4.720   4.760   2.084
    1MUSC Si0sA15700   4.881   4.746   2.617
    1MUSC Si0sB15701   4.712   4.760   1.613
    1MUSC Si0sC15702   4.368   4.746   3.088
    1MUSC O02bp15703   4.482   5.201   2.243
    1MUSC O02bq15704   4.598   5.209   2.458
    1MUSC O02br15705   4.950   5.201   1.454
    1MUSC O02bs15706   4.650   5.209   3.247
    1MUSC O02bt15707   4.737   5.021   1.446
    1MUSC O02bu15708   4.343   5.389   3.255
    1MUSC O02bv15709   4.695   5.021   2.252
    1MUSC O02bw15710   4.906   5.389   2.449
    1MUSC O02bx15711   4.597   5.270   1.665
    1MUSC O02by15712   4.483   5.141   3.036
    1MUSC O02bz15713   4.835   5.270   2.032
    1MUSC O02c015714   4.766   5.141   2.669
    1MUSC O02c115715   4.576   5.307   2.013
    1MUSC O02c215716   4.505   5.104   2.688
    1MUSC O02c315717   4.856   5.307   1.685
    1MUSC O02c415718   4.744   5.104   3.016
    1MUSC O02c515719   4.476   5.063   2.013
    1MUSC O02c615720   4.604   5.347   2.688
    1MUSC O02c715721   4.956   5.063   1.684
    1MUSC O02c815722   4.644   5.347   3.017
    1MUSC O02c915723   4.737   5.379   1.454
    1MUSC O02cA15724   4.343   5.031   3.247
    1MUSC O02cB15725   4.695   5.379   2.243
    1MUSC O02cC15726   4.906   5.031   2.458
    1MUSC O02cD15727   4.742   4.749   2.243
    1MUSC O02cE15728   4.859   4.757   2.458
    1MUSC O02cF15729   4.690   4.749   1.454
    1MUSC O02cG15730   4.390   4.757   3.247
    1MUSC O02cH15731   4.997   4.569   1.446
    1MUSC O02cI15732   4.603   4.937   3.255
    1MUSC O02cJ15733   4.434   4.569   2.252
    1MUSC O02cK15734   4.646   4.937   2.449
    1MUSC O02cL15735   4.857   4.817   1.665
    1MUSC O02cM15736   4.743   4.688   3.036
    1MUSC O02cN15737   4.575   4.817   2.032
    1MUSC O02cO15738   4.505   4.688   2.669
    1MUSC O02cP15739   4.836   4.854   2.013
    1MUSC O02cQ15740   4.765   4.651   2.688
    1MUSC O02cR15741   4.596   4.854   1.685
    1MUSC O02cS15742   4.484   4.651   3.016
    1MUSC O02cT15743   4.736   4.611   2.013
    1MUSC O02cU15744   4.865   4.895   2.688
    1MUSC O02cV15745   4.696   4.611   1.684
    1MUSC O02cW15746   4.384   4.895   3.017
    1MUSC O02cX15747   4.997   4.927   1.454
    1MUSC O02cY15748   4.603   4.579   3.247
    1MUSC O02cZ15749   4.434   4.927   2.243
    1MUSC O02ca15750   4.646   4.579   2.458
    1MUSC K00AB15751   4.547   6.247   0.845
    1MUSC K00AC15752   4.807   5.794   0.845
    1MUSC Al0R715753   4.726   5.958   0.343
    1MUSC Al0R815754   4.720   6.263   0.344
    1MUSC Al0R915755   5.072   5.958   3.355
    1MUSC Al0RA15756   4.895   6.263   1.346
    1MUSC Al0RB15757   4.987   5.505   0.343
    1MUSC Al0RC15758   4.980   5.810   0.344
    1MUSC Al0RD15759   4.811   5.505   3.355
    1MUSC Al0RE15760   4.635   5.810   1.346
    1MUSC Si0sD15761   4.902   6.273   3.621
    1MUSC Si0sE15762   4.544   5.948   1.080
    1MUSC Si0sF15763   4.896   6.273   0.077
    1MUSC Si0sG15764   5.071   5.948   0.610
    1MUSC Si0sH15765   4.643   6.118   0.077
    1MUSC Si0sI15766   4.804   6.103   0.610
    1MUSC Si0sJ15767   5.155   6.118   3.620
    1MUSC Si0sK15768   4.811   6.103   1.081
    1MUSC Si0sL15769   5.162   5.820   3.621
    1MUSC Si0sM15770   4.804   5.495   1.080
    1MUSC Si0sN15771   4.636   5.820   0.077
    1MUSC Si0sO15772   4.810   5.495   0.610
    1MUSC Si0sP15773   4.903   5.665   0.077
    1MUSC Si0sQ15774   5.064   5.651   0.610
    1MUSC Si0sR15775   4.895   5.665   3.620
    1MUSC Si0sS15776   4.551   5.651   1.081
    1MUSC O02cb15777   4.665   6.106   0.236
    1MUSC O02cc15778   4.781   6.115   0.451
    1MUSC O02cd15779   5.133   6.106   3.461
    1MUSC O02ce15780   4.833   6.115   1.240
    1MUSC O02cf15781   4.920   5.927   3.453
    1MUSC O02cg15782   4.526   6.295   1.248
    1MUSC O02ch15783   4.878   5.927   0.245
    1MUSC O02ci15784   5.089   6.295   0.442
    1MUSC O02cj15785   4.780   6.175   3.672
    1MUSC O02ck15786   4.666   6.046   1.029
    1MUSC O02cl15787   5.018   6.175   0.025
    1MUSC O02cm15788   4.949   6.046   0.662
    1MUSC O02cn15789   4.759   6.212   0.006
    1MUSC O02co15790   4.688   6.009   0.681
    1MUSC O02cp15791   5.039   6.212   3.692
    1MUSC O02cq15792   4.927   6.009   1.009
    1MUSC O02cr15793   4.659   5.969   0.006
    1MUSC O02cs15794   4.787   6.253   0.681
    1MUSC O02ct15795   5.139   5.969   3.691
    1MUSC O02cu15796   4.827   6.253   1.010
    1MUSC O02cv15797   4.920   6.285   3.461
    1MUSC O02cw15798   4.526   5.937   1.240
    1MUSC O02cx15799   4.878   6.285   0.236
    1MUSC O02cy15800   5.089   5.937   0.451
    1MUSC O02cz15801   4.925   5.654   0.236
    1MUSC O02d015802   5.042   5.662   0.451
    1MUSC O02d115803   4.873   5.654   3.461
    1MUSC O02d215804   4.573   5.662   1.240
    1MUSC O02d315805   5.180   5.474   3.453
    1MUSC O02d415806   4.786   5.842   1.248
    1MUSC O02d515807   4.617   5.474   0.245
    1MUSC O02d615808   4.829   5.842   0.442
    1MUSC O02d715809   5.040   5.723   3.672
    1MUSC O02d815810   4.926   5.593   1.029
    1MUSC O02d915811   4.758   5.723   0.025
    1MUSC O02dA15812   4.688   5.593   0.662
    1MUSC O02dB15813   5.019   5.760   0.006
    1MUSC O02dC15814   4.948   5.556   0.681
    1MUSC O02dD15815   4.779   5.760   3.692
    1MUSC O02dE15816   4.667   5.556   1.009
    1MUSC O02dF15817   4.919   5.516   0.006
    1MUSC O02dG15818   5.048   5.800   0.681
    1MUSC O02dH15819   4.879   5.516   3.691
    1MUSC O02dI15820   4.567   5.800   1.010
    1MUSC O02dJ15821   5.180   5.832   3.461
    1MUSC O02dK15822   4.786   5.484   1.240
    1MUSC O02dL15823   4.617   5.832   0.236
    1MUSC O02dM15824   4.829   5.484   0.451
    1MUSC K00AD15825   4.716   5.975   1.849
    1MUSC K00AE15826   4.364   6.247   2.852
    1MUSC K00AF15827   4.456   5.522   1.849
    1MUSC K00AG15828   4.624   5.794   2.852
    1MUSC Al0RF15829   4.543   5.958   2.350
    1MUSC Al0RG15830   4.537   6.263   2.351
    1MUSC Al0RH15831   4.889   5.958   1.348
    1MUSC Al0RI15832   4.712   6.263   3.353
    1MUSC Al0RJ15833   4.804   5.505   2.350
    1MUSC Al0RK15834   4.797   5.810   2.351
    1MUSC Al0RL15835   4.628   5.505   1.348
    1MUSC Al0RM15836   4.452   5.810   3.353
    1MUSC Si0sT15837   4.719   6.273   1.614
    1MUSC Si0sU15838   4.361   5.948   3.087
    1MUSC Si0sV15839   4.713   6.273   2.084
    1MUSC Si0sW15840   4.888   5.948   2.617
    1MUSC Si0sX15841   4.460   6.118   2.084
    1MUSC Si0sY15842   4.621   6.103   2.617
    1MUSC Si0sZ15843   4.972   6.118   1.613
    1MUSC Si0sa15844   4.628   6.103   3.088
    1MUSC Si0sb15845   4.979   5.820   1.614
    1MUSC Si0sc15846   4.621   5.495   3.087
    1MUSC Si0sd15847   4.453   5.820   2.084
    1MUSC Si0se15848   4.627   5.495   2.617
    1MUSC Si0sf15849   4.720   5.665   2.084
    1MUSC Si0sg15850   4.881   5.651   2.617
    1MUSC Si0sh15851   4.712   5.665   1.613
    1MUSC Si0si15852   4.368   5.651   3.088
    1MUSC O02dN15853   4.482   6.106   2.243
    1MUSC O02dO15854   4.598   6.115   2.458
    1MUSC O02dP15855   4.950   6.106   1.454
    1MUSC O02dQ15856   4.650   6.115   3.247
    1MUSC O02dR15857   4.737   5.927   1.446
    1MUSC O02dS15858   4.343   6.295   3.255
    1MUSC O02dT15859   4.695   5.927   2.252
    1MUSC O02dU15860   4.906   6.295   2.449
    1MUSC O02dV15861   4.597   6.175   1.665
    1MUSC O02dW15862   4.483   6.046   3.036
    1MUSC O02dX15863   4.835   6.175   2.032
    1MUSC O02dY15864   4.766   6.046   2.669
    1MUSC O02dZ15865   4.576   6.212   2.013
    1MUSC O02da15866   4.505   6.009   2.688
    1MUSC O02db15867   4.856   6.212   1.685
    1MUSC O02dc15868   4.744   6.009   3.016
    1MUSC O02dd15869   4.476   5.969   2.013
    1MUSC O02de15870   4.604   6.253   2.688
    1MUSC O02df15871   4.956   5.969   1.684
    1MUSC O02dg15872   4.644   6.253   3.017
    1MUSC O02dh15873   4.737   6.285   1.454
    1MUSC O02di15874   4.343   5.937   3.247
    1MUSC O02dj15875   4.695   6.285   2.243
    1MUSC O02dk15876   4.906   5.937   2.458
    1MUSC O02dl15877   4.742   5.654   2.243
    1MUSC O02dm15878   4.859   5.662   2.458
    1MUSC O02dn15879   4.690   5.654   1.454
    1MUSC O02do15880   4.390   5.662   3.247
    1MUSC O02dp15881   4.997   5.474   1.446
    1MUSC O02dq15882   4.603   5.842   3.255
    1MUSC O02dr15883   4.434   5.474   2.252
    1MUSC O02ds15884   4.646   5.842   2.449
    1MUSC O02dt15885   4.857   5.723   1.665
    1MUSC O02du15886   4.743   5.593   3.036
    1MUSC O02dv15887   4.575   5.723   2.032
    1MUSC O02dw15888   4.505   5.593   2.669
    1MUSC O02dx15889   4.836   5.760   2.013
    1MUSC O02dy15890   4.765   5.556   2.688
    1MUSC O02dz15891   4.596   5.760   1.685
    1MUSC O02e015892   4.484   5.556   3.016
    1MUSC O02e115893   4.736   5.516   2.013
    1MUSC O02e215894   4.865   5.800   2.688
    1MUSC O02e315895   4.696   5.516   1.684
    1MUSC O02e415896   4.384   5.800   3.017
    1MUSC O02e515897   4.997   5.832   1.454
    1MUSC O02e615898   4.603   5.484   3.247
    1MUSC O02e715899   4.434   5.832   2.243
    1MUSC O02e815900   4.646   5.484   2.458
    1MUSC K00AH15901   4.547   7.152   0.845
    1MUSC K00AI15902   4.807   6.699   0.845
    1MUSC Al0RN15903   4.726   6.863   0.343
    1MUSC Al0RO15904   4.720   7.168   0.344
    1MUSC Al0RP15905   5.072   6.863   3.355
    1MUSC Al0RQ15906   4.895   7.168   1.346
    1MUSC Al0RR15907   4.987   6.411   0.343
    1MUSC Al0RS15908   4.980   6.716   0.344
    1MUSC Al0RT15909   4.811   6.411   3.355
    1MUSC Al0RU15910   4.635   6.716   1.346
    1MUSC Si0sj15911   4.902   7.178   3.621
    1MUSC Si0sk15912   4.544   6.853   1.080
    1MUSC Si0sl15913   4.896   7.178   0.077
    1MUSC Si0sm15914   5.071   6.853   0.610
    1MUSC Si0sn15915   4.643   7.023   0.077
    1MUSC Si0so15916   4.804   7.009   0.610
    1MUSC Si0sp15917   5.155   7.023   3.620
    1MUSC Si0sq15918   4.811   7.009   1.081
    1MUSC Si0sr15919   5.162   6.726   3.621
    1MUSC Si0ss15920   4.804   6.401   1.080
    1MUSC Si0st15921   4.636   6.726   0.077
    1MUSC Si0su15922   4.810   6.401   0.610
    1MUSC Si0sv15923   4.903   6.570   0.077
    1MUSC Si0sw15924   5.064   6.556   0.610
    1MUSC Si0sx15925   4.895   6.570   3.620
    1MUSC Si0sy15926   4.551   6.556   1.081
    1MUSC O02e915927   4.665   7.012   0.236
    1MUSC O02eA15928   4.781   7.020   0.451
    1MUSC O02eB15929   5.133   7.012   3.461
    1MUSC O02eC15930   4.833   7.020   1.240
    1MUSC O02eD15931   4.920   6.832   3.453
    1MUSC O02eE15932   4.526   7.200   1.248
    1MUSC O02eF15933   4.878   6.832   0.245
    1MUSC O02eG15934   5.089   7.200   0.442
    1MUSC O02eH15935   4.780   7.080   3.672
    1MUSC O02eI15936   4.666   6.951   1.029
    1MUSC O02eJ15937   5.018   7.080   0.025
    1MUSC O02eK15938   4.949   6.951   0.662
    1MUSC O02eL15939   4.759   7.117   0.006
    1MUSC O02eM15940   4.688   6.914   0.681
    1MUSC O02eN15941   5.039   7.117   3.692
    1MUSC O02eO15942   4.927   6.914   1.009
    1MUSC O02eP15943   4.659   6.874   0.006
    1MUSC O02eQ15944   4.787   7.158   0.681
    1MUSC O02eR15945   5.139   6.874   3.691
    1MUSC O02eS15946   4.827   7.158   1.010
    1MUSC O02eT15947   4.920   7.190   3.461
    1MUSC O02eU15948   4.526   6.842   1.240
    1MUSC O02eV15949   4.878   7.190   0.236
    1MUSC O02eW15950   5.089   6.842   0.451
    1MUSC O02eX15951   4.925   6.559   0.236
    1MUSC O02eY15952   5.042   6.567   0.451
    1MUSC O02eZ15953   4.873   6.559   3.461
    1MUSC O02ea15954   4.573   6.567   1.240
    1MUSC O02eb15955   5.180   6.379   3.453
    1MUSC O02ec15956   4.786   6.747   1.248
    1MUSC O02ed15957   4.617   6.379   0.245
    1MUSC O02ee15958   4.829   6.747   0.442
    1MUSC O02ef15959   5.040   6.628   3.672
    1MUSC O02eg15960   4.926   6.499   1.029
    1MUSC O02eh15961   4.758   6.628   0.025
    1MUSC O02ei15962   4.688   6.499   0.662
    1MUSC O02ej15963   5.019   6.665   0.006
    1MUSC O02ek15964   4.948   6.462   0.681
    1MUSC O02el15965   4.779   6.665   3.692
    1MUSC O02em15966   4.667   6.462   1.009
    1MUSC O02en15967   4.919   6.421   0.006
    1MUSC O02eo15968   5.048   6.705   0.681
    1MUSC O02ep15969   4.879   6.421   3.691
    1MUSC O02eq15970   4.567   6.705   1.010
    1MUSC O02er15971   5.180   6.737   3.461
    1MUSC O02es15972   4.786   6.389   1.240
    1MUSC O02et15973   4.617   6.737   0.236
    1MUSC O02eu15974   4.829   6.389   0.451
    1MUSC K00AJ15975   4.716   6.880   1.849
    1MUSC K00AK15976   4.364   7.152   2.852
    1MUSC K00AL15977   4.456   6.427   1.849
    1MUSC K00AM15978   4.624   6.699   2.852
    1MUSC Al0RV15979   4.543   6.863   2.350
    1MUSC Al0RW15980   4.537   7.168   2.351
    1MUSC Al0RX15981   4.889   6.863   1.348
    1MUSC Al0RY15982   4.712   7.168   3.353
    1MUSC Al0RZ15983   4.804   6.411   2.350
    1MUSC Al0Ra15984   4.797   6.716   2.351
    1MUSC Al0Rb15985   4.628   6.411   1.348
    1MUSC Al0Rc15986   4.452   6.716   3.353
    1MUSC Si0sz15987   4.719   7.178   1.614
    1MUSC Si0t015988   4.361   6.853   3.087
    1MUSC Si0t115989   4.713   7.178   2.084
    1MUSC Si0t215990   4.888   6.853   2.617
    1MUSC Si0t315991   4.460   7.023   2.084
    1MUSC Si0t415992   4.621   7.009   2.617
    1MUSC Si0t515993   4.972   7.023   1.613
    1MUSC Si0t615994   4.628   7.009   3.088
    1MUSC Si0t715995   4.979   6.726   1.614
    1MUSC Si0t815996   4.621   6.401   3.087
    1MUSC Si0t915997   4.453   6.726   2.084
    1MUSC Si0tA15998   4.627   6.401   2.617
    1MUSC Si0tB15999   4.720   6.570   2.084
    1MUSC Si0tC16000   4.881   6.556   2.617
    1MUSC Si0tD16001   4.712   6.570   1.613
    1MUSC Si0tE16002   4.368   6.556   3.088
    1MUSC O02ev16003   4.482   7.012   2.243
    1MUSC O02ew16004   4.598   7.020   2.458
    1MUSC O02ex16005   4.950   7.012   1.454
    1MUSC O02ey16006   4.650   7.020   3.247
    1MUSC O02ez16007   4.737   6.832   1.446
    1MUSC O02f016008   4.343   7.200   3.255
    1MUSC O02f116009   4.695   6.832   2.252
    1MUSC O02f216010   4.906   7.200   2.449
    1MUSC O02f316011   4.597   7.080   1.665
    1MUSC O02f416012   4.483   6.951   3.036
    1MUSC O02f516013   4.835   7.080   2.032
    1MUSC O02f616014   4.766   6.951   2.669
    1MUSC O02f716015   4.576   7.117   2.013
    1MUSC O02f816016   4.505   6.914   2.688
    1MUSC O02f916017   4.856   7.117   1.685
    1MUSC O02fA16018   4.744   6.914   3.016
    1MUSC O02fB16019   4.476   6.874   2.013
    1MUSC O02fC16020   4.604   7.158   2.688
    1MUSC O02fD16021   4.956   6.874   1.684
    1MUSC O02fE16022   4.644   7.158   3.017
    1MUSC O02fF16023   4.737   7.190   1.454
    1MUSC O02fG16024   4.343   6.842   3.247
    1MUSC O02fH16025   4.695   7.190   2.243
    1MUSC O02fI16026   4.906   6.842   2.458
    1MUSC O02fJ16027   4.742   6.559   2.243
    1MUSC O02fK16028   4.859   6.567   2.458
    1MUSC O02fL16029   4.690   6.559   1.454
    1MUSC O02fM16030   4.390   6.567   3.247
    1MUSC O02fN16031   4.997   6.379   1.446
    1MUSC O02fO16032   4.603   6.747   3.255
    1MUSC O02fP16033   4.434   6.379   2.252
    1MUSC O02fQ16034   4.646   6.747   2.449
    1MUSC O02fR16035   4.857   6.628   1.665
    1MUSC O02fS16036   4.743   6.499   3.036
    1MUSC O02fT16037   4.575   6.628   2.032
    1MUSC O02fU16038   4.505   6.499   2.669
    1MUSC O02fV16039   4.836   6.665   2.013
    1MUSC O02fW16040   4.765   6.462   2.688
    1MUSC O02fX16041   4.596   6.665   1.685
    1MUSC O02fY16042   4.484   6.462   3.016
    1MUSC O02fZ16043   4.736   6.421   2.013
    1MUSC O02fa16044   4.865   6.705   2.688
    1MUSC O02fb16045   4.696   6.421   1.684
    1MUSC O02fc16046   4.384   6.705   3.017
    1MUSC O02fd16047   4.997   6.737   1.454
    1MUSC O02fe16048   4.603   6.389   3.247
    1MUSC O02ff16049   4.434   6.737   2.243
    1MUSC O02fg16050   4.646   6.389   2.458
    1MUSC K00AN16051   4.547   8.057   0.845
    1MUSC K00AO16052   4.807   7.605   0.845
    1MUSC Al0Rd16053   4.726   7.769   0.343
    1MUSC Al0Re16054   4.720   8.074   0.344
    1MUSC Al0Rf16055   5.072   7.769   3.355
    1MUSC Al0Rg16056   4.895   8.074   1.346
    1MUSC Al0Rh16057   4.987   7.316   0.343
    1MUSC Al0Ri16058   4.980   7.621   0.344
    1MUSC Al0Rj16059   4.811   7.316   3.355
    1MUSC Al0Rk16060   4.635   7.621   1.346
    1MUSC Si0tF16061   4.902   8.084   3.621
    1MUSC Si0tG16062   4.544   7.759   1.080
    1MUSC Si0tH16063   4.896   8.084   0.077
    1MUSC Si0tI16064   5.071   7.759   0.610
    1MUSC Si0tJ16065   4.643   7.928   0.077
    1MUSC Si0tK16066   4.804   7.914   0.610
    1MUSC Si0tL16067   5.155   7.928   3.620
    1MUSC Si0tM16068   4.811   7.914   1.081
    1MUSC Si0tN16069   5.162   7.631   3.621
    1MUSC Si0tO16070   4.804   7.306   1.080
    1MUSC Si0tP16071   4.636   7.631   0.077
    1MUSC Si0tQ16072   4.810   7.306   0.610
    1MUSC Si0tR16073   4.903   7.476   0.077
    1MUSC Si0tS16074   5.064   7.461   0.610
    1MUSC Si0tT16075   4.895   7.476   3.620
    1MUSC Si0tU16076   4.551   7.461   1.081
    1MUSC O02fh16077   4.665   7.917   0.236
    1MUSC O02fi16078   4.781   7.925   0.451
    1MUSC O02fj16079   5.133   7.917   3.461
    1MUSC O02fk16080   4.833   7.925   1.240
    1MUSC O02fl16081   4.920   7.737   3.453
    1MUSC O02fm16082   4.526   8.105   1.248
    1MUSC O02fn16083   4.878   7.737   0.245
    1MUSC O02fo16084   5.089   8.105   0.442
    1MUSC O02fp16085   4.780   7.986   3.672
    1MUSC O02fq16086   4.666   7.856   1.029
    1MUSC O02fr16087   5.018   7.986   0.025
    1MUSC O02fs16088   4.949   7.856   0.662
    1MUSC O02ft16089   4.759   8.023   0.006
    1MUSC O02fu16090   4.688   7.819   0.681
    1MUSC O02fv16091   5.039   8.023   3.692
    1MUSC O02fw16092   4.927   7.819   1.009
    1MUSC O02fx16093   4.659   7.779   0.006
    1MUSC O02fy16094   4.787   8.063   0.681
    1MUSC O02fz16095   5.139   7.779   3.691
    1MUSC O02g016096   4.827   8.063   1.010
    1MUSC O02g116097   4.920   8.095   3.461
    1MUSC O02g216098   4.526   7.747   1.240
    1MUSC O02g316099   4.878   8.095   0.236
    1MUSC O02g416100   5.089   7.747   0.451
    1MUSC O02g516101   4.925   7.464   0.236
    1MUSC O02g616102   5.042   7.473   0.451
    1MUSC O02g716103   4.873   7.464   3.461
    1MUSC O02g816104   4.573   7.473   1.240
    1MUSC O02g916105   5.180   7.284   3.453
    1MUSC O02gA16106   4.786   7.653   1.248
    1MUSC O02gB16107   4.617   7.284   0.245
    1MUSC O02gC16108   4.829   7.653   0.442
    1MUSC O02gD16109   5.040   7.533   3.672
    1MUSC O02gE16110   4.926   7.404   1.029
    1MUSC O02gF16111   4.758   7.533   0.025
    1MUSC O02gG16112   4.688   7.404   0.662
    1MUSC O02gH16113   5.019   7.570   0.006
    1MUSC O02gI16114   4.948   7.367   0.681
    1MUSC O02gJ16115   4.779   7.570   3.692
    1MUSC O02gK16116   4.667   7.367   1.009
    1MUSC O02gL16117   4.919   7.326   0.006
    1MUSC O02gM16118   5.048   7.611   0.681
    1MUSC O02gN16119   4.879   7.326   3.691
    1MUSC O02gO16120   4.567   7.611   1.010
    1MUSC O02gP16121   5.180   7.642   3.461
    1MUSC O02gQ16122   4.786   7.295   1.240
    1MUSC O02gR16123   4.617   7.642   0.236
    1MUSC O02gS16124   4.829   7.295   0.451
    1MUSC K00AP16125   4.716   7.785   1.849
    1MUSC K00AQ16126   4.364   8.057   2.852
    1MUSC K00AR16127   4.456   7.332   1.849
    1MUSC K00AS16128   4.624   7.605   2.852
    1MUSC Al0Rl16129   4.543   7.769   2.350
    1MUSC Al0Rm16130   4.537   8.074   2.351
    1MUSC Al0Rn16131   4.889   7.769   1.348
    1MUSC Al0Ro16132   4.712   8.074   3.353
    1MUSC Al0Rp16133   4.804   7.316   2.350
    1MUSC Al0Rq16134   4.797   7.621   2.351
    1MUSC Al0Rr16135   4.628   7.316   1.348
    1MUSC Al0Rs16136   4.452   7.621   3.353
    1MUSC Si0tV16137   4.719   8.084   1.614
    1MUSC Si0tW16138   4.361   7.759   3.087
    1MUSC Si0tX16139   4.713   8.084   2.084
    1MUSC Si0tY16140   4.888   7.759   2.617
    1MUSC Si0tZ16141   4.460   7.928   2.084
    1MUSC Si0ta16142   4.621   7.914   2.617
    1MUSC Si0tb16143   4.972   7.928   1.613
    1MUSC Si0tc16144   4.628   7.914   3.088
    1MUSC Si0td16145   4.979   7.631   1.614
    1MUSC Si0te16146   4.621   7.306   3.087
    1MUSC Si0tf16147   4.453   7.631   2.084
    1MUSC Si0tg16148   4.627   7.306   2.617
    1MUSC Si0th16149   4.720   7.476   2.084
    1MUSC Si0ti16150   4.881   7.461   2.617
    1MUSC Si0tj16151   4.712   7.476   1.613
    1MUSC Si0tk16152   4.368   7.461   3.088
    1MUSC O02gT16153   4.482   7.917   2.243
    1MUSC O02gU16154   4.598   7.925   2.458
    1MUSC O02gV16155   4.950   7.917   1.454
    1MUSC O02gW16156   4.650   7.925   3.247
    1MUSC O02gX16157   4.737   7.737   1.446
    1MUSC O02gY16158   4.343   8.105   3.255
    1MUSC O02gZ16159   4.695   7.737   2.252
    1MUSC O02ga16160   4.906   8.105   2.449
    1MUSC O02gb16161   4.597   7.986   1.665
    1MUSC O02gc16162   4.483   7.856   3.036
    1MUSC O02gd16163   4.835   7.986   2.032
    1MUSC O02ge16164   4.766   7.856   2.669
    1MUSC O02gf16165   4.576   8.023   2.013
    1MUSC O02gg16166   4.505   7.819   2.688
    1MUSC O02gh16167   4.856   8.023   1.685
    1MUSC O02gi16168   4.744   7.819   3.016
    1MUSC O02gj16169   4.476   7.779   2.013
    1MUSC O02gk16170   4.604   8.063   2.688
    1MUSC O02gl16171   4.956   7.779   1.684
    1MUSC O02gm16172   4.644   8.063   3.017
    1MUSC O02gn16173   4.737   8.095   1.454
    1MUSC O02go16174   4.343   7.747   3.247
    1MUSC O02gp16175   4.695   8.095   2.243
    1MUSC O02gq16176   4.906   7.747   2.458
    1MUSC O02gr16177   4.742   7.464   2.243
    1MUSC O02gs16178   4.859   7.473   2.458
    1MUSC O02gt16179   4.690   7.464   1.454
    1MUSC O02gu16180   4.390   7.473   3.247
    1MUSC O02gv16181   4.997   7.284   1.446
    1MUSC O02gw16182   4.603   7.653   3.255
    1MUSC O02gx16183   4.434   7.284   2.252
    1MUSC O02gy16184   4.646   7.653   2.449
    1MUSC O02gz16185   4.857   7.533   1.665
    1MUSC O02h016186   4.743   7.404   3.036
    1MUSC O02h116187   4.575   7.533   2.032
    1MUSC O02h216188   4.505   7.404   2.669
    1MUSC O02h316189   4.836   7.570   2.013
    1MUSC O02h416190   4.765   7.367   2.688
    1MUSC O02h516191   4.596   7.570   1.685
    1MUSC O02h616192   4.484   7.367   3.016
    1MUSC O02h716193   4.736   7.326   2.013
    1MUSC O02h816194   4.865   7.611   2.688
    1MUSC O02h916195   4.696   7.326   1.684
    1MUSC O02hA16196   4.384   7.611   3.017
    1MUSC O02hB16197   4.997   7.642   1.454
    1MUSC O02hC16198   4.603   7.295   3.247
    1MUSC O02hD16199   4.434   7.642   2.243
    1MUSC O02hE16200   4.646   7.295   2.458
    1MUSC K00AT16201   4.547   8.962   0.845
    1MUSC K00AU16202   4.807   8.510   0.845
    1MUSC Al0Rt16203   4.726   8.674   0.343
    1MUSC Al0Ru16204   4.720   8.979   0.344
    1MUSC Al0Rv16205   5.072   8.674   3.355
    1MUSC Al0Rw16206   4.895   8.979   1.346
    1MUSC Al0Rx16207   4.987   8.221   0.343
    1MUSC Al0Ry16208   4.980   8.526   0.344
    1MUSC Al0Rz16209   4.811   8.221   3.355
    1MUSC Al0S016210   4.635   8.526   1.346
    1MUSC Si0tl16211   4.902   8.989   3.621
    1MUSC Si0tm16212   4.544   8.664   1.080
    1MUSC Si0tn16213   4.896   8.989   0.077
    1MUSC Si0to16214   5.071   8.664   0.610
    1MUSC Si0tp16215   4.643   8.834   0.077
    1MUSC Si0tq16216   4.804   8.819   0.610
    1MUSC Si0tr16217   5.155   8.834   3.620
    1MUSC Si0ts16218   4.811   8.819   1.081
    1MUSC Si0tt16219   5.162   8.536   3.621
    1MUSC Si0tu16220   4.804   8.211   1.080
    1MUSC Si0tv16221   4.636   8.536   0.077
    1MUSC Si0tw16222   4.810   8.211   0.610
    1MUSC Si0tx16223   4.903   8.381   0.077
    1MUSC Si0ty16224   5.064   8.367   0.610
    1MUSC Si0tz16225   4.895   8.381   3.620
    1MUSC Si0u016226   4.551   8.367   1.081
    1MUSC O02hF16227   4.665   8.822   0.236
    1MUSC O02hG16228   4.781   8.831   0.451
    1MUSC O02hH16229   5.133   8.822   3.461
    1MUSC O02hI16230   4.833   8.831   1.240
    1MUSC O02hJ16231   4.920   8.642   3.453
    1MUSC O02hK16232   4.526   9.010   1.248
    1MUSC O02hL16233   4.878   8.642   0.245
    1MUSC O02hM16234   5.089   9.010   0.442
    1MUSC O02hN16235   4.780   8.891   3.672
    1MUSC O02hO16236   4.666   8.762   1.029
    1MUSC O02hP16237   5.018   8.891   0.025
    1MUSC O02hQ16238   4.949   8.762   0.662
    1MUSC O02hR16239   4.759   8.928   0.006
    1MUSC O02hS16240   4.688   8.725   0.681
    1MUSC O02hT16241   5.039   8.928   3.692
    1MUSC O02hU16242   4.927   8.725   1.009
    1MUSC O02hV16243   4.659   8.684   0.006
    1MUSC O02hW16244   4.787   8.968   0.681
    1MUSC O02hX16245   5.139   8.684   3.691
    1MUSC O02hY16246   4.827   8.968   1.010
    1MUSC O02hZ16247   4.920   9.000   3.461
    1MUSC O02ha16248   4.526   8.652   1.240
    1MUSC O02hb16249   4.878   9.000   0.236
    1MUSC O02hc16250   5.089   8.652   0.451
    1MUSC O02hd16251   4.925   8.370   0.236
    1MUSC O02he16252   5.042   8.378   0.451
    1MUSC O02hf16253   4.873   8.370   3.461
    1MUSC O02hg16254   4.573   8.378   1.240
    1MUSC O02hh16255   5.180   8.190   3.453
    1MUSC O02hi16256   4.786   8.558   1.248
    1MUSC O02hj16257   4.617   8.190   0.245
    1MUSC O02hk16258   4.829   8.558   0.442
    1MUSC O02hl16259   5.040   8.438   3.672
    1MUSC O02hm16260   4.926   8.309   1.029
    1MUSC O02hn16261   4.758   8.438   0.025
    1MUSC O02ho16262   4.688   8.309   0.662
    1MUSC O02hp16263   5.019   8.475   0.006
    1MUSC O02hq16264   4.948   8.272   0.681
    1MUSC O02hr16265   4.779   8.475   3.692
    1MUSC O02hs16266   4.667   8.272   1.009
    1MUSC O02ht16267   4.919   8.232   0.006
    1MUSC O02hu16268   5.048   8.516   0.681
    1MUSC O02hv16269   4.879   8.232   3.691
    1MUSC O02hw16270   4.567   8.516   1.010
    1MUSC O02hx16271   5.180   8.548   3.461
    1MUSC O02hy16272   4.786   8.200   1.240
    1MUSC O02hz16273   4.617   8.548   0.236
    1MUSC O02i016274   4.829   8.200   0.451
    1MUSC K00AV16275   4.716   8.690   1.849
    1MUSC K00AW16276   4.364   8.962   2.852
    1MUSC K00AX16277   4.456   8.238   1.849
    1MUSC K00AY16278   4.624   8.510   2.852
    1MUSC Al0S116279   4.543   8.674   2.350
    1MUSC Al0S216280   4.537   8.979   2.351
    1MUSC Al0S316281   4.889   8.674   1.348
    1MUSC Al0S416282   4.712   8.979   3.353
    1MUSC Al0S516283   4.804   8.221   2.350
    1MUSC Al0S616284   4.797   8.526   2.351
    1MUSC Al0S716285   4.628   8.221   1.348
    1MUSC Al0S816286   4.452   8.526   3.353
    1MUSC Si0u116287   4.719   8.989   1.614
    1MUSC Si0u216288   4.361   8.664   3.087
    1MUSC Si0u316289   4.713   8.989   2.084
    1MUSC Si0u416290   4.888   8.664   2.617
    1MUSC Si0u516291   4.460   8.834   2.084
    1MUSC Si0u616292   4.621   8.819   2.617
    1MUSC Si0u716293   4.972   8.834   1.613
    1MUSC Si0u816294   4.628   8.819   3.088
    1MUSC Si0u916295   4.979   8.536   1.614
    1MUSC Si0uA16296   4.621   8.211   3.087
    1MUSC Si0uB16297   4.453   8.536   2.084
    1MUSC Si0uC16298   4.627   8.211   2.617
    1MUSC Si0uD16299   4.720   8.381   2.084
    1MUSC Si0uE16300   4.881   8.367   2.617
    1MUSC Si0uF16301   4.712   8.381   1.613
    1MUSC Si0uG16302   4.368   8.367   3.088
    1MUSC O02i116303   4.482   8.822   2.243
    1MUSC O02i216304   4.598   8.831   2.458
    1MUSC O02i316305   4.950   8.822   1.454
    1MUSC O02i416306   4.650   8.831   3.247
    1MUSC O02i516307   4.737   8.642   1.446
    1MUSC O02i616308   4.343   9.010   3.255
    1MUSC O02i716309   4.695   8.642   2.252
    1MUSC O02i816310   4.906   9.010   2.449
    1MUSC O02i916311   4.597   8.891   1.665
    1MUSC O02iA16312   4.483   8.762   3.036
    1MUSC O02iB16313   4.835   8.891   2.032
    1MUSC O02iC16314   4.766   8.762   2.669
    1MUSC O02iD16315   4.576   8.928   2.013
    1MUSC O02iE16316   4.505   8.725   2.688
    1MUSC O02iF16317   4.856   8.928   1.685
    1MUSC O02iG16318   4.744   8.725   3.016
    1MUSC O02iH16319   4.476   8.684   2.013
    1MUSC O02iI16320   4.604   8.968   2.688
    1MUSC O02iJ16321   4.956   8.684   1.684
    1MUSC O02iK16322   4.644   8.968   3.017
    1MUSC O02iL16323   4.737   9.000   1.454
    1MUSC O02iM16324   4.343   8.652   3.247
    1MUSC O02iN16325   4.695   9.000   2.243
    1MUSC O02iO16326   4.906   8.652   2.458
    1MUSC O02iP16327   4.742   8.370   2.243
    1MUSC O02iQ16328   4.859   8.378   2.458
    1MUSC O02iR16329   4.690   8.370   1.454
    1MUSC O02iS16330   4.390   8.378   3.247
    1MUSC O02iT16331   4.997   8.190   1.446
    1MUSC O02iU16332   4.603   8.558   3.255
    1MUSC O02iV16333   4.434   8.190   2.252
    1MUSC O02iW16334   4.646   8.558   2.449
    1MUSC O02iX16335   4.857   8.438   1.665
    1MUSC O02iY16336   4.743   8.309   3.036
    1MUSC O02iZ16337   4.575   8.438   2.032
    1MUSC O02ia16338   4.505   8.309   2.669
    1MUSC O02ib16339   4.836   8.475   2.013
    1MUSC O02ic16340   4.765   8.272   2.688
    1MUSC O02id16341   4.596   8.475   1.685
    1MUSC O02ie16342   4.484   8.272   3.016
    1MUSC O02if16343   4.736   8.232   2.013
    1MUSC O02ig16344   4.865   8.516   2.688
    1MUSC O02ih16345   4.696   8.232   1.684
    1MUSC O02ii16346   4.384   8.516   3.017
    1MUSC O02ij16347   4.997   8.548   1.454
    1MUSC O02ik16348   4.603   8.200   3.247
    1MUSC O02il16349   4.434   8.548   2.243
    1MUSC O02im16350   4.646   8.200   2.458
    1MUSC K00AZ16351   4.547   9.868   0.845
    1MUSC K00Aa16352   4.807   9.415   0.845
    1MUSC Al0S916353   4.726   9.579   0.343
    1MUSC Al0SA16354   4.720   9.884   0.344
    1MUSC Al0SB16355   5.072   9.579   3.355
    1MUSC Al0SC16356   4.895   9.884   1.346
    1MUSC Al0SD16357   4.987   9.126   0.343
    1MUSC Al0SE16358   4.980   9.432   0.344
    1MUSC Al0SF16359   4.811   9.126   3.355
    1MUSC Al0SG16360   4.635   9.432   1.346
    1MUSC Si0uH16361   4.902   9.894   3.621
    1MUSC Si0uI16362   4.544   9.569   1.080
    1MUSC Si0uJ16363   4.896   9.894   0.077
    1MUSC Si0uK16364   5.071   9.569   0.610
    1MUSC Si0uL16365   4.643   9.739   0.077
    1MUSC Si0uM16366   4.804   9.724   0.610
    1MUSC Si0uN16367   5.155   9.739   3.620
    1MUSC Si0uO16368   4.811   9.724   1.081
    1MUSC Si0uP16369   5.162   9.441   3.621
    1MUSC Si0uQ16370   4.804   9.117   1.080
    1MUSC Si0uR16371   4.636   9.441   0.077
    1MUSC Si0uS16372   4.810   9.117   0.610
    1MUSC Si0uT16373   4.903   9.286   0.077
    1MUSC Si0uU16374   5.064   9.272   0.610
    1MUSC Si0uV16375   4.895   9.286   3.620
    1MUSC Si0uW16376   4.551   9.272   1.081
    1MUSC O02in16377   4.665   9.728   0.236
    1MUSC O02io16378   4.781   9.736   0.451
    1MUSC O02ip16379   5.133   9.728   3.461
    1MUSC O02iq16380   4.833   9.736   1.240
    1MUSC O02ir16381   4.920   9.548   3.453
    1MUSC O02is16382   4.526   9.916   1.248
    1MUSC O02it16383   4.878   9.548   0.245
    1MUSC O02iu16384   5.089   9.916   0.442
    1MUSC O02iv16385   4.780   9.796   3.672
    1MUSC O02iw16386   4.666   9.667   1.029
    1MUSC O02ix16387   5.018   9.796   0.025
    1MUSC O02iy16388   4.949   9.667   0.662
    1MUSC O02iz16389   4.759   9.833   0.006
    1MUSC O02j016390   4.688   9.630   0.681
    1MUSC O02j116391   5.039   9.833   3.692
    1MUSC O02j216392   4.927   9.630   1.009
    1MUSC O02j316393   4.659   9.590   0.006
    1MUSC O02j416394   4.787   9.874   0.681
    1MUSC O02j516395   5.139   9.590   3.691
    1MUSC O02j616396   4.827   9.874   1.010
    1MUSC O02j716397   4.920   9.906   3.461
    1MUSC O02j816398   4.526   9.558   1.240
    1MUSC O02j916399   4.878   9.906   0.236
    1MUSC O02jA16400   5.089   9.558   0.451
    1MUSC O02jB16401   4.925   9.275   0.236
    1MUSC O02jC16402   5.042   9.283   0.451
    1MUSC O02jD16403   4.873   9.275   3.461
    1MUSC O02jE16404   4.573   9.283   1.240
    1MUSC O02jF16405   5.180   9.095   3.453
    1MUSC O02jG16406   4.786   9.463   1.248
    1MUSC O02jH16407   4.617   9.095   0.245
    1MUSC O02jI16408   4.829   9.463   0.442
    1MUSC O02jJ16409   5.040   9.344   3.672
    1MUSC O02jK16410   4.926   9.214   1.029
    1MUSC O02jL16411   4.758   9.344   0.025
    1MUSC O02jM16412   4.688   9.214   0.662
    1MUSC O02jN16413   5.019   9.381   0.006
    1MUSC O02jO16414   4.948   9.177   0.681
    1MUSC O02jP16415   4.779   9.381   3.692
    1MUSC O02jQ16416   4.667   9.177   1.009
    1MUSC O02jR16417   4.919   9.137   0.006
    1MUSC O02jS16418   5.048   9.421   0.681
    1MUSC O02jT16419   4.879   9.137   3.691
    1MUSC O02jU16420   4.567   9.421   1.010
    1MUSC O02jV16421   5.180   9.453   3.461
    1MUSC O02jW16422   4.786   9.105   1.240
    1MUSC O02jX16423   4.617   9.453   0.236
    1MUSC O02jY16424   4.829   9.105   0.451
    1MUSC K00Ab16425   4.716   9.596   1.849
    1MUSC K00Ac16426   4.364   9.868   2.852
    1MUSC K00Ad16427   4.456   9.143   1.849
    1MUSC K00Ae16428   4.624   9.415   2.852
    1MUSC Al0SH16429   4.543   9.579   2.350
    1MUSC Al0SI16430   4.537   9.884   2.351
    1MUSC Al0SJ16431   4.889   9.579   1.348
    1MUSC Al0SK16432   4.712   9.884   3.353
    1MUSC Al0SL16433   4.804   9.126   2.350
    1MUSC Al0SM16434   4.797   9.432   2.351
    1MUSC Al0SN16435   4.628   9.126   1.348
    1MUSC Al0SO16436   4.452   9.432   3.353
    1MUSC Si0uX16437   4.719   9.894   1.614
    1MUSC Si0uY16438   4.361   9.569   3.087
    1MUSC Si0uZ16439   4.713   9.894   2.084
    1MUSC Si0ua16440   4.888   9.569   2.617
    1MUSC Si0ub16441   4.460   9.739   2.084
    1MUSC Si0uc16442   4.621   9.724   2.617
    1MUSC Si0ud16443   4.972   9.739   1.613
    1MUSC Si0ue16444   4.628   9.724   3.088
    1MUSC Si0uf16445   4.979   9.441   1.614
    1MUSC Si0ug16446   4.621   9.117   3.087
    1MUSC Si0uh16447   4.453   9.441   2.084
    1MUSC Si0ui16448   4.627   9.117   2.617
    1MUSC Si0uj16449   4.720   9.286   2.084
    1MUSC Si0uk16450   4.881   9.272   2.617
    1MUSC Si0ul16451   4.712   9.286   1.613
    1MUSC Si0um16452   4.368   9.272   3.088
    1MUSC O02jZ16453   4.482   9.728   2.243
    1MUSC O02ja16454   4.598   9.736   2.458
    1MUSC O02jb16455   4.950   9.728   1.454
    1MUSC O02jc16456   4.650   9.736   3.247
    1MUSC O02jd16457   4.737   9.548   1.446
    1MUSC O02je16458   4.343   9.916   3.255
    1MUSC O02jf16459   4.695   9.548   2.252
    1MUSC O02jg16460   4.906   9.916   2.449
    1MUSC O02jh16461   4.597   9.796   1.665
    1MUSC O02ji16462   4.483   9.667   3.036
    1MUSC O02jj16463   4.835   9.796   2.032
    1MUSC O02jk16464   4.766   9.667   2.669
    1MUSC O02jl16465   4.576   9.833   2.013
    1MUSC O02jm16466   4.505   9.630   2.688
    1MUSC O02jn16467   4.856   9.833   1.685
    1MUSC O02jo16468   4.744   9.630   3.016
    1MUSC O02jp16469   4.476   9.590   2.013
    1MUSC O02jq16470   4.604   9.874   2.688
    1MUSC O02jr16471   4.956   9.590   1.684
    1MUSC O02js16472   4.644   9.874   3.017
    1MUSC O02jt16473   4.737   9.906   1.454
    1MUSC O02ju16474   4.343   9.558   3.247
    1MUSC O02jv16475   4.695   9.906   2.243
    1MUSC O02jw16476   4.906   9.558   2.458
    1MUSC O02jx16477   4.742   9.275   2.243
    1MUSC O02jy16478   4.859   9.283   2.458
    1MUSC O02jz16479   4.690   9.275   1.454
    1MUSC O02k016480   4.390   9.283   3.247
    1MUSC O02k116481   4.997   9.095   1.446
    1MUSC O02k216482   4.603   9.463   3.255
    1MUSC O02k316483   4.434   9.095   2.252
    1MUSC O02k416484   4.646   9.463   2.449
    1MUSC O02k516485   4.857   9.344   1.665
    1MUSC O02k616486   4.743   9.214   3.036
    1MUSC O02k716487   4.575   9.344   2.032
    1MUSC O02k816488   4.505   9.214   2.669
    1MUSC O02k916489   4.836   9.381   2.013
    1MUSC O02kA16490   4.765   9.177   2.688
    1MUSC O02kB16491   4.596   9.381   1.685
    1MUSC O02kC16492   4.484   9.177   3.016
    1MUSC O02kD16493   4.736   9.137   2.013
    1MUSC O02kE16494   4.865   9.421   2.688
    1MUSC O02kF16495   4.696   9.137   1.684
    1MUSC O02kG16496   4.384   9.421   3.017
    1MUSC O02kH16497   4.997   9.453   1.454
    1MUSC O02kI16498   4.603   9.105   3.247
    1MUSC O02kJ16499   4.434   9.453   2.243
    1MUSC O02kK16500   4.646   9.105   2.458
    1MUSC K00Af16501   5.068   0.815   0.845
    1MUSC K00Ag16502   5.328   0.362   0.845
    1MUSC Al0SP16503   5.247   0.526   0.343
    1MUSC Al0SQ16504   5.240   0.831   0.344
    1MUSC Al0SR16505   5.592   0.526   3.355
    1MUSC Al0SS16506   5.416   0.831   1.346
    1MUSC Al0ST16507   5.507   0.074   0.343
    1MUSC Al0SU16508   5.501   0.379   0.344
    1MUSC Al0SV16509   5.332   0.074   3.355
    1MUSC Al0SW16510   5.155   0.379   1.346
    1MUSC Si0un16511   5.422   0.841   3.621
    1MUSC Si0uo16512   5.065   0.517   1.080
    1MUSC Si0up16513   5.416   0.841   0.077
    1MUSC Si0uq16514   5.591   0.517   0.610
    1MUSC Si0ur16515   5.163   0.686   0.077
    1MUSC Si0us16516   5.324   0.672   0.610
    1MUSC Si0ut16517   5.676   0.686   3.620
    1MUSC Si0uu16518   5.332   0.672   1.081
    1MUSC Si0uv16519   5.683   0.389   3.621
    1MUSC Si0uw16520   5.325   0.064   1.080
    1MUSC Si0ux16521   5.156   0.389   0.077
    1MUSC Si0uy16522   5.331   0.064   0.610
    1MUSC Si0uz16523   5.423   0.233   0.077
    1MUSC Si0v016524   5.584   0.219   0.610
    1MUSC Si0v116525   5.416   0.233   3.620
    1MUSC Si0v216526   5.072   0.219   1.081
    1MUSC O02kL16527   5.185   0.675   0.236
    1MUSC O02kM16528   5.302   0.683   0.451
    1MUSC O02kN16529   5.654   0.675   3.461
    1MUSC O02kO16530   5.354   0.683   1.240
    1MUSC O02kP16531   5.441   0.495   3.453
    1MUSC O02kQ16532   5.046   0.863   1.248
    1MUSC O02kR16533   5.398   0.495   0.245
    1MUSC O02kS16534   5.609   0.863   0.442
    1MUSC O02kT16535   5.300   0.744   3.672
    1MUSC O02kU16536   5.187   0.614   1.029
    1MUSC O02kV16537   5.538   0.744   0.025
    1MUSC O02kW16538   5.469   0.614   0.662
    1MUSC O02kX16539   5.279   0.781   0.006
    1MUSC O02kY16540   5.208   0.577   0.681
    1MUSC O02kZ16541   5.560   0.781   3.692
    1MUSC O02ka16542   5.448   0.577   1.009
    1MUSC O02kb16543   5.179   0.537   0.006
    1MUSC O02kc16544   5.308   0.821   0.681
    1MUSC O02kd16545   5.660   0.537   3.691
    1MUSC O02ke16546   5.348   0.821   1.010
    1MUSC O02kf16547   5.441   0.853   3.461
    1MUSC O02kg16548   5.046   0.505   1.240
    1MUSC O02kh16549   5.398   0.853   0.236
    1MUSC O02ki16550   5.609   0.505   0.451
    1MUSC O02kj16551   5.445   0.222   0.236
    1MUSC O02kk16552   5.562   0.230   0.451
    1MUSC O02kl16553   5.393   0.222   3.461
    1MUSC O02km16554   5.094   0.230   1.240
    1MUSC O02kn16555   5.701   0.042   3.453
    1MUSC O02ko16556   5.307   0.410   1.248
    1MUSC O02kp16557   5.138   0.042   0.245
    1MUSC O02kq16558   5.349   0.410   0.442
    1MUSC O02kr16559   5.561   0.291   3.672
    1MUSC O02ks16560   5.447   0.162   1.029
    1MUSC O02kt16561   5.278   0.291   0.025
    1MUSC O02ku16562   5.209   0.162   0.662
    1MUSC O02kv16563   5.539   0.328   0.006
    1MUSC O02kw16564   5.468   0.125   0.681
    1MUSC O02kx16565   5.300   0.328   3.692
    1MUSC O02ky16566   5.188   0.125   1.009
    1MUSC O02kz16567   5.439   0.084   0.006
    1MUSC O02l016568   5.568   0.368   0.681
    1MUSC O02l116569   5.399   0.084   3.691
    1MUSC O02l216570   5.088   0.368   1.010
    1MUSC O02l316571   5.701   0.400   3.461
    1MUSC O02l416572   5.307   0.052   1.240
    1MUSC O02l516573   5.138   0.400   0.236
    1MUSC O02l616574   5.349   0.052   0.451
    1MUSC K00Ah16575   5.236   0.543   1.849
    1MUSC K00Ai16576   4.885   0.815   2.852
    1MUSC K00Aj16577   4.976   0.090   1.849
    1MUSC K00Ak16578   5.145   0.362   2.852
    1MUSC Al0SX16579   5.064   0.526   2.350
    1MUSC Al0SY16580   5.057   0.831   2.351
    1MUSC Al0SZ16581   5.409   0.526   1.348
    1MUSC Al0Sa16582   5.233   0.831   3.353
    1MUSC Al0Sb16583   5.324   0.074   2.350
    1MUSC Al0Sc16584   5.318   0.379   2.351
    1MUSC Al0Sd16585   5.149   0.074   1.348
    1MUSC Al0Se16586   4.972   0.379   3.353
    1MUSC Si0v316587   5.239   0.841   1.614
    1MUSC Si0v416588   4.882   0.517   3.087
    1MUSC Si0v516589   5.233   0.841   2.084
    1MUSC Si0v616590   5.408   0.517   2.617
    1MUSC Si0v716591   4.980   0.686   2.084
    1MUSC Si0v816592   5.141   0.672   2.617
    1MUSC Si0v916593   5.493   0.686   1.613
    1MUSC Si0vA16594   5.149   0.672   3.088
    1MUSC Si0vB16595   5.500   0.389   1.614
    1MUSC Si0vC16596   5.142   0.064   3.087
    1MUSC Si0vD16597   4.973   0.389   2.084
    1MUSC Si0vE16598   5.148   0.064   2.617
    1MUSC Si0vF16599   5.240   0.233   2.084
    1MUSC Si0vG16600   5.401   0.219   2.617
    1MUSC Si0vH16601   5.233   0.233   1.613
    1MUSC Si0vI16602   4.889   0.219   3.088
    1MUSC O02l716603   5.002   0.675   2.243
    1MUSC O02l816604   5.119   0.683   2.458
    1MUSC O02l916605   5.471   0.675   1.454
    1MUSC O02lA16606   5.171   0.683   3.247
    1MUSC O02lB16607   5.258   0.495   1.446
    1MUSC O02lC16608   4.863   0.863   3.255
    1MUSC O02lD16609   5.215   0.495   2.252
    1MUSC O02lE16610   5.426   0.863   2.449
    1MUSC O02lF16611   5.117   0.744   1.665
    1MUSC O02lG16612   5.004   0.614   3.036
    1MUSC O02lH16613   5.355   0.744   2.032
    1MUSC O02lI16614   5.286   0.614   2.669
    1MUSC O02lJ16615   5.096   0.781   2.013
    1MUSC O02lK16616   5.025   0.577   2.688
    1MUSC O02lL16617   5.377   0.781   1.685
    1MUSC O02lM16618   5.265   0.577   3.016
    1MUSC O02lN16619   4.996   0.537   2.013
    1MUSC O02lO16620   5.125   0.821   2.688
    1MUSC O02lP16621   5.477   0.537   1.684
    1MUSC O02lQ16622   5.165   0.821   3.017
    1MUSC O02lR16623   5.258   0.853   1.454
    1MUSC O02lS16624   4.863   0.505   3.247
    1MUSC O02lT16625   5.215   0.853   2.243
    1MUSC O02lU16626   5.426   0.505   2.458
    1MUSC O02lV16627   5.262   0.222   2.243
    1MUSC O02lW16628   5.379   0.230   2.458
    1MUSC O02lX16629   5.210   0.222   1.454
    1MUSC O02lY16630   4.911   0.230   3.247
    1MUSC O02lZ16631   5.518   0.042   1.446
    1MUSC O02la16632   5.124   0.410   3.255
    1MUSC O02lb16633   4.955   0.042   2.252
    1MUSC O02lc16634   5.166   0.410   2.449
    1MUSC O02ld16635   5.378   0.291   1.665
    1MUSC O02le16636   5.264   0.162   3.036
    1MUSC O02lf16637   5.095   0.291   2.032
    1MUSC O02lg16638   5.026   0.162   2.669
    1MUSC O02lh16639   5.356   0.328   2.013
    1MUSC O02li16640   5.285   0.125   2.688
    1MUSC O02lj16641   5.117   0.328   1.685
    1MUSC O02lk16642   5.005   0.125   3.016
    1MUSC O02ll16643   5.256   0.084   2.013
    1MUSC O02lm16644   5.385   0.368   2.688
    1MUSC O02ln16645   5.216   0.084   1.684
    1MUSC O02lo16646   4.905   0.368   3.017
    1MUSC O02lp16647   5.518   0.400   1.454
    1MUSC O02lq16648   5.124   0.052   3.247
    1MUSC O02lr16649   4.955   0.400   2.243
    1MUSC O02ls16650   5.166   0.052   2.458
    1MUSC K00Al16651   5.068   1.720   0.845
    1MUSC K00Am16652   5.328   1.268   0.845
    1MUSC Al0Sf16653   5.247   1.432   0.343
    1MUSC Al0Sg16654   5.240   1.737   0.344
    1MUSC Al0Sh16655   5.592   1.432   3.355
    1MUSC Al0Si16656   5.416   1.737   1.346
    1MUSC Al0Sj16657   5.507   0.979   0.343
    1MUSC Al0Sk16658   5.501   1.284   0.344
    1MUSC Al0Sl16659   5.332   0.979   3.355
    1MUSC Al0Sm16660   5.155   1.284   1.346
    1MUSC Si0vJ16661   5.422   1.747   3.621
    1MUSC Si0vK16662   5.065   1.422   1.080
    1MUSC Si0vL16663   5.416   1.747   0.077
    1MUSC Si0vM16664   5.591   1.422   0.610
    1MUSC Si0vN16665   5.163   1.591   0.077
    1MUSC Si0vO16666   5.324   1.577   0.610
    1MUSC Si0vP16667   5.676   1.591   3.620
    1MUSC Si0vQ16668   5.332   1.577   1.081
    1MUSC Si0vR16669   5.683   1.294   3.621
    1MUSC Si0vS16670   5.325   0.969   1.080
    1MUSC Si0vT16671   5.156   1.294   0.077
    1MUSC Si0vU16672   5.331   0.969   0.610
    1MUSC Si0vV16673   5.423   1.139   0.077
    1MUSC Si0vW16674   5.584   1.124   0.610
    1MUSC Si0vX16675   5.416   1.139   3.620
    1MUSC Si0vY16676   5.072   1.124   1.081
    1MUSC O02lt16677   5.185   1.580   0.236
    1MUSC O02lu16678   5.302   1.588   0.451
    1MUSC O02lv16679   5.654   1.580   3.461
    1MUSC O02lw16680   5.354   1.588   1.240
    1MUSC O02lx16681   5.441   1.400   3.453
    1MUSC O02ly16682   5.046   1.768   1.248
    1MUSC O02lz16683   5.398   1.400   0.245
    1MUSC O02m016684   5.609   1.768   0.442
    1MUSC O02m116685   5.300   1.649   3.672
    1MUSC O02m216686   5.187   1.520   1.029
    1MUSC O02m316687   5.538   1.649   0.025
    1MUSC O02m416688   5.469   1.520   0.662
    1MUSC O02m516689   5.279   1.686   0.006
    1MUSC O02m616690   5.208   1.483   0.681
    1MUSC O02m716691   5.560   1.686   3.692
    1MUSC O02m816692   5.448   1.483   1.009
    1MUSC O02m916693   5.179   1.442   0.006
    1MUSC O02mA16694   5.308   1.726   0.681
    1MUSC O02mB16695   5.660   1.442   3.691
    1MUSC O02mC16696   5.348   1.726   1.010
    1MUSC O02mD16697   5.441   1.758   3.461
    1MUSC O02mE16698   5.046   1.410   1.240
    1MUSC O02mF16699   5.398   1.758   0.236
    1MUSC O02mG16700   5.609   1.410   0.451
    1MUSC O02mH16701   5.445   1.127   0.236
    1MUSC O02mI16702   5.562   1.136   0.451
    1MUSC O02mJ16703   5.393   1.127   3.461
    1MUSC O02mK16704   5.094   1.136   1.240
    1MUSC O02mL16705   5.701   0.948   3.453
    1MUSC O02mM16706   5.307   1.316   1.248
    1MUSC O02mN16707   5.138   0.948   0.245
    1MUSC O02mO16708   5.349   1.316   0.442
    1MUSC O02mP16709   5.561   1.196   3.672
    1MUSC O02mQ16710   5.447   1.067   1.029
    1MUSC O02mR16711   5.278   1.196   0.025
    1MUSC O02mS16712   5.209   1.067   0.662
    1MUSC O02mT16713   5.539   1.233   0.006
    1MUSC O02mU16714   5.468   1.030   0.681
    1MUSC O02mV16715   5.300   1.233   3.692
    1MUSC O02mW16716   5.188   1.030   1.009
    1MUSC O02mX16717   5.439   0.990   0.006
    1MUSC O02mY16718   5.568   1.274   0.681
    1MUSC O02mZ16719   5.399   0.990   3.691
    1MUSC O02ma16720   5.088   1.274   1.010
    1MUSC O02mb16721   5.701   1.306   3.461
    1MUSC O02mc16722   5.307   0.958   1.240
    1MUSC O02md16723   5.138   1.306   0.236
    1MUSC O02me16724   5.349   0.958   0.451
    1MUSC K00An16725   5.236   1.448   1.849
    1MUSC K00Ao16726   4.885   1.720   2.852
    1MUSC K00Ap16727   4.976   0.996   1.849
    1MUSC K00Aq16728   5.145   1.268   2.852
    1MUSC Al0Sn16729   5.064   1.432   2.350
    1MUSC Al0So16730   5.057   1.737   2.351
    1MUSC Al0Sp16731   5.409   1.432   1.348
    1MUSC Al0Sq16732   5.233   1.737   3.353
    1MUSC Al0Sr16733   5.324   0.979   2.350
    1MUSC Al0Ss16734   5.318   1.284   2.351
    1MUSC Al0St16735   5.149   0.979   1.348
    1MUSC Al0Su16736   4.972   1.284   3.353
    1MUSC Si0vZ16737   5.239   1.747   1.614
    1MUSC Si0va16738   4.882   1.422   3.087
    1MUSC Si0vb16739   5.233   1.747   2.084
    1MUSC Si0vc16740   5.408   1.422   2.617
    1MUSC Si0vd16741   4.980   1.591   2.084
    1MUSC Si0ve16742   5.141   1.577   2.617
    1MUSC Si0vf16743   5.493   1.591   1.613
    1MUSC Si0vg16744   5.149   1.577   3.088
    1MUSC Si0vh16745   5.500   1.294   1.614
    1MUSC Si0vi16746   5.142   0.969   3.087
    1MUSC Si0vj16747   4.973   1.294   2.084
    1MUSC Si0vk16748   5.148   0.969   2.617
    1MUSC Si0vl16749   5.240   1.139   2.084
    1MUSC Si0vm16750   5.401   1.124   2.617
    1MUSC Si0vn16751   5.233   1.139   1.613
    1MUSC Si0vo16752   4.889   1.124   3.088
    1MUSC O02mf16753   5.002   1.580   2.243
    1MUSC O02mg16754   5.119   1.588   2.458
    1MUSC O02mh16755   5.471   1.580   1.454
    1MUSC O02mi16756   5.171   1.588   3.247
    1MUSC O02mj16757   5.258   1.400   1.446
    1MUSC O02mk16758   4.863   1.768   3.255
    1MUSC O02ml16759   5.215   1.400   2.252
    1MUSC O02mm16760   5.426   1.768   2.449
    1MUSC O02mn16761   5.117   1.649   1.665
    1MUSC O02mo16762   5.004   1.520   3.036
    1MUSC O02mp16763   5.355   1.649   2.032
    1MUSC O02mq16764   5.286   1.520   2.669
    1MUSC O02mr16765   5.096   1.686   2.013
    1MUSC O02ms16766   5.025   1.483   2.688
    1MUSC O02mt16767   5.377   1.686   1.685
    1MUSC O02mu16768   5.265   1.483   3.016
    1MUSC O02mv16769   4.996   1.442   2.013
    1MUSC O02mw16770   5.125   1.726   2.688
    1MUSC O02mx16771   5.477   1.442   1.684
    1MUSC O02my16772   5.165   1.726   3.017
    1MUSC O02mz16773   5.258   1.758   1.454
    1MUSC O02n016774   4.863   1.410   3.247
    1MUSC O02n116775   5.215   1.758   2.243
    1MUSC O02n216776   5.426   1.410   2.458
    1MUSC O02n316777   5.262   1.127   2.243
    1MUSC O02n416778   5.379   1.136   2.458
    1MUSC O02n516779   5.210   1.127   1.454
    1MUSC O02n616780   4.911   1.136   3.247
    1MUSC O02n716781   5.518   0.948   1.446
    1MUSC O02n816782   5.124   1.316   3.255
    1MUSC O02n916783   4.955   0.948   2.252
    1MUSC O02nA16784   5.166   1.316   2.449
    1MUSC O02nB16785   5.378   1.196   1.665
    1MUSC O02nC16786   5.264   1.067   3.036
    1MUSC O02nD16787   5.095   1.196   2.032
    1MUSC O02nE16788   5.026   1.067   2.669
    1MUSC O02nF16789   5.356   1.233   2.013
    1MUSC O02nG16790   5.285   1.030   2.688
    1MUSC O02nH16791   5.117   1.233   1.685
    1MUSC O02nI16792   5.005   1.030   3.016
    1MUSC O02nJ16793   5.256   0.990   2.013
    1MUSC O02nK16794   5.385   1.274   2.688
    1MUSC O02nL16795   5.216   0.990   1.684
    1MUSC O02nM16796   4.905   1.274   3.017
    1MUSC O02nN16797   5.518   1.306   1.454
    1MUSC O02nO16798   5.124   0.958   3.247
    1MUSC O02nP16799   4.955   1.306   2.243
    1MUSC O02nQ16800   5.166   0.958   2.458
    1MUSC K00Ar16801   5.068   2.626   0.845
    1MUSC K00As16802   5.328   2.173   0.845
    1MUSC Al0Sv16803   5.247   2.337   0.343
    1MUSC Al0Sw16804   5.240   2.642   0.344
    1MUSC Al0Sx16805   5.592   2.337   3.355
    1MUSC Al0Sy16806   5.416   2.642   1.346
    1MUSC Al0Sz16807   5.507   1.884   0.343
    1MUSC Al0T016808   5.501   2.189   0.344
    1MUSC Al0T116809   5.332   1.884   3.355
    1MUSC Al0T216810   5.155   2.189   1.346
    1MUSC Si0vp16811   5.422   2.652   3.621
    1MUSC Si0vq16812   5.065   2.327   1.080
    1MUSC Si0vr16813   5.416   2.652   0.077
    1MUSC Si0vs16814   5.591   2.327   0.610
    1MUSC Si0vt16815   5.163   2.497   0.077
    1MUSC Si0vu16816   5.324   2.482   0.610
    1MUSC Si0vv16817   5.676   2.497   3.620
    1MUSC Si0vw16818   5.332   2.482   1.081
    1MUSC Si0vx16819   5.683   2.199   3.621
    1MUSC Si0vy16820   5.325   1.874   1.080
    1MUSC Si0vz16821   5.156   2.199   0.077
    1MUSC Si0w016822   5.331   1.874   0.610
    1MUSC Si0w116823   5.423   2.044   0.077
    1MUSC Si0w216824   5.584   2.030   0.610
    1MUSC Si0w316825   5.416   2.044   3.620
    1MUSC Si0w416826   5.072   2.030   1.081
    1MUSC O02nR16827   5.185   2.485   0.236
    1MUSC O02nS16828   5.302   2.494   0.451
    1MUSC O02nT16829   5.654   2.485   3.461
    1MUSC O02nU16830   5.354   2.494   1.240
    1MUSC O02nV16831   5.441   2.305   3.453
    1MUSC O02nW16832   5.046   2.674   1.248
    1MUSC O02nX16833   5.398   2.305   0.245
    1MUSC O02nY16834   5.609   2.674   0.442
    1MUSC O02nZ16835   5.300   2.554   3.672
    1MUSC O02na16836   5.187   2.425   1.029
    1MUSC O02nb16837   5.538   2.554   0.025
    1MUSC O02nc16838   5.469   2.425   0.662
    1MUSC O02nd16839   5.279   2.591   0.006
    1MUSC O02ne16840   5.208   2.388   0.681
    1MUSC O02nf16841   5.560   2.591   3.692
    1MUSC O02ng16842   5.448   2.388   1.009
    1MUSC O02nh16843   5.179   2.347   0.006
    1MUSC O02ni16844   5.308   2.632   0.681
    1MUSC O02nj16845   5.660   2.347   3.691
    1MUSC O02nk16846   5.348   2.632   1.010
    1MUSC O02nl16847   5.441   2.663   3.461
    1MUSC O02nm16848   5.046   2.316   1.240
    1MUSC O02nn16849   5.398   2.663   0.236
    1MUSC O02no16850   5.609   2.316   0.451
    1MUSC O02np16851   5.445   2.033   0.236
    1MUSC O02nq16852   5.562   2.041   0.451
    1MUSC O02nr16853   5.393   2.033   3.461
    1MUSC O02ns16854   5.094   2.041   1.240
    1MUSC O02nt16855   5.701   1.853   3.453
    1MUSC O02nu16856   5.307   2.221   1.248
    1MUSC O02nv16857   5.138   1.853   0.245
    1MUSC O02nw16858   5.349   2.221   0.442
    1MUSC O02nx16859   5.561   2.101   3.672
    1MUSC O02ny16860   5.447   1.972   1.029
    1MUSC O02nz16861   5.278   2.101   0.025
    1MUSC O02o016862   5.209   1.972   0.662
    1MUSC O02o116863   5.539   2.139   0.006
    1MUSC O02o216864   5.468   1.935   0.681
    1MUSC O02o316865   5.300   2.139   3.692
    1MUSC O02o416866   5.188   1.935   1.009
    1MUSC O02o516867   5.439   1.895   0.006
    1MUSC O02o616868   5.568   2.179   0.681
    1MUSC O02o716869   5.399   1.895   3.691
    1MUSC O02o816870   5.088   2.179   1.010
    1MUSC O02o916871   5.701   2.211   3.461
    1MUSC O02oA16872   5.307   1.863   1.240
    1MUSC O02oB16873   5.138   2.211   0.236
    1MUSC O02oC16874   5.349   1.863   0.451
    1MUSC K00At16875   5.236   2.353   1.849
    1MUSC K00Au16876   4.885   2.626   2.852
    1MUSC K00Av16877   4.976   1.901   1.849
    1MUSC K00Aw16878   5.145   2.173   2.852
    1MUSC Al0T316879   5.064   2.337   2.350
    1MUSC Al0T416880   5.057   2.642   2.351
    1MUSC Al0T516881   5.409   2.337   1.348
    1MUSC Al0T616882   5.233   2.642   3.353
    1MUSC Al0T716883   5.324   1.884   2.350
    1MUSC Al0T816884   5.318   2.189   2.351
    1MUSC Al0T916885   5.149   1.884   1.348
    1MUSC Al0TA16886   4.972   2.189   3.353
    1MUSC Si0w516887   5.239   2.652   1.614
    1MUSC Si0w616888   4.882   2.327   3.087
    1MUSC Si0w716889   5.233   2.652   2.084
    1MUSC Si0w816890   5.408   2.327   2.617
    1MUSC Si0w916891   4.980   2.497   2.084
    1MUSC Si0wA16892   5.141   2.482   2.617
    1MUSC Si0wB16893   5.493   2.497   1.613
    1MUSC Si0wC16894   5.149   2.482   3.088
    1MUSC Si0wD16895   5.500   2.199   1.614
    1MUSC Si0wE16896   5.142   1.874   3.087
    1MUSC Si0wF16897   4.973   2.199   2.084
    1MUSC Si0wG16898   5.148   1.874   2.617
    1MUSC Si0wH16899   5.240   2.044   2.084
    1MUSC Si0wI16900   5.401   2.030   2.617
    1MUSC Si0wJ16901   5.233   2.044   1.613
    1MUSC Si0wK16902   4.889   2.030   3.088
    1MUSC O02oD16903   5.002   2.485   2.243
    1MUSC O02oE16904   5.119   2.494   2.458
    1MUSC O02oF16905   5.471   2.485   1.454
    1MUSC O02oG16906   5.171   2.494   3.247
    1MUSC O02oH16907   5.258   2.305   1.446
    1MUSC O02oI16908   4.863   2.674   3.255
    1MUSC O02oJ16909   5.215   2.305   2.252
    1MUSC O02oK16910   5.426   2.674   2.449
    1MUSC O02oL16911   5.117   2.554   1.665
    1MUSC O02oM16912   5.004   2.425   3.036
    1MUSC O02oN16913   5.355   2.554   2.032
    1MUSC O02oO16914   5.286   2.425   2.669
    1MUSC O02oP16915   5.096   2.591   2.013
    1MUSC O02oQ16916   5.025   2.388   2.688
    1MUSC O02oR16917   5.377   2.591   1.685
    1MUSC O02oS16918   5.265   2.388   3.016
    1MUSC O02oT16919   4.996   2.347   2.013
    1MUSC O02oU16920   5.125   2.632   2.688
    1MUSC O02oV16921   5.477   2.347   1.684
    1MUSC O02oW16922   5.165   2.632   3.017
    1MUSC O02oX16923   5.258   2.663   1.454
    1MUSC O02oY16924   4.863   2.316   3.247
    1MUSC O02oZ16925   5.215   2.663   2.243
    1MUSC O02oa16926   5.426   2.316   2.458
    1MUSC O02ob16927   5.262   2.033   2.243
    1MUSC O02oc16928   5.379   2.041   2.458
    1MUSC O02od16929   5.210   2.033   1.454
    1MUSC O02oe16930   4.911   2.041   3.247
    1MUSC O02of16931   5.518   1.853   1.446
    1MUSC O02og16932   5.124   2.221   3.255
    1MUSC O02oh16933   4.955   1.853   2.252
    1MUSC O02oi16934   5.166   2.221   2.449
    1MUSC O02oj16935   5.378   2.101   1.665
    1MUSC O02ok16936   5.264   1.972   3.036
    1MUSC O02ol16937   5.095   2.101   2.032
    1MUSC O02om16938   5.026   1.972   2.669
    1MUSC O02on16939   5.356   2.139   2.013
    1MUSC O02oo16940   5.285   1.935   2.688
    1MUSC O02op16941   5.117   2.139   1.685
    1MUSC O02oq16942   5.005   1.935   3.016
    1MUSC O02or16943   5.256   1.895   2.013
    1MUSC O02os16944   5.385   2.179   2.688
    1MUSC O02ot16945   5.216   1.895   1.684
    1MUSC O02ou16946   4.905   2.179   3.017
    1MUSC O02ov16947   5.518   2.211   1.454
    1MUSC O02ow16948   5.124   1.863   3.247
    1MUSC O02ox16949   4.955   2.211   2.243
    1MUSC O02oy16950   5.166   1.863   2.458
    1MUSC K00Ax16951   5.068   3.531   0.845
    1MUSC K00Ay16952   5.328   3.078   0.845
    1MUSC Al0TB16953   5.247   3.242   0.343
    1MUSC Al0TC16954   5.240   3.547   0.344
    1MUSC Al0TD16955   5.592   3.242   3.355
    1MUSC Al0TE16956   5.416   3.547   1.346
    1MUSC Al0TF16957   5.507   2.790   0.343
    1MUSC Al0TG16958   5.501   3.095   0.344
    1MUSC Al0TH16959   5.332   2.790   3.355
    1MUSC Al0TI16960   5.155   3.095   1.346
    1MUSC Si0wL16961   5.422   3.557   3.621
    1MUSC Si0wM16962   5.065   3.232   1.080
    1MUSC Si0wN16963   5.416   3.557   0.077
    1MUSC Si0wO16964   5.591   3.232   0.610
    1MUSC Si0wP16965   5.163   3.402   0.077
    1MUSC Si0wQ16966   5.324   3.388   0.610
    1MUSC Si0wR16967   5.676   3.402   3.620
    1MUSC Si0wS16968   5.332   3.388   1.081
    1MUSC Si0wT16969   5.683   3.105   3.621
    1MUSC Si0wU16970   5.325   2.780   1.080
    1MUSC Si0wV16971   5.156   3.105   0.077
    1MUSC Si0wW16972   5.331   2.780   0.610
    1MUSC Si0wX16973   5.423   2.949   0.077
    1MUSC Si0wY16974   5.584   2.935   0.610
    1MUSC Si0wZ16975   5.416   2.949   3.620
    1MUSC Si0wa16976   5.072   2.935   1.081
    1MUSC O02oz16977   5.185   3.391   0.236
    1MUSC O02p016978   5.302   3.399   0.451
    1MUSC O02p116979   5.654   3.391   3.461
    1MUSC O02p216980   5.354   3.399   1.240
    1MUSC O02p316981   5.441   3.211   3.453
    1MUSC O02p416982   5.046   3.579   1.248
    1MUSC O02p516983   5.398   3.211   0.245
    1MUSC O02p616984   5.609   3.579   0.442
    1MUSC O02p716985   5.300   3.459   3.672
    1MUSC O02p816986   5.187   3.330   1.029
    1MUSC O02p916987   5.538   3.459   0.025
    1MUSC O02pA16988   5.469   3.330   0.662
    1MUSC O02pB16989   5.279   3.496   0.006
    1MUSC O02pC16990   5.208   3.293   0.681
    1MUSC O02pD16991   5.560   3.496   3.692
    1MUSC O02pE16992   5.448   3.293   1.009
    1MUSC O02pF16993   5.179   3.253   0.006
    1MUSC O02pG16994   5.308   3.537   0.681
    1MUSC O02pH16995   5.660   3.253   3.691
    1MUSC O02pI16996   5.348   3.537   1.010
    1MUSC O02pJ16997   5.441   3.569   3.461
    1MUSC O02pK16998   5.046   3.221   1.240
    1MUSC O02pL16999   5.398   3.569   0.236
    1MUSC O02pM17000   5.609   3.221   0.451
    1MUSC O02pN17001   5.445   2.938   0.236
    1MUSC O02pO17002   5.562   2.946   0.451
    1MUSC O02pP17003   5.393   2.938   3.461
    1MUSC O02pQ17004   5.094   2.946   1.240
    1MUSC O02pR17005   5.701   2.758   3.453
    1MUSC O02pS17006   5.307   3.126   1.248
    1MUSC O02pT17007   5.138   2.758   0.245
    1MUSC O02pU17008   5.349   3.126   0.442
    1MUSC O02pV17009   5.561   3.007   3.672
    1MUSC O02pW17010   5.447   2.877   1.029
    1MUSC O02pX17011   5.278   3.007   0.025
    1MUSC O02pY17012   5.209   2.877   0.662
    1MUSC O02pZ17013   5.539   3.044   0.006
    1MUSC O02pa17014   5.468   2.840   0.681
    1MUSC O02pb17015   5.300   3.044   3.692
    1MUSC O02pc17016   5.188   2.840   1.009
    1MUSC O02pd17017   5.439   2.800   0.006
    1MUSC O02pe17018   5.568   3.084   0.681
    1MUSC O02pf17019   5.399   2.800   3.691
    1MUSC O02pg17020   5.088   3.084   1.010
    1MUSC O02ph17021   5.701   3.116   3.461
    1MUSC O02pi17022   5.307   2.768   1.240
    1MUSC O02pj17023   5.138   3.116   0.236
    1MUSC O02pk17024   5.349   2.768   0.451
    1MUSC K00Az17025   5.236   3.259   1.849
    1MUSC K00B017026   4.885   3.531   2.852
    1MUSC K00B117027   4.976   2.806   1.849
    1MUSC K00B217028   5.145   3.078   2.852
    1MUSC Al0TJ17029   5.064   3.242   2.350
    1MUSC Al0TK17030   5.057   3.547   2.351
    1MUSC Al0TL17031   5.409   3.242   1.348
    1MUSC Al0TM17032   5.233   3.547   3.353
    1MUSC Al0TN17033   5.324   2.790   2.350
    1MUSC Al0TO17034   5.318   3.095   2.351
    1MUSC Al0TP17035   5.149   2.790   1.348
    1MUSC Al0TQ17036   4.972   3.095   3.353
    1MUSC Si0wb17037   5.239   3.557   1.614
    1MUSC Si0wc17038   4.882   3.232   3.087
    1MUSC Si0wd17039   5.233   3.557   2.084
    1MUSC Si0we17040   5.408   3.232   2.617
    1MUSC Si0wf17041   4.980   3.402   2.084
    1MUSC Si0wg17042   5.141   3.388   2.617
    1MUSC Si0wh17043   5.493   3.402   1.613
    1MUSC Si0wi17044   5.149   3.388   3.088
    1MUSC Si0wj17045   5.500   3.105   1.614
    1MUSC Si0wk17046   5.142   2.780   3.087
    1MUSC Si0wl17047   4.973   3.105   2.084
    1MUSC Si0wm17048   5.148   2.780   2.617
    1MUSC Si0wn17049   5.240   2.949   2.084
    1MUSC Si0wo17050   5.401   2.935   2.617
    1MUSC Si0wp17051   5.233   2.949   1.613
    1MUSC Si0wq17052   4.889   2.935   3.088
    1MUSC O02pl17053   5.002   3.391   2.243
    1MUSC O02pm17054   5.119   3.399   2.458
    1MUSC O02pn17055   5.471   3.391   1.454
    1MUSC O02po17056   5.171   3.399   3.247
    1MUSC O02pp17057   5.258   3.211   1.446
    1MUSC O02pq17058   4.863   3.579   3.255
    1MUSC O02pr17059   5.215   3.211   2.252
    1MUSC O02ps17060   5.426   3.579   2.449
    1MUSC O02pt17061   5.117   3.459   1.665
    1MUSC O02pu17062   5.004   3.330   3.036
    1MUSC O02pv17063   5.355   3.459   2.032
    1MUSC O02pw17064   5.286   3.330   2.669
    1MUSC O02px17065   5.096   3.496   2.013
    1MUSC O02py17066   5.025   3.293   2.688
    1MUSC O02pz17067   5.377   3.496   1.685
    1MUSC O02q017068   5.265   3.293   3.016
    1MUSC O02q117069   4.996   3.253   2.013
    1MUSC O02q217070   5.125   3.537   2.688
    1MUSC O02q317071   5.477   3.253   1.684
    1MUSC O02q417072   5.165   3.537   3.017
    1MUSC O02q517073   5.258   3.569   1.454
    1MUSC O02q617074   4.863   3.221   3.247
    1MUSC O02q717075   5.215   3.569   2.243
    1MUSC O02q817076   5.426   3.221   2.458
    1MUSC O02q917077   5.262   2.938   2.243
    1MUSC O02qA17078   5.379   2.946   2.458
    1MUSC O02qB17079   5.210   2.938   1.454
    1MUSC O02qC17080   4.911   2.946   3.247
    1MUSC O02qD17081   5.518   2.758   1.446
    1MUSC O02qE17082   5.124   3.126   3.255
    1MUSC O02qF17083   4.955   2.758   2.252
    1MUSC O02qG17084   5.166   3.126   2.449
    1MUSC O02qH17085   5.378   3.007   1.665
    1MUSC O02qI17086   5.264   2.877   3.036
    1MUSC O02qJ17087   5.095   3.007   2.032
    1MUSC O02qK17088   5.026   2.877   2.669
    1MUSC O02qL17089   5.356   3.044   2.013
    1MUSC O02qM17090   5.285   2.840   2.688
    1MUSC O02qN17091   5.117   3.044   1.685
    1MUSC O02qO17092   5.005   2.840   3.016
    1MUSC O02qP17093   5.256   2.800   2.013
    1MUSC O02qQ17094   5.385   3.084   2.688
    1MUSC O02qR17095   5.216   2.800   1.684
    1MUSC O02qS17096   4.905   3.084   3.017
    1MUSC O02qT17097   5.518   3.116   1.454
    1MUSC O02qU17098   5.124   2.768   3.247
    1MUSC O02qV17099   4.955   3.116   2.243
    1MUSC O02qW17100   5.166   2.768   2.458
    1MUSC K00B317101   5.068   4.436   0.845
    1MUSC K00B417102   5.328   3.983   0.845
    1MUSC Al0TR17103   5.247   4.147   0.343
    1MUSC Al0TS17104   5.240   4.453   0.344
    1MUSC Al0TT17105   5.592   4.147   3.355
    1MUSC Al0TU17106   5.416   4.453   1.346
    1MUSC Al0TV17107   5.507   3.695   0.343
    1MUSC Al0TW17108   5.501   4.000   0.344
    1MUSC Al0TX17109   5.332   3.695   3.355
    1MUSC Al0TY17110   5.155   4.000   1.346
    1MUSC Si0wr17111   5.422   4.462   3.621
    1MUSC Si0ws17112   5.065   4.138   1.080
    1MUSC Si0wt17113   5.416   4.462   0.077
    1MUSC Si0wu17114   5.591   4.138   0.610
    1MUSC Si0wv17115   5.163   4.307   0.077
    1MUSC Si0ww17116   5.324   4.293   0.610
    1MUSC Si0wx17117   5.676   4.307   3.620
    1MUSC Si0wy17118   5.332   4.293   1.081
    1MUSC Si0wz17119   5.683   4.010   3.621
    1MUSC Si0x017120   5.325   3.685   1.080
    1MUSC Si0x117121   5.156   4.010   0.077
    1MUSC Si0x217122   5.331   3.685   0.610
    1MUSC Si0x317123   5.423   3.855   0.077
    1MUSC Si0x417124   5.584   3.840   0.610
    1MUSC Si0x517125   5.416   3.855   3.620
    1MUSC Si0x617126   5.072   3.840   1.081
    1MUSC O02qX17127   5.185   4.296   0.236
    1MUSC O02qY17128   5.302   4.304   0.451
    1MUSC O02qZ17129   5.654   4.296   3.461
    1MUSC O02qa17130   5.354   4.304   1.240
    1MUSC O02qb17131   5.441   4.116   3.453
    1MUSC O02qc17132   5.046   4.484   1.248
    1MUSC O02qd17133   5.398   4.116   0.245
    1MUSC O02qe17134   5.609   4.484   0.442
    1MUSC O02qf17135   5.300   4.365   3.672
    1MUSC O02qg17136   5.187   4.235   1.029
    1MUSC O02qh17137   5.538   4.365   0.025
    1MUSC O02qi17138   5.469   4.235   0.662
    1MUSC O02qj17139   5.279   4.402   0.006
    1MUSC O02qk17140   5.208   4.198   0.681
    1MUSC O02ql17141   5.560   4.402   3.692
    1MUSC O02qm17142   5.448   4.198   1.009
    1MUSC O02qn17143   5.179   4.158   0.006
    1MUSC O02qo17144   5.308   4.442   0.681
    1MUSC O02qp17145   5.660   4.158   3.691
    1MUSC O02qq17146   5.348   4.442   1.010
    1MUSC O02qr17147   5.441   4.474   3.461
    1MUSC O02qs17148   5.046   4.126   1.240
    1MUSC O02qt17149   5.398   4.474   0.236
    1MUSC O02qu17150   5.609   4.126   0.451
    1MUSC O02qv17151   5.445   3.843   0.236
    1MUSC O02qw17152   5.562   3.852   0.451
    1MUSC O02qx17153   5.393   3.843   3.461
    1MUSC O02qy17154   5.094   3.852   1.240
    1MUSC O02qz17155   5.701   3.663   3.453
    1MUSC O02r017156   5.307   4.031   1.248
    1MUSC O02r117157   5.138   3.663   0.245
    1MUSC O02r217158   5.349   4.031   0.442
    1MUSC O02r317159   5.561   3.912   3.672
    1MUSC O02r417160   5.447   3.783   1.029
    1MUSC O02r517161   5.278   3.912   0.025
    1MUSC O02r617162   5.209   3.783   0.662
    1MUSC O02r717163   5.539   3.949   0.006
    1MUSC O02r817164   5.468   3.746   0.681
    1MUSC O02r917165   5.300   3.949   3.692
    1MUSC O02rA17166   5.188   3.746   1.009
    1MUSC O02rB17167   5.439   3.705   0.006
    1MUSC O02rC17168   5.568   3.989   0.681
    1MUSC O02rD17169   5.399   3.705   3.691
    1MUSC O02rE17170   5.088   3.989   1.010
    1MUSC O02rF17171   5.701   4.021   3.461
    1MUSC O02rG17172   5.307   3.673   1.240
    1MUSC O02rH17173   5.138   4.021   0.236
    1MUSC O02rI17174   5.349   3.673   0.451
    1MUSC K00B517175   5.236   4.164   1.849
    1MUSC K00B617176   4.885   4.436   2.852
    1MUSC K00B717177   4.976   3.711   1.849
    1MUSC K00B817178   5.145   3.983   2.852
    1MUSC Al0TZ17179   5.064   4.147   2.350
    1MUSC Al0Ta17180   5.057   4.453   2.351
    1MUSC Al0Tb17181   5.409   4.147   1.348
    1MUSC Al0Tc17182   5.233   4.453   3.353
    1MUSC Al0Td17183   5.324   3.695   2.350
    1MUSC Al0Te17184   5.318   4.000   2.351
    1MUSC Al0Tf17185   5.149   3.695   1.348
    1MUSC Al0Tg17186   4.972   4.000   3.353
    1MUSC Si0x717187   5.239   4.462   1.614
    1MUSC Si0x817188   4.882   4.138   3.087
    1MUSC Si0x917189   5.233   4.462   2.084
    1MUSC Si0xA17190   5.408   4.138   2.617
    1MUSC Si0xB17191   4.980   4.307   2.084
    1MUSC Si0xC17192   5.141   4.293   2.617
    1MUSC Si0xD17193   5.493   4.307   1.613
    1MUSC Si0xE17194   5.149   4.293   3.088
    1MUSC Si0xF17195   5.500   4.010   1.614
    1MUSC Si0xG17196   5.142   3.685   3.087
    1MUSC Si0xH17197   4.973   4.010   2.084
    1MUSC Si0xI17198   5.148   3.685   2.617
    1MUSC Si0xJ17199   5.240   3.855   2.084
    1MUSC Si0xK17200   5.401   3.840   2.617
    1MUSC Si0xL17201   5.233   3.855   1.613
    1MUSC Si0xM17202   4.889   3.840   3.088
    1MUSC O02rJ17203   5.002   4.296   2.243
    1MUSC O02rK17204   5.119   4.304   2.458
    1MUSC O02rL17205   5.471   4.296   1.454
    1MUSC O02rM17206   5.171   4.304   3.247
    1MUSC O02rN17207   5.258   4.116   1.446
    1MUSC O02rO17208   4.863   4.484   3.255
    1MUSC O02rP17209   5.215   4.116   2.252
    1MUSC O02rQ17210   5.426   4.484   2.449
    1MUSC O02rR17211   5.117   4.365   1.665
    1MUSC O02rS17212   5.004   4.235   3.036
    1MUSC O02rT17213   5.355   4.365   2.032
    1MUSC O02rU17214   5.286   4.235   2.669
    1MUSC O02rV17215   5.096   4.402   2.013
    1MUSC O02rW17216   5.025   4.198   2.688
    1MUSC O02rX17217   5.377   4.402   1.685
    1MUSC O02rY17218   5.265   4.198   3.016
    1MUSC O02rZ17219   4.996   4.158   2.013
    1MUSC O02ra17220   5.125   4.442   2.688
    1MUSC O02rb17221   5.477   4.158   1.684
    1MUSC O02rc17222   5.165   4.442   3.017
    1MUSC O02rd17223   5.258   4.474   1.454
    1MUSC O02re17224   4.863   4.126   3.247
    1MUSC O02rf17225   5.215   4.474   2.243
    1MUSC O02rg17226   5.426   4.126   2.458
    1MUSC O02rh17227   5.262   3.843   2.243
    1MUSC O02ri17228   5.379   3.852   2.458
    1MUSC O02rj17229   5.210   3.843   1.454
    1MUSC O02rk17230   4.911   3.852   3.247
    1MUSC O02rl17231   5.518   3.663   1.446
    1MUSC O02rm17232   5.124   4.031   3.255
    1MUSC O02rn17233   4.955   3.663   2.252
    1MUSC O02ro17234   5.166   4.031   2.449
    1MUSC O02rp17235   5.378   3.912   1.665
    1MUSC O02rq17236   5.264   3.783   3.036
    1MUSC O02rr17237   5.095   3.912   2.032
    1MUSC O02rs17238   5.026   3.783   2.669
    1MUSC O02rt17239   5.356   3.949   2.013
    1MUSC O02ru17240   5.285   3.746   2.688
    1MUSC O02rv17241   5.117   3.949   1.685
    1MUSC O02rw17242   5.005   3.746   3.016
    1MUSC O02rx17243   5.256   3.705   2.013
    1MUSC O02ry17244   5.385   3.989   2.688
    1MUSC O02rz17245   5.216   3.705   1.684
    1MUSC O02s017246   4.905   3.989   3.017
    1MUSC O02s117247   5.518   4.021   1.454
    1MUSC O02s217248   5.124   3.673   3.247
    1MUSC O02s317249   4.955   4.021   2.243
    1MUSC O02s417250   5.166   3.673   2.458
    1MUSC K00B917251   5.068   5.341   0.845
    1MUSC K00BA17252   5.328   4.889   0.845
    1MUSC Al0Th17253   5.247   5.053   0.343
    1MUSC Al0Ti17254   5.240   5.358   0.344
    1MUSC Al0Tj17255   5.592   5.053   3.355
    1MUSC Al0Tk17256   5.416   5.358   1.346
    1MUSC Al0Tl17257   5.507   4.600   0.343
    1MUSC Al0Tm17258   5.501   4.905   0.344
    1MUSC Al0Tn17259   5.332   4.600   3.355
    1MUSC Al0To17260   5.155   4.905   1.346
    1MUSC Si0xN17261   5.422   5.368   3.621
    1MUSC Si0xO17262   5.065   5.043   1.080
    1MUSC Si0xP17263   5.416   5.368   0.077
    1MUSC Si0xQ17264   5.591   5.043   0.610
    1MUSC Si0xR17265   5.163   5.212   0.077
    1MUSC Si0xS17266   5.324   5.198   0.610
    1MUSC Si0xT17267   5.676   5.212   3.620
    1MUSC Si0xU17268   5.332   5.198   1.081
    1MUSC Si0xV17269   5.683   4.915   3.621
    1MUSC Si0xW17270   5.325   4.590   1.080
    1MUSC Si0xX17271   5.156   4.915   0.077
    1MUSC Si0xY17272   5.331   4.590   0.610
    1MUSC Si0xZ17273   5.423   4.760   0.077
    1MUSC Si0xa17274   5.584   4.746   0.610
    1MUSC Si0xb17275   5.416   4.760   3.620
    1MUSC Si0xc17276   5.072   4.746   1.081
    1MUSC O02s517277   5.185   5.201   0.236
    1MUSC O02s617278   5.302   5.209   0.451
    1MUSC O02s717279   5.654   5.201   3.461
    1MUSC O02s817280   5.354   5.209   1.240
    1MUSC O02s917281   5.441   5.021   3.453
    1MUSC O02sA17282   5.046   5.389   1.248
    1MUSC O02sB17283   5.398   5.021   0.245
    1MUSC O02sC17284   5.609   5.389   0.442
    1MUSC O02sD17285   5.300   5.270   3.672
    1MUSC O02sE17286   5.187   5.141   1.029
    1MUSC O02sF17287   5.538   5.270   0.025
    1MUSC O02sG17288   5.469   5.141   0.662
    1MUSC O02sH17289   5.279   5.307   0.006
    1MUSC O02sI17290   5.208   5.104   0.681
    1MUSC O02sJ17291   5.560   5.307   3.692
    1MUSC O02sK17292   5.448   5.104   1.009
    1MUSC O02sL17293   5.179   5.063   0.006
    1MUSC O02sM17294   5.308   5.347   0.681
    1MUSC O02sN17295   5.660   5.063   3.691
    1MUSC O02sO17296   5.348   5.347   1.010
    1MUSC O02sP17297   5.441   5.379   3.461
    1MUSC O02sQ17298   5.046   5.031   1.240
    1MUSC O02sR17299   5.398   5.379   0.236
    1MUSC O02sS17300   5.609   5.031   0.451
    1MUSC O02sT17301   5.445   4.749   0.236
    1MUSC O02sU17302   5.562   4.757   0.451
    1MUSC O02sV17303   5.393   4.749   3.461
    1MUSC O02sW17304   5.094   4.757   1.240
    1MUSC O02sX17305   5.701   4.569   3.453
    1MUSC O02sY17306   5.307   4.937   1.248
    1MUSC O02sZ17307   5.138   4.569   0.245
    1MUSC O02sa17308   5.349   4.937   0.442
    1MUSC O02sb17309   5.561   4.817   3.672
    1MUSC O02sc17310   5.447   4.688   1.029
    1MUSC O02sd17311   5.278   4.817   0.025
    1MUSC O02se17312   5.209   4.688   0.662
    1MUSC O02sf17313   5.539   4.854   0.006
    1MUSC O02sg17314   5.468   4.651   0.681
    1MUSC O02sh17315   5.300   4.854   3.692
    1MUSC O02si17316   5.188   4.651   1.009
    1MUSC O02sj17317   5.439   4.611   0.006
    1MUSC O02sk17318   5.568   4.895   0.681
    1MUSC O02sl17319   5.399   4.611   3.691
    1MUSC O02sm17320   5.088   4.895   1.010
    1MUSC O02sn17321   5.701   4.927   3.461
    1MUSC O02so17322   5.307   4.579   1.240
    1MUSC O02sp17323   5.138   4.927   0.236
    1MUSC O02sq17324   5.349   4.579   0.451
    1MUSC K00BB17325   5.236   5.069   1.849
    1MUSC K00BC17326   4.885   5.341   2.852
    1MUSC K00BD17327   4.976   4.617   1.849
    1MUSC K00BE17328   5.145   4.889   2.852
    1MUSC Al0Tp17329   5.064   5.053   2.350
    1MUSC Al0Tq17330   5.057   5.358   2.351
    1MUSC Al0Tr17331   5.409   5.053   1.348
    1MUSC Al0Ts17332   5.233   5.358   3.353
    1MUSC Al0Tt17333   5.324   4.600   2.350
    1MUSC Al0Tu17334   5.318   4.905   2.351
    1MUSC Al0Tv17335   5.149   4.600   1.348
    1MUSC Al0Tw17336   4.972   4.905   3.353
    1MUSC Si0xd17337   5.239   5.368   1.614
    1MUSC Si0xe17338   4.882   5.043   3.087
    1MUSC Si0xf17339   5.233   5.368   2.084
    1MUSC Si0xg17340   5.408   5.043   2.617
    1MUSC Si0xh17341   4.980   5.212   2.084
    1MUSC Si0xi17342   5.141   5.198   2.617
    1MUSC Si0xj17343   5.493   5.212   1.613
    1MUSC Si0xk17344   5.149   5.198   3.088
    1MUSC Si0xl17345   5.500   4.915   1.614
    1MUSC Si0xm17346   5.142   4.590   3.087
    1MUSC Si0xn17347   4.973   4.915   2.084
    1MUSC Si0xo17348   5.148   4.590   2.617
    1MUSC Si0xp17349   5.240   4.760   2.084
    1MUSC Si0xq17350   5.401   4.746   2.617
    1MUSC Si0xr17351   5.233   4.760   1.613
    1MUSC Si0xs17352   4.889   4.746   3.088
    1MUSC O02sr17353   5.002   5.201   2.243
    1MUSC O02ss17354   5.119   5.209   2.458
    1MUSC O02st17355   5.471   5.201   1.454
    1MUSC O02su17356   5.171   5.209   3.247
    1MUSC O02sv17357   5.258   5.021   1.446
    1MUSC O02sw17358   4.863   5.389   3.255
    1MUSC O02sx17359   5.215   5.021   2.252
    1MUSC O02sy17360   5.426   5.389   2.449
    1MUSC O02sz17361   5.117   5.270   1.665
    1MUSC O02t017362   5.004   5.141   3.036
    1MUSC O02t117363   5.355   5.270   2.032
    1MUSC O02t217364   5.286   5.141   2.669
    1MUSC O02t317365   5.096   5.307   2.013
    1MUSC O02t417366   5.025   5.104   2.688
    1MUSC O02t517367   5.377   5.307   1.685
    1MUSC O02t617368   5.265   5.104   3.016
    1MUSC O02t717369   4.996   5.063   2.013
    1MUSC O02t817370   5.125   5.347   2.688
    1MUSC O02t917371   5.477   5.063   1.684
    1MUSC O02tA17372   5.165   5.347   3.017
    1MUSC O02tB17373   5.258   5.379   1.454
    1MUSC O02tC17374   4.863   5.031   3.247
    1MUSC O02tD17375   5.215   5.379   2.243
    1MUSC O02tE17376   5.426   5.031   2.458
    1MUSC O02tF17377   5.262   4.749   2.243
    1MUSC O02tG17378   5.379   4.757   2.458
    1MUSC O02tH17379   5.210   4.749   1.454
    1MUSC O02tI17380   4.911   4.757   3.247
    1MUSC O02tJ17381   5.518   4.569   1.446
    1MUSC O02tK17382   5.124   4.937   3.255
    1MUSC O02tL17383   4.955   4.569   2.252
    1MUSC O02tM17384   5.166   4.937   2.449
    1MUSC O02tN17385   5.378   4.817   1.665
    1MUSC O02tO17386   5.264   4.688   3.036
    1MUSC O02tP17387   5.095   4.817   2.032
    1MUSC O02tQ17388   5.026   4.688   2.669
    1MUSC O02tR17389   5.356   4.854   2.013
    1MUSC O02tS17390   5.285   4.651   2.688
    1MUSC O02tT17391   5.117   4.854   1.685
    1MUSC O02tU17392   5.005   4.651   3.016
    1MUSC O02tV17393   5.256   4.611   2.013
    1MUSC O02tW17394   5.385   4.895   2.688
    1MUSC O02tX17395   5.216   4.611   1.684
    1MUSC O02tY17396   4.905   4.895   3.017
    1MUSC O02tZ17397   5.518   4.927   1.454
    1MUSC O02ta17398   5.124   4.579   3.247
    1MUSC O02tb17399   4.955   4.927   2.243
    1MUSC O02tc17400   5.166   4.579   2.458
    1MUSC K00BF17401   5.068   6.247   0.845
    1MUSC K00BG17402   5.328   5.794   0.845
    1MUSC Al0Tx17403   5.247   5.958   0.343
    1MUSC Al0Ty17404   5.240   6.263   0.344
    1MUSC Al0Tz17405   5.592   5.958   3.355
    1MUSC Al0U017406   5.416   6.263   1.346
    1MUSC Al0U117407   5.507   5.505   0.343
    1MUSC Al0U217408   5.501   5.810   0.344
    1MUSC Al0U317409   5.332   5.505   3.355
    1MUSC Al0U417410   5.155   5.810   1.346
    1MUSC Si0xt17411   5.422   6.273   3.621
    1MUSC Si0xu17412   5.065   5.948   1.080
    1MUSC Si0xv17413   5.416   6.273   0.077
    1MUSC Si0xw17414   5.591   5.948   0.610
    1MUSC Si0xx17415   5.163   6.118   0.077
    1MUSC Si0xy17416   5.324   6.103   0.610
    1MUSC Si0xz17417   5.676   6.118   3.620
    1MUSC Si0y017418   5.332   6.103   1.081
    1MUSC Si0y117419   5.683   5.820   3.621
    1MUSC Si0y217420   5.325   5.495   1.080
    1MUSC Si0y317421   5.156   5.820   0.077
    1MUSC Si0y417422   5.331   5.495   0.610
    1MUSC Si0y517423   5.423   5.665   0.077
    1MUSC Si0y617424   5.584   5.651   0.610
    1MUSC Si0y717425   5.416   5.665   3.620
    1MUSC Si0y817426   5.072   5.651   1.081
    1MUSC O02td17427   5.185   6.106   0.236
    1MUSC O02te17428   5.302   6.115   0.451
    1MUSC O02tf17429   5.654   6.106   3.461
    1MUSC O02tg17430   5.354   6.115   1.240
    1MUSC O02th17431   5.441   5.927   3.453
    1MUSC O02ti17432   5.046   6.295   1.248
    1MUSC O02tj17433   5.398   5.927   0.245
    1MUSC O02tk17434   5.609   6.295   0.442
    1MUSC O02tl17435   5.300   6.175   3.672
    1MUSC O02tm17436   5.187   6.046   1.029
    1MUSC O02tn17437   5.538   6.175   0.025
    1MUSC O02to17438   5.469   6.046   0.662
    1MUSC O02tp17439   5.279   6.212   0.006
    1MUSC O02tq17440   5.208   6.009   0.681
    1MUSC O02tr17441   5.560   6.212   3.692
    1MUSC O02ts17442   5.448   6.009   1.009
    1MUSC O02tt17443   5.179   5.969   0.006
    1MUSC O02tu17444   5.308   6.253   0.681
    1MUSC O02tv17445   5.660   5.969   3.691
    1MUSC O02tw17446   5.348   6.253   1.010
    1MUSC O02tx17447   5.441   6.285   3.461
    1MUSC O02ty17448   5.046   5.937   1.240
    1MUSC O02tz17449   5.398   6.285   0.236
    1MUSC O02u017450   5.609   5.937   0.451
    1MUSC O02u117451   5.445   5.654   0.236
    1MUSC O02u217452   5.562   5.662   0.451
    1MUSC O02u317453   5.393   5.654   3.461
    1MUSC O02u417454   5.094   5.662   1.240
    1MUSC O02u517455   5.701   5.474   3.453
    1MUSC O02u617456   5.307   5.842   1.248
    1MUSC O02u717457   5.138   5.474   0.245
    1MUSC O02u817458   5.349   5.842   0.442
    1MUSC O02u917459   5.561   5.723   3.672
    1MUSC O02uA17460   5.447   5.593   1.029
    1MUSC O02uB17461   5.278   5.723   0.025
    1MUSC O02uC17462   5.209   5.593   0.662
    1MUSC O02uD17463   5.539   5.760   0.006
    1MUSC O02uE17464   5.468   5.556   0.681
    1MUSC O02uF17465   5.300   5.760   3.692
    1MUSC O02uG17466   5.188   5.556   1.009
    1MUSC O02uH17467   5.439   5.516   0.006
    1MUSC O02uI17468   5.568   5.800   0.681
    1MUSC O02uJ17469   5.399   5.516   3.691
    1MUSC O02uK17470   5.088   5.800   1.010
    1MUSC O02uL17471   5.701   5.832   3.461
    1MUSC O02uM17472   5.307   5.484   1.240
    1MUSC O02uN17473   5.138   5.832   0.236
    1MUSC O02uO17474   5.349   5.484   0.451
    1MUSC K00BH17475   5.236   5.975   1.849
    1MUSC K00BI17476   4.885   6.247   2.852
    1MUSC K00BJ17477   4.976   5.522   1.849
    1MUSC K00BK17478   5.145   5.794   2.852
    1MUSC Al0U517479   5.064   5.958   2.350
    1MUSC Al0U617480   5.057   6.263   2.351
    1MUSC Al0U717481   5.409   5.958   1.348
    1MUSC Al0U817482   5.233   6.263   3.353
    1MUSC Al0U917483   5.324   5.505   2.350
    1MUSC Al0UA17484   5.318   5.810   2.351
    1MUSC Al0UB17485   5.149   5.505   1.348
    1MUSC Al0UC17486   4.972   5.810   3.353
    1MUSC Si0y917487   5.239   6.273   1.614
    1MUSC Si0yA17488   4.882   5.948   3.087
    1MUSC Si0yB17489   5.233   6.273   2.084
    1MUSC Si0yC17490   5.408   5.948   2.617
    1MUSC Si0yD17491   4.980   6.118   2.084
    1MUSC Si0yE17492   5.141   6.103   2.617
    1MUSC Si0yF17493   5.493   6.118   1.613
    1MUSC Si0yG17494   5.149   6.103   3.088
    1MUSC Si0yH17495   5.500   5.820   1.614
    1MUSC Si0yI17496   5.142   5.495   3.087
    1MUSC Si0yJ17497   4.973   5.820   2.084
    1MUSC Si0yK17498   5.148   5.495   2.617
    1MUSC Si0yL17499   5.240   5.665   2.084
    1MUSC Si0yM17500   5.401   5.651   2.617
    1MUSC Si0yN17501   5.233   5.665   1.613
    1MUSC Si0yO17502   4.889   5.651   3.088
    1MUSC O02uP17503   5.002   6.106   2.243
    1MUSC O02uQ17504   5.119   6.115   2.458
    1MUSC O02uR17505   5.471   6.106   1.454
    1MUSC O02uS17506   5.171   6.115   3.247
    1MUSC O02uT17507   5.258   5.927   1.446
    1MUSC O02uU17508   4.863   6.295   3.255
    1MUSC O02uV17509   5.215   5.927   2.252
    1MUSC O02uW17510   5.426   6.295   2.449
    1MUSC O02uX17511   5.117   6.175   1.665
    1MUSC O02uY17512   5.004   6.046   3.036
    1MUSC O02uZ17513   5.355   6.175   2.032
    1MUSC O02ua17514   5.286   6.046   2.669
    1MUSC O02ub17515   5.096   6.212   2.013
    1MUSC O02uc17516   5.025   6.009   2.688
    1MUSC O02ud17517   5.377   6.212   1.685
    1MUSC O02ue17518   5.265   6.009   3.016
    1MUSC O02uf17519   4.996   5.969   2.013
    1MUSC O02ug17520   5.125   6.253   2.688
    1MUSC O02uh17521   5.477   5.969   1.684
    1MUSC O02ui17522   5.165   6.253   3.017
    1MUSC O02uj17523   5.258   6.285   1.454
    1MUSC O02uk17524   4.863   5.937   3.247
    1MUSC O02ul17525   5.215   6.285   2.243
    1MUSC O02um17526   5.426   5.937   2.458
    1MUSC O02un17527   5.262   5.654   2.243
    1MUSC O02uo17528   5.379   5.662   2.458
    1MUSC O02up17529   5.210   5.654   1.454
    1MUSC O02uq17530   4.911   5.662   3.247
    1MUSC O02ur17531   5.518   5.474   1.446
    1MUSC O02us17532   5.124   5.842   3.255
    1MUSC O02ut17533   4.955   5.474   2.252
    1MUSC O02uu17534   5.166   5.842   2.449
    1MUSC O02uv17535   5.378   5.723   1.665
    1MUSC O02uw17536   5.264   5.593   3.036
    1MUSC O02ux17537   5.095   5.723   2.032
    1MUSC O02uy17538   5.026   5.593   2.669
    1MUSC O02uz17539   5.356   5.760   2.013
    1MUSC O02v017540   5.285   5.556   2.688
    1MUSC O02v117541   5.117   5.760   1.685
    1MUSC O02v217542   5.005   5.556   3.016
    1MUSC O02v317543   5.256   5.516   2.013
    1MUSC O02v417544   5.385   5.800   2.688
    1MUSC O02v517545   5.216   5.516   1.684
    1MUSC O02v617546   4.905   5.800   3.017
    1MUSC O02v717547   5.518   5.832   1.454
    1MUSC O02v817548   5.124   5.484   3.247
    1MUSC O02v917549   4.955   5.832   2.243
    1MUSC O02vA17550   5.166   5.484   2.458
    1MUSC K00BL17551   5.068   7.152   0.845
    1MUSC K00BM17552   5.328   6.699   0.845
    1MUSC Al0UD17553   5.247   6.863   0.343
    1MUSC Al0UE17554   5.240   7.168   0.344
    1MUSC Al0UF17555   5.592   6.863   3.355
    1MUSC Al0UG17556   5.416   7.168   1.346
    1MUSC Al0UH17557   5.507   6.411   0.343
    1MUSC Al0UI17558   5.501   6.716   0.344
    1MUSC Al0UJ17559   5.332   6.411   3.355
    1MUSC Al0UK17560   5.155   6.716   1.346
    1MUSC Si0yP17561   5.422   7.178   3.621
    1MUSC Si0yQ17562   5.065   6.853   1.080
    1MUSC Si0yR17563   5.416   7.178   0.077
    1MUSC Si0yS17564   5.591   6.853   0.610
    1MUSC Si0yT17565   5.163   7.023   0.077
    1MUSC Si0yU17566   5.324   7.009   0.610
    1MUSC Si0yV17567   5.676   7.023   3.620
    1MUSC Si0yW17568   5.332   7.009   1.081
    1MUSC Si0yX17569   5.683   6.726   3.621
    1MUSC Si0yY17570   5.325   6.401   1.080
    1MUSC Si0yZ17571   5.156   6.726   0.077
    1MUSC Si0ya17572   5.331   6.401   0.610
    1MUSC Si0yb17573   5.423   6.570   0.077
    1MUSC Si0yc17574   5.584   6.556   0.610
    1MUSC Si0yd17575   5.416   6.570   3.620
    1MUSC Si0ye17576   5.072   6.556   1.081
    1MUSC O02vB17577   5.185   7.012   0.236
    1MUSC O02vC17578   5.302   7.020   0.451
    1MUSC O02vD17579   5.654   7.012   3.461
    1MUSC O02vE17580   5.354   7.020   1.240
    1MUSC O02vF17581   5.441   6.832   3.453
    1MUSC O02vG17582   5.046   7.200   1.248
    1MUSC O02vH17583   5.398   6.832   0.245
    1MUSC O02vI17584   5.609   7.200   0.442
    1MUSC O02vJ17585   5.300   7.080   3.672
    1MUSC O02vK17586   5.187   6.951   1.029
    1MUSC O02vL17587   5.538   7.080   0.025
    1MUSC O02vM17588   5.469   6.951   0.662
    1MUSC O02vN17589   5.279   7.117   0.006
    1MUSC O02vO17590   5.208   6.914   0.681
    1MUSC O02vP17591   5.560   7.117   3.692
    1MUSC O02vQ17592   5.448   6.914   1.009
    1MUSC O02vR17593   5.179   6.874   0.006
    1MUSC O02vS17594   5.308   7.158   0.681
    1MUSC O02vT17595   5.660   6.874   3.691
    1MUSC O02vU17596   5.348   7.158   1.010
    1MUSC O02vV17597   5.441   7.190   3.461
    1MUSC O02vW17598   5.046   6.842   1.240
    1MUSC O02vX17599   5.398   7.190   0.236
    1MUSC O02vY17600   5.609   6.842   0.451
    1MUSC O02vZ17601   5.445   6.559   0.236
    1MUSC O02va17602   5.562   6.567   0.451
    1MUSC O02vb17603   5.393   6.559   3.461
    1MUSC O02vc17604   5.094   6.567   1.240
    1MUSC O02vd17605   5.701   6.379   3.453
    1MUSC O02ve17606   5.307   6.747   1.248
    1MUSC O02vf17607   5.138   6.379   0.245
    1MUSC O02vg17608   5.349   6.747   0.442
    1MUSC O02vh17609   5.561   6.628   3.672
    1MUSC O02vi17610   5.447   6.499   1.029
    1MUSC O02vj17611   5.278   6.628   0.025
    1MUSC O02vk17612   5.209   6.499   0.662
    1MUSC O02vl17613   5.539   6.665   0.006
    1MUSC O02vm17614   5.468   6.462   0.681
    1MUSC O02vn17615   5.300   6.665   3.692
    1MUSC O02vo17616   5.188   6.462   1.009
    1MUSC O02vp17617   5.439   6.421   0.006
    1MUSC O02vq17618   5.568   6.705   0.681
    1MUSC O02vr17619   5.399   6.421   3.691
    1MUSC O02vs17620   5.088   6.705   1.010
    1MUSC O02vt17621   5.701   6.737   3.461
    1MUSC O02vu17622   5.307   6.389   1.240
    1MUSC O02vv17623   5.138   6.737   0.236
    1MUSC O02vw17624   5.349   6.389   0.451
    1MUSC K00BN17625   5.236   6.880   1.849
    1MUSC K00BO17626   4.885   7.152   2.852
    1MUSC K00BP17627   4.976   6.427   1.849
    1MUSC K00BQ17628   5.145   6.699   2.852
    1MUSC Al0UL17629   5.064   6.863   2.350
    1MUSC Al0UM17630   5.057   7.168   2.351
    1MUSC Al0UN17631   5.409   6.863   1.348
    1MUSC Al0UO17632   5.233   7.168   3.353
    1MUSC Al0UP17633   5.324   6.411   2.350
    1MUSC Al0UQ17634   5.318   6.716   2.351
    1MUSC Al0UR17635   5.149   6.411   1.348
    1MUSC Al0US17636   4.972   6.716   3.353
    1MUSC Si0yf17637   5.239   7.178   1.614
    1MUSC Si0yg17638   4.882   6.853   3.087
    1MUSC Si0yh17639   5.233   7.178   2.084
    1MUSC Si0yi17640   5.408   6.853   2.617
    1MUSC Si0yj17641   4.980   7.023   2.084
    1MUSC Si0yk17642   5.141   7.009   2.617
    1MUSC Si0yl17643   5.493   7.023   1.613
    1MUSC Si0ym17644   5.149   7.009   3.088
    1MUSC Si0yn17645   5.500   6.726   1.614
    1MUSC Si0yo17646   5.142   6.401   3.087
    1MUSC Si0yp17647   4.973   6.726   2.084
    1MUSC Si0yq17648   5.148   6.401   2.617
    1MUSC Si0yr17649   5.240   6.570   2.084
    1MUSC Si0ys17650   5.401   6.556   2.617
    1MUSC Si0yt17651   5.233   6.570   1.613
    1MUSC Si0yu17652   4.889   6.556   3.088
    1MUSC O02vx17653   5.002   7.012   2.243
    1MUSC O02vy17654   5.119   7.020   2.458
    1MUSC O02vz17655   5.471   7.012   1.454
    1MUSC O02w017656   5.171   7.020   3.247
    1MUSC O02w117657   5.258   6.832   1.446
    1MUSC O02w217658   4.863   7.200   3.255
    1MUSC O02w317659   5.215   6.832   2.252
    1MUSC O02w417660   5.426   7.200   2.449
    1MUSC O02w517661   5.117   7.080   1.665
    1MUSC O02w617662   5.004   6.951   3.036
    1MUSC O02w717663   5.355   7.080   2.032
    1MUSC O02w817664   5.286   6.951   2.669
    1MUSC O02w917665   5.096   7.117   2.013
    1MUSC O02wA17666   5.025   6.914   2.688
    1MUSC O02wB17667   5.377   7.117   1.685
    1MUSC O02wC17668   5.265   6.914   3.016
    1MUSC O02wD17669   4.996   6.874   2.013
    1MUSC O02wE17670   5.125   7.158   2.688
    1MUSC O02wF17671   5.477   6.874   1.684
    1MUSC O02wG17672   5.165   7.158   3.017
    1MUSC O02wH17673   5.258   7.190   1.454
    1MUSC O02wI17674   4.863   6.842   3.247
    1MUSC O02wJ17675   5.215   7.190   2.243
    1MUSC O02wK17676   5.426   6.842   2.458
    1MUSC O02wL17677   5.262   6.559   2.243
    1MUSC O02wM17678   5.379   6.567   2.458
    1MUSC O02wN17679   5.210   6.559   1.454
    1MUSC O02wO17680   4.911   6.567   3.247
    1MUSC O02wP17681   5.518   6.379   1.446
    1MUSC O02wQ17682   5.124   6.747   3.255
    1MUSC O02wR17683   4.955   6.379   2.252
    1MUSC O02wS17684   5.166   6.747   2.449
    1MUSC O02wT17685   5.378   6.628   1.665
    1MUSC O02wU17686   5.264   6.499   3.036
    1MUSC O02wV17687   5.095   6.628   2.032
    1MUSC O02wW17688   5.026   6.499   2.669
    1MUSC O02wX17689   5.356   6.665   2.013
    1MUSC O02wY17690   5.285   6.462   2.688
    1MUSC O02wZ17691   5.117   6.665   1.685
    1MUSC O02wa17692   5.005   6.462   3.016
    1MUSC O02wb17693   5.256   6.421   2.013
    1MUSC O02wc17694   5.385   6.705   2.688
    1MUSC O02wd17695   5.216   6.421   1.684
    1MUSC O02we17696   4.905   6.705   3.017
    1MUSC O02wf17697   5.518   6.737   1.454
    1MUSC O02wg17698   5.124   6.389   3.247
    1MUSC O02wh17699   4.955   6.737   2.243
    1MUSC O02wi17700   5.166   6.389   2.458
    1MUSC K00BR17701   5.068   8.057   0.845
    1MUSC K00BS17702   5.328   7.605   0.845
    1MUSC Al0UT17703   5.247   7.769   0.343
    1MUSC Al0UU17704   5.240   8.074   0.344
    1MUSC Al0UV17705   5.592   7.769   3.355
    1MUSC Al0UW17706   5.416   8.074   1.346
    1MUSC Al0UX17707   5.507   7.316   0.343
    1MUSC Al0UY17708   5.501   7.621   0.344
    1MUSC Al0UZ17709   5.332   7.316   3.355
    1MUSC Al0Ua17710   5.155   7.621   1.346
    1MUSC Si0yv17711   5.422   8.084   3.621
    1MUSC Si0yw17712   5.065   7.759   1.080
    1MUSC Si0yx17713   5.416   8.084   0.077
    1MUSC Si0yy17714   5.591   7.759   0.610
    1MUSC Si0yz17715   5.163   7.928   0.077
    1MUSC Si0z017716   5.324   7.914   0.610
    1MUSC Si0z117717   5.676   7.928   3.620
    1MUSC Si0z217718   5.332   7.914   1.081
    1MUSC Si0z317719   5.683   7.631   3.621
    1MUSC Si0z417720   5.325   7.306   1.080
    1MUSC Si0z517721   5.156   7.631   0.077
    1MUSC Si0z617722   5.331   7.306   0.610
    1MUSC Si0z717723   5.423   7.476   0.077
    1MUSC Si0z817724   5.584   7.461   0.610
    1MUSC Si0z917725   5.416   7.476   3.620
    1MUSC Si0zA17726   5.072   7.461   1.081
    1MUSC O02wj17727   5.185   7.917   0.236
    1MUSC O02wk17728   5.302   7.925   0.451
    1MUSC O02wl17729   5.654   7.917   3.461
    1MUSC O02wm17730   5.354   7.925   1.240
    1MUSC O02wn17731   5.441   7.737   3.453
    1MUSC O02wo17732   5.046   8.105   1.248
    1MUSC O02wp17733   5.398   7.737   0.245
    1MUSC O02wq17734   5.609   8.105   0.442
    1MUSC O02wr17735   5.300   7.986   3.672
    1MUSC O02ws17736   5.187   7.856   1.029
    1MUSC O02wt17737   5.538   7.986   0.025
    1MUSC O02wu17738   5.469   7.856   0.662
    1MUSC O02wv17739   5.279   8.023   0.006
    1MUSC O02ww17740   5.208   7.819   0.681
    1MUSC O02wx17741   5.560   8.023   3.692
    1MUSC O02wy17742   5.448   7.819   1.009
    1MUSC O02wz17743   5.179   7.779   0.006
    1MUSC O02x017744   5.308   8.063   0.681
    1MUSC O02x117745   5.660   7.779   3.691
    1MUSC O02x217746   5.348   8.063   1.010
    1MUSC O02x317747   5.441   8.095   3.461
    1MUSC O02x417748   5.046   7.747   1.240
    1MUSC O02x517749   5.398   8.095   0.236
    1MUSC O02x617750   5.609   7.747   0.451
    1MUSC O02x717751   5.445   7.464   0.236
    1MUSC O02x817752   5.562   7.473   0.451
    1MUSC O02x917753   5.393   7.464   3.461
    1MUSC O02xA17754   5.094   7.473   1.240
    1MUSC O02xB17755   5.701   7.284   3.453
    1MUSC O02xC17756   5.307   7.653   1.248
    1MUSC O02xD17757   5.138   7.284   0.245
    1MUSC O02xE17758   5.349   7.653   0.442
    1MUSC O02xF17759   5.561   7.533   3.672
    1MUSC O02xG17760   5.447   7.404   1.029
    1MUSC O02xH17761   5.278   7.533   0.025
    1MUSC O02xI17762   5.209   7.404   0.662
    1MUSC O02xJ17763   5.539   7.570   0.006
    1MUSC O02xK17764   5.468   7.367   0.681
    1MUSC O02xL17765   5.300   7.570   3.692
    1MUSC O02xM17766   5.188   7.367   1.009
    1MUSC O02xN17767   5.439   7.326   0.006
    1MUSC O02xO17768   5.568   7.611   0.681
    1MUSC O02xP17769   5.399   7.326   3.691
    1MUSC O02xQ17770   5.088   7.611   1.010
    1MUSC O02xR17771   5.701   7.642   3.461
    1MUSC O02xS17772   5.307   7.295   1.240
    1MUSC O02xT17773   5.138   7.642   0.236
    1MUSC O02xU17774   5.349   7.295   0.451
    1MUSC K00BT17775   5.236   7.785   1.849
    1MUSC K00BU17776   4.885   8.057   2.852
    1MUSC K00BV17777   4.976   7.332   1.849
    1MUSC K00BW17778   5.145   7.605   2.852
    1MUSC Al0Ub17779   5.064   7.769   2.350
    1MUSC Al0Uc17780   5.057   8.074   2.351
    1MUSC Al0Ud17781   5.409   7.769   1.348
    1MUSC Al0Ue17782   5.233   8.074   3.353
    1MUSC Al0Uf17783   5.324   7.316   2.350
    1MUSC Al0Ug17784   5.318   7.621   2.351
    1MUSC Al0Uh17785   5.149   7.316   1.348
    1MUSC Al0Ui17786   4.972   7.621   3.353
    1MUSC Si0zB17787   5.239   8.084   1.614
    1MUSC Si0zC17788   4.882   7.759   3.087
    1MUSC Si0zD17789   5.233   8.084   2.084
    1MUSC Si0zE17790   5.408   7.759   2.617
    1MUSC Si0zF17791   4.980   7.928   2.084
    1MUSC Si0zG17792   5.141   7.914   2.617
    1MUSC Si0zH17793   5.493   7.928   1.613
    1MUSC Si0zI17794   5.149   7.914   3.088
    1MUSC Si0zJ17795   5.500   7.631   1.614
    1MUSC Si0zK17796   5.142   7.306   3.087
    1MUSC Si0zL17797   4.973   7.631   2.084
    1MUSC Si0zM17798   5.148   7.306   2.617
    1MUSC Si0zN17799   5.240   7.476   2.084
    1MUSC Si0zO17800   5.401   7.461   2.617
    1MUSC Si0zP17801   5.233   7.476   1.613
    1MUSC Si0zQ17802   4.889   7.461   3.088
    1MUSC O02xV17803   5.002   7.917   2.243
    1MUSC O02xW17804   5.119   7.925   2.458
    1MUSC O02xX17805   5.471   7.917   1.454
    1MUSC O02xY17806   5.171   7.925   3.247
    1MUSC O02xZ17807   5.258   7.737   1.446
    1MUSC O02xa17808   4.863   8.105   3.255
    1MUSC O02xb17809   5.215   7.737   2.252
    1MUSC O02xc17810   5.426   8.105   2.449
    1MUSC O02xd17811   5.117   7.986   1.665
    1MUSC O02xe17812   5.004   7.856   3.036
    1MUSC O02xf17813   5.355   7.986   2.032
    1MUSC O02xg17814   5.286   7.856   2.669
    1MUSC O02xh17815   5.096   8.023   2.013
    1MUSC O02xi17816   5.025   7.819   2.688
    1MUSC O02xj17817   5.377   8.023   1.685
    1MUSC O02xk17818   5.265   7.819   3.016
    1MUSC O02xl17819   4.996   7.779   2.013
    1MUSC O02xm17820   5.125   8.063   2.688
    1MUSC O02xn17821   5.477   7.779   1.684
    1MUSC O02xo17822   5.165   8.063   3.017
    1MUSC O02xp17823   5.258   8.095   1.454
    1MUSC O02xq17824   4.863   7.747   3.247
    1MUSC O02xr17825   5.215   8.095   2.243
    1MUSC O02xs17826   5.426   7.747   2.458
    1MUSC O02xt17827   5.262   7.464   2.243
    1MUSC O02xu17828   5.379   7.473   2.458
    1MUSC O02xv17829   5.210   7.464   1.454
    1MUSC O02xw17830   4.911   7.473   3.247
    1MUSC O02xx17831   5.518   7.284   1.446
    1MUSC O02xy17832   5.124   7.653   3.255
    1MUSC O02xz17833   4.955   7.284   2.252
    1MUSC O02y017834   5.166   7.653   2.449
    1MUSC O02y117835   5.378   7.533   1.665
    1MUSC O02y217836   5.264   7.404   3.036
    1MUSC O02y317837   5.095   7.533   2.032
    1MUSC O02y417838   5.026   7.404   2.669
    1MUSC O02y517839   5.356   7.570   2.013
    1MUSC O02y617840   5.285   7.367   2.688
    1MUSC O02y717841   5.117   7.570   1.685
    1MUSC O02y817842   5.005   7.367   3.016
    1MUSC O02y917843   5.256   7.326   2.013
    1MUSC O02yA17844   5.385   7.611   2.688
    1MUSC O02yB17845   5.216   7.326   1.684
    1MUSC O02yC17846   4.905   7.611   3.017
    1MUSC O02yD17847   5.518   7.642   1.454
    1MUSC O02yE17848   5.124   7.295   3.247
    1MUSC O02yF17849   4.955   7.642   2.243
    1MUSC O02yG17850   5.166   7.295   2.458
    1MUSC K00BX17851   5.068   8.962   0.845
    1MUSC K00BY17852   5.328   8.510   0.845
    1MUSC Al0Uj17853   5.247   8.674   0.343
    1MUSC Al0Uk17854   5.240   8.979   0.344
    1MUSC Al0Ul17855   5.592   8.674   3.355
    1MUSC Al0Um17856   5.416   8.979   1.346
    1MUSC Al0Un17857   5.507   8.221   0.343
    1MUSC Al0Uo17858   5.501   8.526   0.344
    1MUSC Al0Up17859   5.332   8.221   3.355
    1MUSC Al0Uq17860   5.155   8.526   1.346
    1MUSC Si0zR17861   5.422   8.989   3.621
    1MUSC Si0zS17862   5.065   8.664   1.080
    1MUSC Si0zT17863   5.416   8.989   0.077
    1MUSC Si0zU17864   5.591   8.664   0.610
    1MUSC Si0zV17865   5.163   8.834   0.077
    1MUSC Si0zW17866   5.324   8.819   0.610
    1MUSC Si0zX17867   5.676   8.834   3.620
    1MUSC Si0zY17868   5.332   8.819   1.081
    1MUSC Si0zZ17869   5.683   8.536   3.621
    1MUSC Si0za17870   5.325   8.211   1.080
    1MUSC Si0zb17871   5.156   8.536   0.077
    1MUSC Si0zc17872   5.331   8.211   0.610
    1MUSC Si0zd17873   5.423   8.381   0.077
    1MUSC Si0ze17874   5.584   8.367   0.610
    1MUSC Si0zf17875   5.416   8.381   3.620
    1MUSC Si0zg17876   5.072   8.367   1.081
    1MUSC O02yH17877   5.185   8.822   0.236
    1MUSC O02yI17878   5.302   8.831   0.451
    1MUSC O02yJ17879   5.654   8.822   3.461
    1MUSC O02yK17880   5.354   8.831   1.240
    1MUSC O02yL17881   5.441   8.642   3.453
    1MUSC O02yM17882   5.046   9.010   1.248
    1MUSC O02yN17883   5.398   8.642   0.245
    1MUSC O02yO17884   5.609   9.010   0.442
    1MUSC O02yP17885   5.300   8.891   3.672
    1MUSC O02yQ17886   5.187   8.762   1.029
    1MUSC O02yR17887   5.538   8.891   0.025
    1MUSC O02yS17888   5.469   8.762   0.662
    1MUSC O02yT17889   5.279   8.928   0.006
    1MUSC O02yU17890   5.208   8.725   0.681
    1MUSC O02yV17891   5.560   8.928   3.692
    1MUSC O02yW17892   5.448   8.725   1.009
    1MUSC O02yX17893   5.179   8.684   0.006
    1MUSC O02yY17894   5.308   8.968   0.681
    1MUSC O02yZ17895   5.660   8.684   3.691
    1MUSC O02ya17896   5.348   8.968   1.010
    1MUSC O02yb17897   5.441   9.000   3.461
    1MUSC O02yc17898   5.046   8.652   1.240
    1MUSC O02yd17899   5.398   9.000   0.236
    1MUSC O02ye17900   5.609   8.652   0.451
    1MUSC O02yf17901   5.445   8.370   0.236
    1MUSC O02yg17902   5.562   8.378   0.451
    1MUSC O02yh17903   5.393   8.370   3.461
    1MUSC O02yi17904   5.094   8.378   1.240
    1MUSC O02yj17905   5.701   8.190   3.453
    1MUSC O02yk17906   5.307   8.558   1.248
    1MUSC O02yl17907   5.138   8.190   0.245
    1MUSC O02ym17908   5.349   8.558   0.442
    1MUSC O02yn17909   5.561   8.438   3.672
    1MUSC O02yo17910   5.447   8.309   1.029
    1MUSC O02yp17911   5.278   8.438   0.025
    1MUSC O02yq17912   5.209   8.309   0.662
    1MUSC O02yr17913   5.539   8.475   0.006
    1MUSC O02ys17914   5.468   8.272   0.681
    1MUSC O02yt17915   5.300   8.475   3.692
    1MUSC O02yu17916   5.188   8.272   1.009
    1MUSC O02yv17917   5.439   8.232   0.006
    1MUSC O02yw17918   5.568   8.516   0.681
    1MUSC O02yx17919   5.399   8.232   3.691
    1MUSC O02yy17920   5.088   8.516   1.010
    1MUSC O02yz17921   5.701   8.548   3.461
    1MUSC O02z017922   5.307   8.200   1.240
    1MUSC O02z117923   5.138   8.548   0.236
    1MUSC O02z217924   5.349   8.200   0.451
    1MUSC K00BZ17925   5.236   8.690   1.849
    1MUSC K00Ba17926   4.885   8.962   2.852
    1MUSC K00Bb17927   4.976   8.238   1.849
    1MUSC K00Bc17928   5.145   8.510   2.852
    1MUSC Al0Ur17929   5.064   8.674   2.350
    1MUSC Al0Us17930   5.057   8.979   2.351
    1MUSC Al0Ut17931   5.409   8.674   1.348
    1MUSC Al0Uu17932   5.233   8.979   3.353
    1MUSC Al0Uv17933   5.324   8.221   2.350
    1MUSC Al0Uw17934   5.318   8.526   2.351
    1MUSC Al0Ux17935   5.149   8.221   1.348
    1MUSC Al0Uy17936   4.972   8.526   3.353
    1MUSC Si0zh17937   5.239   8.989   1.614
    1MUSC Si0zi17938   4.882   8.664   3.087
    1MUSC Si0zj17939   5.233   8.989   2.084
    1MUSC Si0zk17940   5.408   8.664   2.617
    1MUSC Si0zl17941   4.980   8.834   2.084
    1MUSC Si0zm17942   5.141   8.819   2.617
    1MUSC Si0zn17943   5.493   8.834   1.613
    1MUSC Si0zo17944   5.149   8.819   3.088
    1MUSC Si0zp17945   5.500   8.536   1.614
    1MUSC Si0zq17946   5.142   8.211   3.087
    1MUSC Si0zr17947   4.973   8.536   2.084
    1MUSC Si0zs17948   5.148   8.211   2.617
    1MUSC Si0zt17949   5.240   8.381   2.084
    1MUSC Si0zu17950   5.401   8.367   2.617
    1MUSC Si0zv17951   5.233   8.381   1.613
    1MUSC Si0zw17952   4.889   8.367   3.088
    1MUSC O02z317953   5.002   8.822   2.243
    1MUSC O02z417954   5.119   8.831   2.458
    1MUSC O02z517955   5.471   8.822   1.454
    1MUSC O02z617956   5.171   8.831   3.247
    1MUSC O02z717957   5.258   8.642   1.446
    1MUSC O02z817958   4.863   9.010   3.255
    1MUSC O02z917959   5.215   8.642   2.252
    1MUSC O02zA17960   5.426   9.010   2.449
    1MUSC O02zB17961   5.117   8.891   1.665
    1MUSC O02zC17962   5.004   8.762   3.036
    1MUSC O02zD17963   5.355   8.891   2.032
    1MUSC O02zE17964   5.286   8.762   2.669
    1MUSC O02zF17965   5.096   8.928   2.013
    1MUSC O02zG17966   5.025   8.725   2.688
    1MUSC O02zH17967   5.377   8.928   1.685
    1MUSC O02zI17968   5.265   8.725   3.016
    1MUSC O02zJ17969   4.996   8.684   2.013
    1MUSC O02zK17970   5.125   8.968   2.688
    1MUSC O02zL17971   5.477   8.684   1.684
    1MUSC O02zM17972   5.165   8.968   3.017
    1MUSC O02zN17973   5.258   9.000   1.454
    1MUSC O02zO17974   4.863   8.652   3.247
    1MUSC O02zP17975   5.215   9.000   2.243
    1MUSC O02zQ17976   5.426   8.652   2.458
    1MUSC O02zR17977   5.262   8.370   2.243
    1MUSC O02zS17978   5.379   8.378   2.458
    1MUSC O02zT17979   5.210   8.370   1.454
    1MUSC O02zU17980   4.911   8.378   3.247
    1MUSC O02zV17981   5.518   8.190   1.446
    1MUSC O02zW17982   5.124   8.558   3.255
    1MUSC O02zX17983   4.955   8.190   2.252
    1MUSC O02zY17984   5.166   8.558   2.449
    1MUSC O02zZ17985   5.378   8.438   1.665
    1MUSC O02za17986   5.264   8.309   3.036
    1MUSC O02zb17987   5.095   8.438   2.032
    1MUSC O02zc17988   5.026   8.309   2.669
    1MUSC O02zd17989   5.356   8.475   2.013
    1MUSC O02ze17990   5.285   8.272   2.688
    1MUSC O02zf17991   5.117   8.475   1.685
    1MUSC O02zg17992   5.005   8.272   3.016
    1MUSC O02zh17993   5.256   8.232   2.013
    1MUSC O02zi17994   5.385   8.516   2.688
    1MUSC O02zj17995   5.216   8.232   1.684
    1MUSC O02zk17996   4.905   8.516   3.017
    1MUSC O02zl17997   5.518   8.548   1.454
    1MUSC O02zm17998   5.124   8.200   3.247
    1MUSC O02zn17999   4.955   8.548   2.243
    1MUSC O02zo18000   5.166   8.200   2.458
    1MUSC K00Bd18001   5.068   9.868   0.845
    1MUSC K00Be18002   5.328   9.415   0.845
    1MUSC Al0Uz18003   5.247   9.579   0.343
    1MUSC Al0V018004   5.240   9.884   0.344
    1MUSC Al0V118005   5.592   9.579   3.355
    1MUSC Al0V218006   5.416   9.884   1.346
    1MUSC Al0V318007   5.507   9.126   0.343
    1MUSC Al0V418008   5.501   9.432   0.344
    1MUSC Al0V518009   5.332   9.126   3.355
    1MUSC Al0V618010   5.155   9.432   1.346
    1MUSC Si0zx18011   5.422   9.894   3.621
    1MUSC Si0zy18012   5.065   9.569   1.080
    1MUSC Si0zz18013   5.416   9.894   0.077
    1MUSC Si10018014   5.591   9.569   0.610
    1MUSC Si10118015   5.163   9.739   0.077
    1MUSC Si10218016   5.324   9.724   0.610
    1MUSC Si10318017   5.676   9.739   3.620
    1MUSC Si10418018   5.332   9.724   1.081
    1MUSC Si10518019   5.683   9.441   3.621
    1MUSC Si10618020   5.325   9.117   1.080
    1MUSC Si10718021   5.156   9.441   0.077
    1MUSC Si10818022   5.331   9.117   0.610
    1MUSC Si10918023   5.423   9.286   0.077
    1MUSC Si10A18024   5.584   9.272   0.610
    1MUSC Si10B18025   5.416   9.286   3.620
    1MUSC Si10C18026   5.072   9.272   1.081
    1MUSC O02zp18027   5.185   9.728   0.236
    1MUSC O02zq18028   5.302   9.736   0.451
    1MUSC O02zr18029   5.654   9.728   3.461
    1MUSC O02zs18030   5.354   9.736   1.240
    1MUSC O02zt18031   5.441   9.548   3.453
    1MUSC O02zu18032   5.046   9.916   1.248
    1MUSC O02zv18033   5.398   9.548   0.245
    1MUSC O02zw18034   5.609   9.916   0.442
    1MUSC O02zx18035   5.300   9.796   3.672
    1MUSC O02zy18036   5.187   9.667   1.029
    1MUSC O02zz18037   5.538   9.796   0.025
    1MUSC O030018038   5.469   9.667   0.662
    1MUSC O030118039   5.279   9.833   0.006
    1MUSC O030218040   5.208   9.630   0.681
    1MUSC O030318041   5.560   9.833   3.692
    1MUSC O030418042   5.448   9.630   1.009
    1MUSC O030518043   5.179   9.590   0.006
    1MUSC O030618044   5.308   9.874   0.681
    1MUSC O030718045   5.660   9.590   3.691
    1MUSC O030818046   5.348   9.874   1.010
    1MUSC O030918047   5.441   9.906   3.461
    1MUSC O030A18048   5.046   9.558   1.240
    1MUSC O030B18049   5.398   9.906   0.236
    1MUSC O030C18050   5.609   9.558   0.451
    1MUSC O030D18051   5.445   9.275   0.236
    1MUSC O030E18052   5.562   9.283   0.451
    1MUSC O030F18053   5.393   9.275   3.461
    1MUSC O030G18054   5.094   9.283   1.240
    1MUSC O030H18055   5.701   9.095   3.453
    1MUSC O030I18056   5.307   9.463   1.248
    1MUSC O030J18057   5.138   9.095   0.245
    1MUSC O030K18058   5.349   9.463   0.442
    1MUSC O030L18059   5.561   9.344   3.672
    1MUSC O030M18060   5.447   9.214   1.029
    1MUSC O030N18061   5.278   9.344   0.025
    1MUSC O030O18062   5.209   9.214   0.662
    1MUSC O030P18063   5.539   9.381   0.006
    1MUSC O030Q18064   5.468   9.177   0.681
    1MUSC O030R18065   5.300   9.381   3.692
    1MUSC O030S18066   5.188   9.177   1.009
    1MUSC O030T18067   5.439   9.137   0.006
    1MUSC O030U18068   5.568   9.421   0.681
    1MUSC O030V18069   5.399   9.137   3.691
    1MUSC O030W18070   5.088   9.421   1.010
    1MUSC O030X18071   5.701   9.453   3.461
    1MUSC O030Y18072   5.307   9.105   1.240
    1MUSC O030Z18073   5.138   9.453   0.236
    1MUSC O030a18074   5.349   9.105   0.451
    1MUSC K00Bf18075   5.236   9.596   1.849
    1MUSC K00Bg18076   4.885   9.868   2.852
    1MUSC K00Bh18077   4.976   9.143   1.849
    1MUSC K00Bi18078   5.145   9.415   2.852
    1MUSC Al0V718079   5.064   9.579   2.350
    1MUSC Al0V818080   5.057   9.884   2.351
    1MUSC Al0V918081   5.409   9.579   1.348
    1MUSC Al0VA18082   5.233   9.884   3.353
    1MUSC Al0VB18083   5.324   9.126   2.350
    1MUSC Al0VC18084   5.318   9.432   2.351
    1MUSC Al0VD18085   5.149   9.126   1.348
    1MUSC Al0VE18086   4.972   9.432   3.353
    1MUSC Si10D18087   5.239   9.894   1.614
    1MUSC Si10E18088   4.882   9.569   3.087
    1MUSC Si10F18089   5.233   9.894   2.084
    1MUSC Si10G18090   5.408   9.569   2.617
    1MUSC Si10H18091   4.980   9.739   2.084
    1MUSC Si10I18092   5.141   9.724   2.617
    1MUSC Si10J18093   5.493   9.739   1.613
    1MUSC Si10K18094   5.149   9.724   3.088
    1MUSC Si10L18095   5.500   9.441   1.614
    1MUSC Si10M18096   5.142   9.117   3.087
    1MUSC Si10N18097   4.973   9.441   2.084
    1MUSC Si10O18098   5.148   9.117   2.617
    1MUSC Si10P18099   5.240   9.286   2.084
    1MUSC Si10Q18100   5.401   9.272   2.617
    1MUSC Si10R18101   5.233   9.286   1.613
    1MUSC Si10S18102   4.889   9.272   3.088
    1MUSC O030b18103   5.002   9.728   2.243
    1MUSC O030c18104   5.119   9.736   2.458
    1MUSC O030d18105   5.471   9.728   1.454
    1MUSC O030e18106   5.171   9.736   3.247
    1MUSC O030f18107   5.258   9.548   1.446
    1MUSC O030g18108   4.863   9.916   3.255
    1MUSC O030h18109   5.215   9.548   2.252
    1MUSC O030i18110   5.426   9.916   2.449
    1MUSC O030j18111   5.117   9.796   1.665
    1MUSC O030k18112   5.004   9.667   3.036
    1MUSC O030l18113   5.355   9.796   2.032
    1MUSC O030m18114   5.286   9.667   2.669
    1MUSC O030n18115   5.096   9.833   2.013
    1MUSC O030o18116   5.025   9.630   2.688
    1MUSC O030p18117   5.377   9.833   1.685
    1MUSC O030q18118   5.265   9.630   3.016
    1MUSC O030r18119   4.996   9.590   2.013
    1MUSC O030s18120   5.125   9.874   2.688
    1MUSC O030t18121   5.477   9.590   1.684
    1MUSC O030u18122   5.165   9.874   3.017
    1MUSC O030v18123   5.258   9.906   1.454
    1MUSC O030w18124   4.863   9.558   3.247
    1MUSC O030x18125   5.215   9.906   2.243
    1MUSC O030y18126   5.426   9.558   2.458
    1MUSC O030z18127   5.262   9.275   2.243
    1MUSC O031018128   5.379   9.283   2.458
    1MUSC O031118129   5.210   9.275   1.454
    1MUSC O031218130   4.911   9.283   3.247
    1MUSC O031318131   5.518   9.095   1.446
    1MUSC O031418132   5.124   9.463   3.255
    1MUSC O031518133   4.955   9.095   2.252
    1MUSC O031618134   5.166   9.463   2.449
    1MUSC O031718135   5.378   9.344   1.665
    1MUSC O031818136   5.264   9.214   3.036
    1MUSC O031918137   5.095   9.344   2.032
    1MUSC O031A18138   5.026   9.214   2.669
    1MUSC O031B18139   5.356   9.381   2.013
    1MUSC O031C18140   5.285   9.177   2.688
    1MUSC O031D18141   5.117   9.381   1.685
    1MUSC O031E18142   5.005   9.177   3.016
    1MUSC O031F18143   5.256   9.137   2.013
    1MUSC O031G18144   5.385   9.421   2.688
    1MUSC O031H18145   5.216   9.137   1.684
    1MUSC O031I18146   4.905   9.421   3.017
    1MUSC O031J18147   5.518   9.453   1.454
    1MUSC O031K18148   5.124   9.105   3.247
    1MUSC O031L18149   4.955   9.453   2.243
    1MUSC O031M18150   5.166   9.105   2.458
    1MUSC K00Bj18151   5.588   0.815   0.845
    1MUSC K00Bk18152   5.848   0.362   0.845
    1MUSC Al0VF18153   5.767   0.526   0.343
    1MUSC Al0VG18154   5.761   0.831   0.344
    1MUSC Al0VH18155   6.113   0.526   3.355
    1MUSC Al0VI18156   5.936   0.831   1.346
    1MUSC Al0VJ18157   6.027   0.074   0.343
    1MUSC Al0VK18158   6.021   0.379   0.344
    1MUSC Al0VL18159   5.852   0.074   3.355
    1MUSC Al0VM18160   5.676   0.379   1.346
    1MUSC Si10T18161   5.943   0.841   3.621
    1MUSC Si10U18162   5.585   0.517   1.080
    1MUSC Si10V18163   5.937   0.841   0.077
    1MUSC Si10W18164   6.112   0.517   0.610
    1MUSC Si10X18165   5.684   0.686   0.077
    1MUSC Si10Y18166   5.844   0.672   0.610
    1MUSC Si10Z18167   6.196   0.686   3.620
    1MUSC Si10a18168   5.852   0.672   1.081
    1MUSC Si10b18169   6.203   0.389   3.621
    1MUSC Si10c18170   5.845   0.064   1.080
    1MUSC Si10d18171   5.677   0.389   0.077
    1MUSC Si10e18172   5.851   0.064   0.610
    1MUSC Si10f18173   5.944   0.233   0.077
    1MUSC Si10g18174   6.105   0.219   0.610
    1MUSC Si10h18175   5.936   0.233   3.620
    1MUSC Si10i18176   5.592   0.219   1.081
    1MUSC O031N18177   5.706   0.675   0.236
    1MUSC O031O18178   5.822   0.683   0.451
    1MUSC O031P18179   6.174   0.675   3.461
    1MUSC O031Q18180   5.874   0.683   1.240
    1MUSC O031R18181   5.961   0.495   3.453
    1MUSC O031S18182   5.567   0.863   1.248
    1MUSC O031T18183   5.919   0.495   0.245
    1MUSC O031U18184   6.130   0.863   0.442
    1MUSC O031V18185   5.821   0.744   3.672
    1MUSC O031W18186   5.707   0.614   1.029
    1MUSC O031X18187   6.059   0.744   0.025
    1MUSC O031Y18188   5.990   0.614   0.662
    1MUSC O031Z18189   5.800   0.781   0.006
    1MUSC O031a18190   5.728   0.577   0.681
    1MUSC O031b18191   6.080   0.781   3.692
    1MUSC O031c18192   5.968   0.577   1.009
    1MUSC O031d18193   5.700   0.537   0.006
    1MUSC O031e18194   5.828   0.821   0.681
    1MUSC O031f18195   6.180   0.537   3.691
    1MUSC O031g18196   5.868   0.821   1.010
    1MUSC O031h18197   5.961   0.853   3.461
    1MUSC O031i18198   5.567   0.505   1.240
    1MUSC O031j18199   5.919   0.853   0.236
    1MUSC O031k18200   6.130   0.505   0.451
    1MUSC O031l18201   5.966   0.222   0.236
    1MUSC O031m18202   6.083   0.230   0.451
    1MUSC O031n18203   5.914   0.222   3.461
    1MUSC O031o18204   5.614   0.230   1.240
    1MUSC O031p18205   6.221   0.042   3.453
    1MUSC O031q18206   5.827   0.410   1.248
    1MUSC O031r18207   5.658   0.042   0.245
    1MUSC O031s18208   5.870   0.410   0.442
    1MUSC O031t18209   6.081   0.291   3.672
    1MUSC O031u18210   5.967   0.162   1.029
    1MUSC O031v18211   5.799   0.291   0.025
    1MUSC O031w18212   5.729   0.162   0.662
    1MUSC O031x18213   6.060   0.328   0.006
    1MUSC O031y18214   5.989   0.125   0.681
    1MUSC O031z18215   5.820   0.328   3.692
    1MUSC O032018216   5.708   0.125   1.009
    1MUSC O032118217   5.960   0.084   0.006
    1MUSC O032218218   6.089   0.368   0.681
    1MUSC O032318219   5.920   0.084   3.691
    1MUSC O032418220   5.608   0.368   1.010
    1MUSC O032518221   6.221   0.400   3.461
    1MUSC O032618222   5.827   0.052   1.240
    1MUSC O032718223   5.658   0.400   0.236
    1MUSC O032818224   5.870   0.052   0.451
    1MUSC K00Bl18225   5.757   0.543   1.849
    1MUSC K00Bm18226   5.405   0.815   2.852
    1MUSC K00Bn18227   5.497   0.090   1.849
    1MUSC K00Bo18228   5.665   0.362   2.852
    1MUSC Al0VN18229   5.584   0.526   2.350
    1MUSC Al0VO18230   5.578   0.831   2.351
    1MUSC Al0VP18231   5.930   0.526   1.348
    1MUSC Al0VQ18232   5.753   0.831   3.353
    1MUSC Al0VR18233   5.844   0.074   2.350
    1MUSC Al0VS18234   5.838   0.379   2.351
    1MUSC Al0VT18235   5.669   0.074   1.348
    1MUSC Al0VU18236   5.493   0.379   3.353
    1MUSC Si10j18237   5.760   0.841   1.614
    1MUSC Si10k18238   5.402   0.517   3.087
    1MUSC Si10l18239   5.754   0.841   2.084
    1MUSC Si10m18240   5.929   0.517   2.617
    1MUSC Si10n18241   5.501   0.686   2.084
    1MUSC Si10o18242   5.661   0.672   2.617
    1MUSC Si10p18243   6.013   0.686   1.613
    1MUSC Si10q18244   5.669   0.672   3.088
    1MUSC Si10r18245   6.020   0.389   1.614
    1MUSC Si10s18246   5.662   0.064   3.087
    1MUSC Si10t18247   5.494   0.389   2.084
    1MUSC Si10u18248   5.668   0.064   2.617
    1MUSC Si10v18249   5.761   0.233   2.084
    1MUSC Si10w18250   5.922   0.219   2.617
    1MUSC Si10x18251   5.753   0.233   1.613
    1MUSC Si10y18252   5.409   0.219   3.088
    1MUSC O032918253   5.523   0.675   2.243
    1MUSC O032A18254   5.639   0.683   2.458
    1MUSC O032B18255   5.991   0.675   1.454
    1MUSC O032C18256   5.691   0.683   3.247
    1MUSC O032D18257   5.778   0.495   1.446
    1MUSC O032E18258   5.384   0.863   3.255
    1MUSC O032F18259   5.736   0.495   2.252
    1MUSC O032G18260   5.947   0.863   2.449
    1MUSC O032H18261   5.638   0.744   1.665
    1MUSC O032I18262   5.524   0.614   3.036
    1MUSC O032J18263   5.876   0.744   2.032
    1MUSC O032K18264   5.807   0.614   2.669
    1MUSC O032L18265   5.617   0.781   2.013
    1MUSC O032M18266   5.545   0.577   2.688
    1MUSC O032N18267   5.897   0.781   1.685
    1MUSC O032O18268   5.785   0.577   3.016
    1MUSC O032P18269   5.517   0.537   2.013
    1MUSC O032Q18270   5.645   0.821   2.688
    1MUSC O032R18271   5.997   0.537   1.684
    1MUSC O032S18272   5.685   0.821   3.017
    1MUSC O032T18273   5.778   0.853   1.454
    1MUSC O032U18274   5.384   0.505   3.247
    1MUSC O032V18275   5.736   0.853   2.243
    1MUSC O032W18276   5.947   0.505   2.458
    1MUSC O032X18277   5.783   0.222   2.243
    1MUSC O032Y18278   5.900   0.230   2.458
    1MUSC O032Z18279   5.731   0.222   1.454
    1MUSC O032a18280   5.431   0.230   3.247
    1MUSC O032b18281   6.038   0.042   1.446
    1MUSC O032c18282   5.644   0.410   3.255
    1MUSC O032d18283   5.475   0.042   2.252
    1MUSC O032e18284   5.687   0.410   2.449
    1MUSC O032f18285   5.898   0.291   1.665
    1MUSC O032g18286   5.784   0.162   3.036
    1MUSC O032h18287   5.616   0.291   2.032
    1MUSC O032i18288   5.546   0.162   2.669
    1MUSC O032j18289   5.877   0.328   2.013
    1MUSC O032k18290   5.806   0.125   2.688
    1MUSC O032l18291   5.637   0.328   1.685
    1MUSC O032m18292   5.525   0.125   3.016
    1MUSC O032n18293   5.777   0.084   2.013
    1MUSC O032o18294   5.906   0.368   2.688
    1MUSC O032p18295   5.737   0.084   1.684
    1MUSC O032q18296   5.425   0.368   3.017
    1MUSC O032r18297   6.038   0.400   1.454
    1MUSC O032s18298   5.644   0.052   3.247
    1MUSC O032t18299   5.475   0.400   2.243
    1MUSC O032u18300   5.687   0.052   2.458
    1MUSC K00Bp18301   5.588   1.720   0.845
    1MUSC K00Bq18302   5.848   1.268   0.845
    1MUSC Al0VV18303   5.767   1.432   0.343
    1MUSC Al0VW18304   5.761   1.737   0.344
    1MUSC Al0VX18305   6.113   1.432   3.355
    1MUSC Al0VY18306   5.936   1.737   1.346
    1MUSC Al0VZ18307   6.027   0.979   0.343
    1MUSC Al0Va18308   6.021   1.284   0.344
    1MUSC Al0Vb18309   5.852   0.979   3.355
    1MUSC Al0Vc18310   5.676   1.284   1.346
    1MUSC Si10z18311   5.943   1.747   3.621
    1MUSC Si11018312   5.585   1.422   1.080
    1MUSC Si11118313   5.937   1.747   0.077
    1MUSC Si11218314   6.112   1.422   0.610
    1MUSC Si11318315   5.684   1.591   0.077
    1MUSC Si11418316   5.844   1.577   0.610
    1MUSC Si11518317   6.196   1.591   3.620
    1MUSC Si11618318   5.852   1.577   1.081
    1MUSC Si11718319   6.203   1.294   3.621
    1MUSC Si11818320   5.845   0.969   1.080
    1MUSC Si11918321   5.677   1.294   0.077
    1MUSC Si11A18322   5.851   0.969   0.610
    1MUSC Si11B18323   5.944   1.139   0.077
    1MUSC Si11C18324   6.105   1.124   0.610
    1MUSC Si11D18325   5.936   1.139   3.620
    1MUSC Si11E18326   5.592   1.124   1.081
    1MUSC O032v18327   5.706   1.580   0.236
    1MUSC O032w18328   5.822   1.588   0.451
    1MUSC O032x18329   6.174   1.580   3.461
    1MUSC O032y18330   5.874   1.588   1.240
    1MUSC O032z18331   5.961   1.400   3.453
    1MUSC O033018332   5.567   1.768   1.248
    1MUSC O033118333   5.919   1.400   0.245
    1MUSC O033218334   6.130   1.768   0.442
    1MUSC O033318335   5.821   1.649   3.672
    1MUSC O033418336   5.707   1.520   1.029
    1MUSC O033518337   6.059   1.649   0.025
    1MUSC O033618338   5.990   1.520   0.662
    1MUSC O033718339   5.800   1.686   0.006
    1MUSC O033818340   5.728   1.483   0.681
    1MUSC O033918341   6.080   1.686   3.692
    1MUSC O033A18342   5.968   1.483   1.009
    1MUSC O033B18343   5.700   1.442   0.006
    1MUSC O033C18344   5.828   1.726   0.681
    1MUSC O033D18345   6.180   1.442   3.691
    1MUSC O033E18346   5.868   1.726   1.010
    1MUSC O033F18347   5.961   1.758   3.461
    1MUSC O033G18348   5.567   1.410   1.240
    1MUSC O033H18349   5.919   1.758   0.236
    1MUSC O033I18350   6.130   1.410   0.451
    1MUSC O033J18351   5.966   1.127   0.236
    1MUSC O033K18352   6.083   1.136   0.451
    1MUSC O033L18353   5.914   1.127   3.461
    1MUSC O033M18354   5.614   1.136   1.240
    1MUSC O033N18355   6.221   0.948   3.453
    1MUSC O033O18356   5.827   1.316   1.248
    1MUSC O033P18357   5.658   0.948   0.245
    1MUSC O033Q18358   5.870   1.316   0.442
    1MUSC O033R18359   6.081   1.196   3.672
    1MUSC O033S18360   5.967   1.067   1.029
    1MUSC O033T18361   5.799   1.196   0.025
    1MUSC O033U18362   5.729   1.067   0.662
    1MUSC O033V18363   6.060   1.233   0.006
    1MUSC O033W18364   5.989   1.030   0.681
    1MUSC O033X18365   5.820   1.233   3.692
    1MUSC O033Y18366   5.708   1.030   1.009
    1MUSC O033Z18367   5.960   0.990   0.006
    1MUSC O033a18368   6.089   1.274   0.681
    1MUSC O033b18369   5.920   0.990   3.691
    1MUSC O033c18370   5.608   1.274   1.010
    1MUSC O033d18371   6.221   1.306   3.461
    1MUSC O033e18372   5.827   0.958   1.240
    1MUSC O033f18373   5.658   1.306   0.236
    1MUSC O033g18374   5.870   0.958   0.451
    1MUSC K00Br18375   5.757   1.448   1.849
    1MUSC K00Bs18376   5.405   1.720   2.852
    1MUSC K00Bt18377   5.497   0.996   1.849
    1MUSC K00Bu18378   5.665   1.268   2.852
    1MUSC Al0Vd18379   5.584   1.432   2.350
    1MUSC Al0Ve18380   5.578   1.737   2.351
    1MUSC Al0Vf18381   5.930   1.432   1.348
    1MUSC Al0Vg18382   5.753   1.737   3.353
    1MUSC Al0Vh18383   5.844   0.979   2.350
    1MUSC Al0Vi18384   5.838   1.284   2.351
    1MUSC Al0Vj18385   5.669   0.979   1.348
    1MUSC Al0Vk18386   5.493   1.284   3.353
    1MUSC Si11F18387   5.760   1.747   1.614
    1MUSC Si11G18388   5.402   1.422   3.087
    1MUSC Si11H18389   5.754   1.747   2.084
    1MUSC Si11I18390   5.929   1.422   2.617
    1MUSC Si11J18391   5.501   1.591   2.084
    1MUSC Si11K18392   5.661   1.577   2.617
    1MUSC Si11L18393   6.013   1.591   1.613
    1MUSC Si11M18394   5.669   1.577   3.088
    1MUSC Si11N18395   6.020   1.294   1.614
    1MUSC Si11O18396   5.662   0.969   3.087
    1MUSC Si11P18397   5.494   1.294   2.084
    1MUSC Si11Q18398   5.668   0.969   2.617
    1MUSC Si11R18399   5.761   1.139   2.084
    1MUSC Si11S18400   5.922   1.124   2.617
    1MUSC Si11T18401   5.753   1.139   1.613
    1MUSC Si11U18402   5.409   1.124   3.088
    1MUSC O033h18403   5.523   1.580   2.243
    1MUSC O033i18404   5.639   1.588   2.458
    1MUSC O033j18405   5.991   1.580   1.454
    1MUSC O033k18406   5.691   1.588   3.247
    1MUSC O033l18407   5.778   1.400   1.446
    1MUSC O033m18408   5.384   1.768   3.255
    1MUSC O033n18409   5.736   1.400   2.252
    1MUSC O033o18410   5.947   1.768   2.449
    1MUSC O033p18411   5.638   1.649   1.665
    1MUSC O033q18412   5.524   1.520   3.036
    1MUSC O033r18413   5.876   1.649   2.032
    1MUSC O033s18414   5.807   1.520   2.669
    1MUSC O033t18415   5.617   1.686   2.013
    1MUSC O033u18416   5.545   1.483   2.688
    1MUSC O033v18417   5.897   1.686   1.685
    1MUSC O033w18418   5.785   1.483   3.016
    1MUSC O033x18419   5.517   1.442   2.013
    1MUSC O033y18420   5.645   1.726   2.688
    1MUSC O033z18421   5.997   1.442   1.684
    1MUSC O034018422   5.685   1.726   3.017
    1MUSC O034118423   5.778   1.758   1.454
    1MUSC O034218424   5.384   1.410   3.247
    1MUSC O034318425   5.736   1.758   2.243
    1MUSC O034418426   5.947   1.410   2.458
    1MUSC O034518427   5.783   1.127   2.243
    1MUSC O034618428   5.900   1.136   2.458
    1MUSC O034718429   5.731   1.127   1.454
    1MUSC O034818430   5.431   1.136   3.247
    1MUSC O034918431   6.038   0.948   1.446
    1MUSC O034A18432   5.644   1.316   3.255
    1MUSC O034B18433   5.475   0.948   2.252
    1MUSC O034C18434   5.687   1.316   2.449
    1MUSC O034D18435   5.898   1.196   1.665
    1MUSC O034E18436   5.784   1.067   3.036
    1MUSC O034F18437   5.616   1.196   2.032
    1MUSC O034G18438   5.546   1.067   2.669
    1MUSC O034H18439   5.877   1.233   2.013
    1MUSC O034I18440   5.806   1.030   2.688
    1MUSC O034J18441   5.637   1.233   1.685
    1MUSC O034K18442   5.525   1.030   3.016
    1MUSC O034L18443   5.777   0.990   2.013
    1MUSC O034M18444   5.906   1.274   2.688
    1MUSC O034N18445   5.737   0.990   1.684
    1MUSC O034O18446   5.425   1.274   3.017
    1MUSC O034P18447   6.038   1.306   1.454
    1MUSC O034Q18448   5.644   0.958   3.247
    1MUSC O034R18449   5.475   1.306   2.243
    1MUSC O034S18450   5.687   0.958   2.458
    1MUSC K00Bv18451   5.588   2.626   0.845
    1MUSC K00Bw18452   5.848   2.173   0.845
    1MUSC Al0Vl18453   5.767   2.337   0.343
    1MUSC Al0Vm18454   5.761   2.642   0.344
    1MUSC Al0Vn18455   6.113   2.337   3.355
    1MUSC Al0Vo18456   5.936   2.642   1.346
    1MUSC Al0Vp18457   6.027   1.884   0.343
    1MUSC Al0Vq18458   6.021   2.189   0.344
    1MUSC Al0Vr18459   5.852   1.884   3.355
    1MUSC Al0Vs18460   5.676   2.189   1.346
    1MUSC Si11V18461   5.943   2.652   3.621
    1MUSC Si11W18462   5.585   2.327   1.080
    1MUSC Si11X18463   5.937   2.652   0.077
    1MUSC Si11Y18464   6.112   2.327   0.610
    1MUSC Si11Z18465   5.684   2.497   0.077
    1MUSC Si11a18466   5.844   2.482   0.610
    1MUSC Si11b18467   6.196   2.497   3.620
    1MUSC Si11c18468   5.852   2.482   1.081
    1MUSC Si11d18469   6.203   2.199   3.621
    1MUSC Si11e18470   5.845   1.874   1.080
    1MUSC Si11f18471   5.677   2.199   0.077
    1MUSC Si11g18472   5.851   1.874   0.610
    1MUSC Si11h18473   5.944   2.044   0.077
    1MUSC Si11i18474   6.105   2.030   0.610
    1MUSC Si11j18475   5.936   2.044   3.620
    1MUSC Si11k18476   5.592   2.030   1.081
    1MUSC O034T18477   5.706   2.485   0.236
    1MUSC O034U18478   5.822   2.494   0.451
    1MUSC O034V18479   6.174   2.485   3.461
    1MUSC O034W18480   5.874   2.494   1.240
    1MUSC O034X18481   5.961   2.305   3.453
    1MUSC O034Y18482   5.567   2.674   1.248
    1MUSC O034Z18483   5.919   2.305   0.245
    1MUSC O034a18484   6.130   2.674   0.442
    1MUSC O034b18485   5.821   2.554   3.672
    1MUSC O034c18486   5.707   2.425   1.029
    1MUSC O034d18487   6.059   2.554   0.025
    1MUSC O034e18488   5.990   2.425   0.662
    1MUSC O034f18489   5.800   2.591   0.006
    1MUSC O034g18490   5.728   2.388   0.681
    1MUSC O034h18491   6.080   2.591   3.692
    1MUSC O034i18492   5.968   2.388   1.009
    1MUSC O034j18493   5.700   2.347   0.006
    1MUSC O034k18494   5.828   2.632   0.681
    1MUSC O034l18495   6.180   2.347   3.691
    1MUSC O034m18496   5.868   2.632   1.010
    1MUSC O034n18497   5.961   2.663   3.461
    1MUSC O034o18498   5.567   2.316   1.240
    1MUSC O034p18499   5.919   2.663   0.236
    1MUSC O034q18500   6.130   2.316   0.451
    1MUSC O034r18501   5.966   2.033   0.236
    1MUSC O034s18502   6.083   2.041   0.451
    1MUSC O034t18503   5.914   2.033   3.461
    1MUSC O034u18504   5.614   2.041   1.240
    1MUSC O034v18505   6.221   1.853   3.453
    1MUSC O034w18506   5.827   2.221   1.248
    1MUSC O034x18507   5.658   1.853   0.245
    1MUSC O034y18508   5.870   2.221   0.442
    1MUSC O034z18509   6.081   2.101   3.672
    1MUSC O035018510   5.967   1.972   1.029
    1MUSC O035118511   5.799   2.101   0.025
    1MUSC O035218512   5.729   1.972   0.662
    1MUSC O035318513   6.060   2.139   0.006
    1MUSC O035418514   5.989   1.935   0.681
    1MUSC O035518515   5.820   2.139   3.692
    1MUSC O035618516   5.708   1.935   1.009
    1MUSC O035718517   5.960   1.895   0.006
    1MUSC O035818518   6.089   2.179   0.681
    1MUSC O035918519   5.920   1.895   3.691
    1MUSC O035A18520   5.608   2.179   1.010
    1MUSC O035B18521   6.221   2.211   3.461
    1MUSC O035C18522   5.827   1.863   1.240
    1MUSC O035D18523   5.658   2.211   0.236
    1MUSC O035E18524   5.870   1.863   0.451
    1MUSC K00Bx18525   5.757   2.353   1.849
    1MUSC K00By18526   5.405   2.626   2.852
    1MUSC K00Bz18527   5.497   1.901   1.849
    1MUSC K00C018528   5.665   2.173   2.852
    1MUSC Al0Vt18529   5.584   2.337   2.350
    1MUSC Al0Vu18530   5.578   2.642   2.351
    1MUSC Al0Vv18531   5.930   2.337   1.348
    1MUSC Al0Vw18532   5.753   2.642   3.353
    1MUSC Al0Vx18533   5.844   1.884   2.350
    1MUSC Al0Vy18534   5.838   2.189   2.351
    1MUSC Al0Vz18535   5.669   1.884   1.348
    1MUSC Al0W018536   5.493   2.189   3.353
    1MUSC Si11l18537   5.760   2.652   1.614
    1MUSC Si11m18538   5.402   2.327   3.087
    1MUSC Si11n18539   5.754   2.652   2.084
    1MUSC Si11o18540   5.929   2.327   2.617
    1MUSC Si11p18541   5.501   2.497   2.084
    1MUSC Si11q18542   5.661   2.482   2.617
    1MUSC Si11r18543   6.013   2.497   1.613
    1MUSC Si11s18544   5.669   2.482   3.088
    1MUSC Si11t18545   6.020   2.199   1.614
    1MUSC Si11u18546   5.662   1.874   3.087
    1MUSC Si11v18547   5.494   2.199   2.084
    1MUSC Si11w18548   5.668   1.874   2.617
    1MUSC Si11x18549   5.761   2.044   2.084
    1MUSC Si11y18550   5.922   2.030   2.617
    1MUSC Si11z18551   5.753   2.044   1.613
    1MUSC Si12018552   5.409   2.030   3.088
    1MUSC O035F18553   5.523   2.485   2.243
    1MUSC O035G18554   5.639   2.494   2.458
    1MUSC O035H18555   5.991   2.485   1.454
    1MUSC O035I18556   5.691   2.494   3.247
    1MUSC O035J18557   5.778   2.305   1.446
    1MUSC O035K18558   5.384   2.674   3.255
    1MUSC O035L18559   5.736   2.305   2.252
    1MUSC O035M18560   5.947   2.674   2.449
    1MUSC O035N18561   5.638   2.554   1.665
    1MUSC O035O18562   5.524   2.425   3.036
    1MUSC O035P18563   5.876   2.554   2.032
    1MUSC O035Q18564   5.807   2.425   2.669
    1MUSC O035R18565   5.617   2.591   2.013
    1MUSC O035S18566   5.545   2.388   2.688
    1MUSC O035T18567   5.897   2.591   1.685
    1MUSC O035U18568   5.785   2.388   3.016
    1MUSC O035V18569   5.517   2.347   2.013
    1MUSC O035W18570   5.645   2.632   2.688
    1MUSC O035X18571   5.997   2.347   1.684
    1MUSC O035Y18572   5.685   2.632   3.017
    1MUSC O035Z18573   5.778   2.663   1.454
    1MUSC O035a18574   5.384   2.316   3.247
    1MUSC O035b18575   5.736   2.663   2.243
    1MUSC O035c18576   5.947   2.316   2.458
    1MUSC O035d18577   5.783   2.033   2.243
    1MUSC O035e18578   5.900   2.041   2.458
    1MUSC O035f18579   5.731   2.033   1.454
    1MUSC O035g18580   5.431   2.041   3.247
    1MUSC O035h18581   6.038   1.853   1.446
    1MUSC O035i18582   5.644   2.221   3.255
    1MUSC O035j18583   5.475   1.853   2.252
    1MUSC O035k18584   5.687   2.221   2.449
    1MUSC O035l18585   5.898   2.101   1.665
    1MUSC O035m18586   5.784   1.972   3.036
    1MUSC O035n18587   5.616   2.101   2.032
    1MUSC O035o18588   5.546   1.972   2.669
    1MUSC O035p18589   5.877   2.139   2.013
    1MUSC O035q18590   5.806   1.935   2.688
    1MUSC O035r18591   5.637   2.139   1.685
    1MUSC O035s18592   5.525   1.935   3.016
    1MUSC O035t18593   5.777   1.895   2.013
    1MUSC O035u18594   5.906   2.179   2.688
    1MUSC O035v18595   5.737   1.895   1.684
    1MUSC O035w18596   5.425   2.179   3.017
    1MUSC O035x18597   6.038   2.211   1.454
    1MUSC O035y18598   5.644   1.863   3.247
    1MUSC O035z18599   5.475   2.211   2.243
    1MUSC O036018600   5.687   1.863   2.458
    1MUSC K00C118601   5.588   3.531   0.845
    1MUSC K00C218602   5.848   3.078   0.845
    1MUSC Al0W118603   5.767   3.242   0.343
    1MUSC Al0W218604   5.761   3.547   0.344
    1MUSC Al0W318605   6.113   3.242   3.355
    1MUSC Al0W418606   5.936   3.547   1.346
    1MUSC Al0W518607   6.027   2.790   0.343
    1MUSC Al0W618608   6.021   3.095   0.344
    1MUSC Al0W718609   5.852   2.790   3.355
    1MUSC Al0W818610   5.676   3.095   1.346
    1MUSC Si12118611   5.943   3.557   3.621
    1MUSC Si12218612   5.585   3.232   1.080
    1MUSC Si12318613   5.937   3.557   0.077
    1MUSC Si12418614   6.112   3.232   0.610
    1MUSC Si12518615   5.684   3.402   0.077
    1MUSC Si12618616   5.844   3.388   0.610
    1MUSC Si12718617   6.196   3.402   3.620
    1MUSC Si12818618   5.852   3.388   1.081
    1MUSC Si12918619   6.203   3.105   3.621
    1MUSC Si12A18620   5.845   2.780   1.080
    1MUSC Si12B18621   5.677   3.105   0.077
    1MUSC Si12C18622   5.851   2.780   0.610
    1MUSC Si12D18623   5.944   2.949   0.077
    1MUSC Si12E18624   6.105   2.935   0.610
    1MUSC Si12F18625   5.936   2.949   3.620
    1MUSC Si12G18626   5.592   2.935   1.081
    1MUSC O036118627   5.706   3.391   0.236
    1MUSC O036218628   5.822   3.399   0.451
    1MUSC O036318629   6.174   3.391   3.461
    1MUSC O036418630   5.874   3.399   1.240
    1MUSC O036518631   5.961   3.211   3.453
    1MUSC O036618632   5.567   3.579   1.248
    1MUSC O036718633   5.919   3.211   0.245
    1MUSC O036818634   6.130   3.579   0.442
    1MUSC O036918635   5.821   3.459   3.672
    1MUSC O036A18636   5.707   3.330   1.029
    1MUSC O036B18637   6.059   3.459   0.025
    1MUSC O036C18638   5.990   3.330   0.662
    1MUSC O036D18639   5.800   3.496   0.006
    1MUSC O036E18640   5.728   3.293   0.681
    1MUSC O036F18641   6.080   3.496   3.692
    1MUSC O036G18642   5.968   3.293   1.009
    1MUSC O036H18643   5.700   3.253   0.006
    1MUSC O036I18644   5.828   3.537   0.681
    1MUSC O036J18645   6.180   3.253   3.691
    1MUSC O036K18646   5.868   3.537   1.010
    1MUSC O036L18647   5.961   3.569   3.461
    1MUSC O036M18648   5.567   3.221   1.240
    1MUSC O036N18649   5.919   3.569   0.236
    1MUSC O036O18650   6.130   3.221   0.451
    1MUSC O036P18651   5.966   2.938   0.236
    1MUSC O036Q18652   6.083   2.946   0.451
    1MUSC O036R18653   5.914   2.938   3.461
    1MUSC O036S18654   5.614   2.946   1.240
    1MUSC O036T18655   6.221   2.758   3.453
    1MUSC O036U18656   5.827   3.126   1.248
    1MUSC O036V18657   5.658   2.758   0.245
    1MUSC O036W18658   5.870   3.126   0.442
    1MUSC O036X18659   6.081   3.007   3.672
    1MUSC O036Y18660   5.967   2.877   1.029
    1MUSC O036Z18661   5.799   3.007   0.025
    1MUSC O036a18662   5.729   2.877   0.662
    1MUSC O036b18663   6.060   3.044   0.006
    1MUSC O036c18664   5.989   2.840   0.681
    1MUSC O036d18665   5.820   3.044   3.692
    1MUSC O036e18666   5.708   2.840   1.009
    1MUSC O036f18667   5.960   2.800   0.006
    1MUSC O036g18668   6.089   3.084   0.681
    1MUSC O036h18669   5.920   2.800   3.691
    1MUSC O036i18670   5.608   3.084   1.010
    1MUSC O036j18671   6.221   3.116   3.461
    1MUSC O036k18672   5.827   2.768   1.240
    1MUSC O036l18673   5.658   3.116   0.236
    1MUSC O036m18674   5.870   2.768   0.451
    1MUSC K00C318675   5.757   3.259   1.849
    1MUSC K00C418676   5.405   3.531   2.852
    1MUSC K00C518677   5.497   2.806   1.849
    1MUSC K00C618678   5.665   3.078   2.852
    1MUSC Al0W918679   5.584   3.242   2.350
    1MUSC Al0WA18680   5.578   3.547   2.351
    1MUSC Al0WB18681   5.930   3.242   1.348
    1MUSC Al0WC18682   5.753   3.547   3.353
    1MUSC Al0WD18683   5.844   2.790   2.350
    1MUSC Al0WE18684   5.838   3.095   2.351
    1MUSC Al0WF18685   5.669   2.790   1.348
    1MUSC Al0WG18686   5.493   3.095   3.353
    1MUSC Si12H18687   5.760   3.557   1.614
    1MUSC Si12I18688   5.402   3.232   3.087
    1MUSC Si12J18689   5.754   3.557   2.084
    1MUSC Si12K18690   5.929   3.232   2.617
    1MUSC Si12L18691   5.501   3.402   2.084
    1MUSC Si12M18692   5.661   3.388   2.617
    1MUSC Si12N18693   6.013   3.402   1.613
    1MUSC Si12O18694   5.669   3.388   3.088
    1MUSC Si12P18695   6.020   3.105   1.614
    1MUSC Si12Q18696   5.662   2.780   3.087
    1MUSC Si12R18697   5.494   3.105   2.084
    1MUSC Si12S18698   5.668   2.780   2.617
    1MUSC Si12T18699   5.761   2.949   2.084
    1MUSC Si12U18700   5.922   2.935   2.617
    1MUSC Si12V18701   5.753   2.949   1.613
    1MUSC Si12W18702   5.409   2.935   3.088
    1MUSC O036n18703   5.523   3.391   2.243
    1MUSC O036o18704   5.639   3.399   2.458
    1MUSC O036p18705   5.991   3.391   1.454
    1MUSC O036q18706   5.691   3.399   3.247
    1MUSC O036r18707   5.778   3.211   1.446
    1MUSC O036s18708   5.384   3.579   3.255
    1MUSC O036t18709   5.736   3.211   2.252
    1MUSC O036u18710   5.947   3.579   2.449
    1MUSC O036v18711   5.638   3.459   1.665
    1MUSC O036w18712   5.524   3.330   3.036
    1MUSC O036x18713   5.876   3.459   2.032
    1MUSC O036y18714   5.807   3.330   2.669
    1MUSC O036z18715   5.617   3.496   2.013
    1MUSC O037018716   5.545   3.293   2.688
    1MUSC O037118717   5.897   3.496   1.685
    1MUSC O037218718   5.785   3.293   3.016
    1MUSC O037318719   5.517   3.253   2.013
    1MUSC O037418720   5.645   3.537   2.688
    1MUSC O037518721   5.997   3.253   1.684
    1MUSC O037618722   5.685   3.537   3.017
    1MUSC O037718723   5.778   3.569   1.454
    1MUSC O037818724   5.384   3.221   3.247
    1MUSC O037918725   5.736   3.569   2.243
    1MUSC O037A18726   5.947   3.221   2.458
    1MUSC O037B18727   5.783   2.938   2.243
    1MUSC O037C18728   5.900   2.946   2.458
    1MUSC O037D18729   5.731   2.938   1.454
    1MUSC O037E18730   5.431   2.946   3.247
    1MUSC O037F18731   6.038   2.758   1.446
    1MUSC O037G18732   5.644   3.126   3.255
    1MUSC O037H18733   5.475   2.758   2.252
    1MUSC O037I18734   5.687   3.126   2.449
    1MUSC O037J18735   5.898   3.007   1.665
    1MUSC O037K18736   5.784   2.877   3.036
    1MUSC O037L18737   5.616   3.007   2.032
    1MUSC O037M18738   5.546   2.877   2.669
    1MUSC O037N18739   5.877   3.044   2.013
    1MUSC O037O18740   5.806   2.840   2.688
    1MUSC O037P18741   5.637   3.044   1.685
    1MUSC O037Q18742   5.525   2.840   3.016
    1MUSC O037R18743   5.777   2.800   2.013
    1MUSC O037S18744   5.906   3.084   2.688
    1MUSC O037T18745   5.737   2.800   1.684
    1MUSC O037U18746   5.425   3.084   3.017
    1MUSC O037V18747   6.038   3.116   1.454
    1MUSC O037W18748   5.644   2.768   3.247
    1MUSC O037X18749   5.475   3.116   2.243
    1MUSC O037Y18750   5.687   2.768   2.458
    1MUSC K00C718751   5.588   4.436   0.845
    1MUSC K00C818752   5.848   3.983   0.845
    1MUSC Al0WH18753   5.767   4.147   0.343
    1MUSC Al0WI18754   5.761   4.453   0.344
    1MUSC Al0WJ18755   6.113   4.147   3.355
    1MUSC Al0WK18756   5.936   4.453   1.346
    1MUSC Al0WL18757   6.027   3.695   0.343
    1MUSC Al0WM18758   6.021   4.000   0.344
    1MUSC Al0WN18759   5.852   3.695   3.355
    1MUSC Al0WO18760   5.676   4.000   1.346
    1MUSC Si12X18761   5.943   4.462   3.621
    1MUSC Si12Y18762   5.585   4.138   1.080
    1MUSC Si12Z18763   5.937   4.462   0.077
    1MUSC Si12a18764   6.112   4.138   0.610
    1MUSC Si12b18765   5.684   4.307   0.077
    1MUSC Si12c18766   5.844   4.293   0.610
    1MUSC Si12d18767   6.196   4.307   3.620
    1MUSC Si12e18768   5.852   4.293   1.081
    1MUSC Si12f18769   6.203   4.010   3.621
    1MUSC Si12g18770   5.845   3.685   1.080
    1MUSC Si12h18771   5.677   4.010   0.077
    1MUSC Si12i18772   5.851   3.685   0.610
    1MUSC Si12j18773   5.944   3.855   0.077
    1MUSC Si12k18774   6.105   3.840   0.610
    1MUSC Si12l18775   5.936   3.855   3.620
    1MUSC Si12m18776   5.592   3.840   1.081
    1MUSC O037Z18777   5.706   4.296   0.236
    1MUSC O037a18778   5.822   4.304   0.451
    1MUSC O037b18779   6.174   4.296   3.461
    1MUSC O037c18780   5.874   4.304   1.240
    1MUSC O037d18781   5.961   4.116   3.453
    1MUSC O037e18782   5.567   4.484   1.248
    1MUSC O037f18783   5.919   4.116   0.245
    1MUSC O037g18784   6.130   4.484   0.442
    1MUSC O037h18785   5.821   4.365   3.672
    1MUSC O037i18786   5.707   4.235   1.029
    1MUSC O037j18787   6.059   4.365   0.025
    1MUSC O037k18788   5.990   4.235   0.662
    1MUSC O037l18789   5.800   4.402   0.006
    1MUSC O037m18790   5.728   4.198   0.681
    1MUSC O037n18791   6.080   4.402   3.692
    1MUSC O037o18792   5.968   4.198   1.009
    1MUSC O037p18793   5.700   4.158   0.006
    1MUSC O037q18794   5.828   4.442   0.681
    1MUSC O037r18795   6.180   4.158   3.691
    1MUSC O037s18796   5.868   4.442   1.010
    1MUSC O037t18797   5.961   4.474   3.461
    1MUSC O037u18798   5.567   4.126   1.240
    1MUSC O037v18799   5.919   4.474   0.236
    1MUSC O037w18800   6.130   4.126   0.451
    1MUSC O037x18801   5.966   3.843   0.236
    1MUSC O037y18802   6.083   3.852   0.451
    1MUSC O037z18803   5.914   3.843   3.461
    1MUSC O038018804   5.614   3.852   1.240
    1MUSC O038118805   6.221   3.663   3.453
    1MUSC O038218806   5.827   4.031   1.248
    1MUSC O038318807   5.658   3.663   0.245
    1MUSC O038418808   5.870   4.031   0.442
    1MUSC O038518809   6.081   3.912   3.672
    1MUSC O038618810   5.967   3.783   1.029
    1MUSC O038718811   5.799   3.912   0.025
    1MUSC O038818812   5.729   3.783   0.662
    1MUSC O038918813   6.060   3.949   0.006
    1MUSC O038A18814   5.989   3.746   0.681
    1MUSC O038B18815   5.820   3.949   3.692
    1MUSC O038C18816   5.708   3.746   1.009
    1MUSC O038D18817   5.960   3.705   0.006
    1MUSC O038E18818   6.089   3.989   0.681
    1MUSC O038F18819   5.920   3.705   3.691
    1MUSC O038G18820   5.608   3.989   1.010
    1MUSC O038H18821   6.221   4.021   3.461
    1MUSC O038I18822   5.827   3.673   1.240
    1MUSC O038J18823   5.658   4.021   0.236
    1MUSC O038K18824   5.870   3.673   0.451
    1MUSC K00C918825   5.757   4.164   1.849
    1MUSC K00CA18826   5.405   4.436   2.852
    1MUSC K00CB18827   5.497   3.711   1.849
    1MUSC K00CC18828   5.665   3.983   2.852
    1MUSC Al0WP18829   5.584   4.147   2.350
    1MUSC Al0WQ18830   5.578   4.453   2.351
    1MUSC Al0WR18831   5.930   4.147   1.348
    1MUSC Al0WS18832   5.753   4.453   3.353
    1MUSC Al0WT18833   5.844   3.695   2.350
    1MUSC Al0WU18834   5.838   4.000   2.351
    1MUSC Al0WV18835   5.669   3.695   1.348
    1MUSC Al0WW18836   5.493   4.000   3.353
    1MUSC Si12n18837   5.760   4.462   1.614
    1MUSC Si12o18838   5.402   4.138   3.087
    1MUSC Si12p18839   5.754   4.462   2.084
    1MUSC Si12q18840   5.929   4.138   2.617
    1MUSC Si12r18841   5.501   4.307   2.084
    1MUSC Si12s18842   5.661   4.293   2.617
    1MUSC Si12t18843   6.013   4.307   1.613
    1MUSC Si12u18844   5.669   4.293   3.088
    1MUSC Si12v18845   6.020   4.010   1.614
    1MUSC Si12w18846   5.662   3.685   3.087
    1MUSC Si12x18847   5.494   4.010   2.084
    1MUSC Si12y18848   5.668   3.685   2.617
    1MUSC Si12z18849   5.761   3.855   2.084
    1MUSC Si13018850   5.922   3.840   2.617
    1MUSC Si13118851   5.753   3.855   1.613
    1MUSC Si13218852   5.409   3.840   3.088
    1MUSC O038L18853   5.523   4.296   2.243
    1MUSC O038M18854   5.639   4.304   2.458
    1MUSC O038N18855   5.991   4.296   1.454
    1MUSC O038O18856   5.691   4.304   3.247
    1MUSC O038P18857   5.778   4.116   1.446
    1MUSC O038Q18858   5.384   4.484   3.255
    1MUSC O038R18859   5.736   4.116   2.252
    1MUSC O038S18860   5.947   4.484   2.449
    1MUSC O038T18861   5.638   4.365   1.665
    1MUSC O038U18862   5.524   4.235   3.036
    1MUSC O038V18863   5.876   4.365   2.032
    1MUSC O038W18864   5.807   4.235   2.669
    1MUSC O038X18865   5.617   4.402   2.013
    1MUSC O038Y18866   5.545   4.198   2.688
    1MUSC O038Z18867   5.897   4.402   1.685
    1MUSC O038a18868   5.785   4.198   3.016
    1MUSC O038b18869   5.517   4.158   2.013
    1MUSC O038c18870   5.645   4.442   2.688
    1MUSC O038d18871   5.997   4.158   1.684
    1MUSC O038e18872   5.685   4.442   3.017
    1MUSC O038f18873   5.778   4.474   1.454
    1MUSC O038g18874   5.384   4.126   3.247
    1MUSC O038h18875   5.736   4.474   2.243
    1MUSC O038i18876   5.947   4.126   2.458
    1MUSC O038j18877   5.783   3.843   2.243
    1MUSC O038k18878   5.900   3.852   2.458
    1MUSC O038l18879   5.731   3.843   1.454
    1MUSC O038m18880   5.431   3.852   3.247
    1MUSC O038n18881   6.038   3.663   1.446
    1MUSC O038o18882   5.644   4.031   3.255
    1MUSC O038p18883   5.475   3.663   2.252
    1MUSC O038q18884   5.687   4.031   2.449
    1MUSC O038r18885   5.898   3.912   1.665
    1MUSC O038s18886   5.784   3.783   3.036
    1MUSC O038t18887   5.616   3.912   2.032
    1MUSC O038u18888   5.546   3.783   2.669
    1MUSC O038v18889   5.877   3.949   2.013
    1MUSC O038w18890   5.806   3.746   2.688
    1MUSC O038x18891   5.637   3.949   1.685
    1MUSC O038y18892   5.525   3.746   3.016
    1MUSC O038z18893   5.777   3.705   2.013
    1MUSC O039018894   5.906   3.989   2.688
    1MUSC O039118895   5.737   3.705   1.684
    1MUSC O039218896   5.425   3.989   3.017
    1MUSC O039318897   6.038   4.021   1.454
    1MUSC O039418898   5.644   3.673   3.247
    1MUSC O039518899   5.475   4.021   2.243
    1MUSC O039618900   5.687   3.673   2.458
    1MUSC K00CD18901   5.588   5.341   0.845
    1MUSC K00CE18902   5.848   4.889   0.845
    1MUSC Al0WX18903   5.767   5.053   0.343
    1MUSC Al0WY18904   5.761   5.358   0.344
    1MUSC Al0WZ18905   6.113   5.053   3.355
    1MUSC Al0Wa18906   5.936   5.358   1.346
    1MUSC Al0Wb18907   6.027   4.600   0.343
    1MUSC Al0Wc18908   6.021   4.905   0.344
    1MUSC Al0Wd18909   5.852   4.600   3.355
    1MUSC Al0We18910   5.676   4.905   1.346
    1MUSC Si13318911   5.943   5.368   3.621
    1MUSC Si13418912   5.585   5.043   1.080
    1MUSC Si13518913   5.937   5.368   0.077
    1MUSC Si13618914   6.112   5.043   0.610
    1MUSC Si13718915   5.684   5.212   0.077
    1MUSC Si13818916   5.844   5.198   0.610
    1MUSC Si13918917   6.196   5.212   3.620
    1MUSC Si13A18918   5.852   5.198   1.081
    1MUSC Si13B18919   6.203   4.915   3.621
    1MUSC Si13C18920   5.845   4.590   1.080
    1MUSC Si13D18921   5.677   4.915   0.077
    1MUSC Si13E18922   5.851   4.590   0.610
    1MUSC Si13F18923   5.944   4.760   0.077
    1MUSC Si13G18924   6.105   4.746   0.610
    1MUSC Si13H18925   5.936   4.760   3.620
    1MUSC Si13I18926   5.592   4.746   1.081
    1MUSC O039718927   5.706   5.201   0.236
    1MUSC O039818928   5.822   5.209   0.451
    1MUSC O039918929   6.174   5.201   3.461
    1MUSC O039A18930   5.874   5.209   1.240
    1MUSC O039B18931   5.961   5.021   3.453
    1MUSC O039C18932   5.567   5.389   1.248
    1MUSC O039D18933   5.919   5.021   0.245
    1MUSC O039E18934   6.130   5.389   0.442
    1MUSC O039F18935   5.821   5.270   3.672
    1MUSC O039G18936   5.707   5.141   1.029
    1MUSC O039H18937   6.059   5.270   0.025
    1MUSC O039I18938   5.990   5.141   0.662
    1MUSC O039J18939   5.800   5.307   0.006
    1MUSC O039K18940   5.728   5.104   0.681
    1MUSC O039L18941   6.080   5.307   3.692
    1MUSC O039M18942   5.968   5.104   1.009
    1MUSC O039N18943   5.700   5.063   0.006
    1MUSC O039O18944   5.828   5.347   0.681
    1MUSC O039P18945   6.180   5.063   3.691
    1MUSC O039Q18946   5.868   5.347   1.010
    1MUSC O039R18947   5.961   5.379   3.461
    1MUSC O039S18948   5.567   5.031   1.240
    1MUSC O039T18949   5.919   5.379   0.236
    1MUSC O039U18950   6.130   5.031   0.451
    1MUSC O039V18951   5.966   4.749   0.236
    1MUSC O039W18952   6.083   4.757   0.451
    1MUSC O039X18953   5.914   4.749   3.461
    1MUSC O039Y18954   5.614   4.757   1.240
    1MUSC O039Z18955   6.221   4.569   3.453
    1MUSC O039a18956   5.827   4.937   1.248
    1MUSC O039b18957   5.658   4.569   0.245
    1MUSC O039c18958   5.870   4.937   0.442
    1MUSC O039d18959   6.081   4.817   3.672
    1MUSC O039e18960   5.967   4.688   1.029
    1MUSC O039f18961   5.799   4.817   0.025
    1MUSC O039g18962   5.729   4.688   0.662
    1MUSC O039h18963   6.060   4.854   0.006
    1MUSC O039i18964   5.989   4.651   0.681
    1MUSC O039j18965   5.820   4.854   3.692
    1MUSC O039k18966   5.708   4.651   1.009
    1MUSC O039l18967   5.960   4.611   0.006
    1MUSC O039m18968   6.089   4.895   0.681
    1MUSC O039n18969   5.920   4.611   3.691
    1MUSC O039o18970   5.608   4.895   1.010
    1MUSC O039p18971   6.221   4.927   3.461
    1MUSC O039q18972   5.827   4.579   1.240
    1MUSC O039r18973   5.658   4.927   0.236
    1MUSC O039s18974   5.870   4.579   0.451
    1MUSC K00CF18975   5.757   5.069   1.849
    1MUSC K00CG18976   5.405   5.341   2.852
    1MUSC K00CH18977   5.497   4.617   1.849
    1MUSC K00CI18978   5.665   4.889   2.852
    1MUSC Al0Wf18979   5.584   5.053   2.350
    1MUSC Al0Wg18980   5.578   5.358   2.351
    1MUSC Al0Wh18981   5.930   5.053   1.348
    1MUSC Al0Wi18982   5.753   5.358   3.353
    1MUSC Al0Wj18983   5.844   4.600   2.350
    1MUSC Al0Wk18984   5.838   4.905   2.351
    1MUSC Al0Wl18985   5.669   4.600   1.348
    1MUSC Al0Wm18986   5.493   4.905   3.353
    1MUSC Si13J18987   5.760   5.368   1.614
    1MUSC Si13K18988   5.402   5.043   3.087
    1MUSC Si13L18989   5.754   5.368   2.084
    1MUSC Si13M18990   5.929   5.043   2.617
    1MUSC Si13N18991   5.501   5.212   2.084
    1MUSC Si13O18992   5.661   5.198   2.617
    1MUSC Si13P18993   6.013   5.212   1.613
    1MUSC Si13Q18994   5.669   5.198   3.088
    1MUSC Si13R18995   6.020   4.915   1.614
    1MUSC Si13S18996   5.662   4.590   3.087
    1MUSC Si13T18997   5.494   4.915   2.084
    1MUSC Si13U18998   5.668   4.590   2.617
    1MUSC Si13V18999   5.761   4.760   2.084
    1MUSC Si13W19000   5.922   4.746   2.617
    1MUSC Si13X19001   5.753   4.760   1.613
    1MUSC Si13Y19002   5.409   4.746   3.088
    1MUSC O039t19003   5.523   5.201   2.243
    1MUSC O039u19004   5.639   5.209   2.458
    1MUSC O039v19005   5.991   5.201   1.454
    1MUSC O039w19006   5.691   5.209   3.247
    1MUSC O039x19007   5.778   5.021   1.446
    1MUSC O039y19008   5.384   5.389   3.255
    1MUSC O039z19009   5.736   5.021   2.252
    1MUSC O03A019010   5.947   5.389   2.449
    1MUSC O03A119011   5.638   5.270   1.665
    1MUSC O03A219012   5.524   5.141   3.036
    1MUSC O03A319013   5.876   5.270   2.032
    1MUSC O03A419014   5.807   5.141   2.669
    1MUSC O03A519015   5.617   5.307   2.013
    1MUSC O03A619016   5.545   5.104   2.688
    1MUSC O03A719017   5.897   5.307   1.685
    1MUSC O03A819018   5.785   5.104   3.016
    1MUSC O03A919019   5.517   5.063   2.013
    1MUSC O03AA19020   5.645   5.347   2.688
    1MUSC O03AB19021   5.997   5.063   1.684
    1MUSC O03AC19022   5.685   5.347   3.017
    1MUSC O03AD19023   5.778   5.379   1.454
    1MUSC O03AE19024   5.384   5.031   3.247
    1MUSC O03AF19025   5.736   5.379   2.243
    1MUSC O03AG19026   5.947   5.031   2.458
    1MUSC O03AH19027   5.783   4.749   2.243
    1MUSC O03AI19028   5.900   4.757   2.458
    1MUSC O03AJ19029   5.731   4.749   1.454
    1MUSC O03AK19030   5.431   4.757   3.247
    1MUSC O03AL19031   6.038   4.569   1.446
    1MUSC O03AM19032   5.644   4.937   3.255
    1MUSC O03AN19033   5.475   4.569   2.252
    1MUSC O03AO19034   5.687   4.937   2.449
    1MUSC O03AP19035   5.898   4.817   1.665
    1MUSC O03AQ19036   5.784   4.688   3.036
    1MUSC O03AR19037   5.616   4.817   2.032
    1MUSC O03AS19038   5.546   4.688   2.669
    1MUSC O03AT19039   5.877   4.854   2.013
    1MUSC O03AU19040   5.806   4.651   2.688
    1MUSC O03AV19041   5.637   4.854   1.685
    1MUSC O03AW19042   5.525   4.651   3.016
    1MUSC O03AX19043   5.777   4.611   2.013
    1MUSC O03AY19044   5.906   4.895   2.688
    1MUSC O03AZ19045   5.737   4.611   1.684
    1MUSC O03Aa19046   5.425   4.895   3.017
    1MUSC O03Ab19047   6.038   4.927   1.454
    1MUSC O03Ac19048   5.644   4.579   3.247
    1MUSC O03Ad19049   5.475   4.927   2.243
    1MUSC O03Ae19050   5.687   4.579   2.458
    1MUSC K00CJ19051   5.588   6.247   0.845
    1MUSC K00CK19052   5.848   5.794   0.845
    1MUSC Al0Wn19053   5.767   5.958   0.343
    1MUSC Al0Wo19054   5.761   6.263   0.344
    1MUSC Al0Wp19055   6.113   5.958   3.355
    1MUSC Al0Wq19056   5.936   6.263   1.346
    1MUSC Al0Wr19057   6.027   5.505   0.343
    1MUSC Al0Ws19058   6.021   5.810   0.344
    1MUSC Al0Wt19059   5.852   5.505   3.355
    1MUSC Al0Wu19060   5.676   5.810   1.346
    1MUSC Si13Z19061   5.943   6.273   3.621
    1MUSC Si13a19062   5.585   5.948   1.080
    1MUSC Si13b19063   5.937   6.273   0.077
    1MUSC Si13c19064   6.112   5.948   0.610
    1MUSC Si13d19065   5.684   6.118   0.077
    1MUSC Si13e19066   5.844   6.103   0.610
    1MUSC Si13f19067   6.196   6.118   3.620
    1MUSC Si13g19068   5.852   6.103   1.081
    1MUSC Si13h19069   6.203   5.820   3.621
    1MUSC Si13i19070   5.845   5.495   1.080
    1MUSC Si13j19071   5.677   5.820   0.077
    1MUSC Si13k19072   5.851   5.495   0.610
    1MUSC Si13l19073   5.944   5.665   0.077
    1MUSC Si13m19074   6.105   5.651   0.610
    1MUSC Si13n19075   5.936   5.665   3.620
    1MUSC Si13o19076   5.592   5.651   1.081
    1MUSC O03Af19077   5.706   6.106   0.236
    1MUSC O03Ag19078   5.822   6.115   0.451
    1MUSC O03Ah19079   6.174   6.106   3.461
    1MUSC O03Ai19080   5.874   6.115   1.240
    1MUSC O03Aj19081   5.961   5.927   3.453
    1MUSC O03Ak19082   5.567   6.295   1.248
    1MUSC O03Al19083   5.919   5.927   0.245
    1MUSC O03Am19084   6.130   6.295   0.442
    1MUSC O03An19085   5.821   6.175   3.672
    1MUSC O03Ao19086   5.707   6.046   1.029
    1MUSC O03Ap19087   6.059   6.175   0.025
    1MUSC O03Aq19088   5.990   6.046   0.662
    1MUSC O03Ar19089   5.800   6.212   0.006
    1MUSC O03As19090   5.728   6.009   0.681
    1MUSC O03At19091   6.080   6.212   3.692
    1MUSC O03Au19092   5.968   6.009   1.009
    1MUSC O03Av19093   5.700   5.969   0.006
    1MUSC O03Aw19094   5.828   6.253   0.681
    1MUSC O03Ax19095   6.180   5.969   3.691
    1MUSC O03Ay19096   5.868   6.253   1.010
    1MUSC O03Az19097   5.961   6.285   3.461
    1MUSC O03B019098   5.567   5.937   1.240
    1MUSC O03B119099   5.919   6.285   0.236
    1MUSC O03B219100   6.130   5.937   0.451
    1MUSC O03B319101   5.966   5.654   0.236
    1MUSC O03B419102   6.083   5.662   0.451
    1MUSC O03B519103   5.914   5.654   3.461
    1MUSC O03B619104   5.614   5.662   1.240
    1MUSC O03B719105   6.221   5.474   3.453
    1MUSC O03B819106   5.827   5.842   1.248
    1MUSC O03B919107   5.658   5.474   0.245
    1MUSC O03BA19108   5.870   5.842   0.442
    1MUSC O03BB19109   6.081   5.723   3.672
    1MUSC O03BC19110   5.967   5.593   1.029
    1MUSC O03BD19111   5.799   5.723   0.025
    1MUSC O03BE19112   5.729   5.593   0.662
    1MUSC O03BF19113   6.060   5.760   0.006
    1MUSC O03BG19114   5.989   5.556   0.681
    1MUSC O03BH19115   5.820   5.760   3.692
    1MUSC O03BI19116   5.708   5.556   1.009
    1MUSC O03BJ19117   5.960   5.516   0.006
    1MUSC O03BK19118   6.089   5.800   0.681
    1MUSC O03BL19119   5.920   5.516   3.691
    1MUSC O03BM19120   5.608   5.800   1.010
    1MUSC O03BN19121   6.221   5.832   3.461
    1MUSC O03BO19122   5.827   5.484   1.240
    1MUSC O03BP19123   5.658   5.832   0.236
    1MUSC O03BQ19124   5.870   5.484   0.451
    1MUSC K00CL19125   5.757   5.975   1.849
    1MUSC K00CM19126   5.405   6.247   2.852
    1MUSC K00CN19127   5.497   5.522   1.849
    1MUSC K00CO19128   5.665   5.794   2.852
    1MUSC Al0Wv19129   5.584   5.958   2.350
    1MUSC Al0Ww19130   5.578   6.263   2.351
    1MUSC Al0Wx19131   5.930   5.958   1.348
    1MUSC Al0Wy19132   5.753   6.263   3.353
    1MUSC Al0Wz19133   5.844   5.505   2.350
    1MUSC Al0X019134   5.838   5.810   2.351
    1MUSC Al0X119135   5.669   5.505   1.348
    1MUSC Al0X219136   5.493   5.810   3.353
    1MUSC Si13p19137   5.760   6.273   1.614
    1MUSC Si13q19138   5.402   5.948   3.087
    1MUSC Si13r19139   5.754   6.273   2.084
    1MUSC Si13s19140   5.929   5.948   2.617
    1MUSC Si13t19141   5.501   6.118   2.084
    1MUSC Si13u19142   5.661   6.103   2.617
    1MUSC Si13v19143   6.013   6.118   1.613
    1MUSC Si13w19144   5.669   6.103   3.088
    1MUSC Si13x19145   6.020   5.820   1.614
    1MUSC Si13y19146   5.662   5.495   3.087
    1MUSC Si13z19147   5.494   5.820   2.084
    1MUSC Si14019148   5.668   5.495   2.617
    1MUSC Si14119149   5.761   5.665   2.084
    1MUSC Si14219150   5.922   5.651   2.617
    1MUSC Si14319151   5.753   5.665   1.613
    1MUSC Si14419152   5.409   5.651   3.088
    1MUSC O03BR19153   5.523   6.106   2.243
    1MUSC O03BS19154   5.639   6.115   2.458
    1MUSC O03BT19155   5.991   6.106   1.454
    1MUSC O03BU19156   5.691   6.115   3.247
    1MUSC O03BV19157   5.778   5.927   1.446
    1MUSC O03BW19158   5.384   6.295   3.255
    1MUSC O03BX19159   5.736   5.927   2.252
    1MUSC O03BY19160   5.947   6.295   2.449
    1MUSC O03BZ19161   5.638   6.175   1.665
    1MUSC O03Ba19162   5.524   6.046   3.036
    1MUSC O03Bb19163   5.876   6.175   2.032
    1MUSC O03Bc19164   5.807   6.046   2.669
    1MUSC O03Bd19165   5.617   6.212   2.013
    1MUSC O03Be19166   5.545   6.009   2.688
    1MUSC O03Bf19167   5.897   6.212   1.685
    1MUSC O03Bg19168   5.785   6.009   3.016
    1MUSC O03Bh19169   5.517   5.969   2.013
    1MUSC O03Bi19170   5.645   6.253   2.688
    1MUSC O03Bj19171   5.997   5.969   1.684
    1MUSC O03Bk19172   5.685   6.253   3.017
    1MUSC O03Bl19173   5.778   6.285   1.454
    1MUSC O03Bm19174   5.384   5.937   3.247
    1MUSC O03Bn19175   5.736   6.285   2.243
    1MUSC O03Bo19176   5.947   5.937   2.458
    1MUSC O03Bp19177   5.783   5.654   2.243
    1MUSC O03Bq19178   5.900   5.662   2.458
    1MUSC O03Br19179   5.731   5.654   1.454
    1MUSC O03Bs19180   5.431   5.662   3.247
    1MUSC O03Bt19181   6.038   5.474   1.446
    1MUSC O03Bu19182   5.644   5.842   3.255
    1MUSC O03Bv19183   5.475   5.474   2.252
    1MUSC O03Bw19184   5.687   5.842   2.449
    1MUSC O03Bx19185   5.898   5.723   1.665
    1MUSC O03By19186   5.784   5.593   3.036
    1MUSC O03Bz19187   5.616   5.723   2.032
    1MUSC O03C019188   5.546   5.593   2.669
    1MUSC O03C119189   5.877   5.760   2.013
    1MUSC O03C219190   5.806   5.556   2.688
    1MUSC O03C319191   5.637   5.760   1.685
    1MUSC O03C419192   5.525   5.556   3.016
    1MUSC O03C519193   5.777   5.516   2.013
    1MUSC O03C619194   5.906   5.800   2.688
    1MUSC O03C719195   5.737   5.516   1.684
    1MUSC O03C819196   5.425   5.800   3.017
    1MUSC O03C919197   6.038   5.832   1.454
    1MUSC O03CA19198   5.644   5.484   3.247
    1MUSC O03CB19199   5.475   5.832   2.243
    1MUSC O03CC19200   5.687   5.484   2.458
    1MUSC K00CP19201   5.588   7.152   0.845
    1MUSC K00CQ19202   5.848   6.699   0.845
    1MUSC Al0X319203   5.767   6.863   0.343
    1MUSC Al0X419204   5.761   7.168   0.344
    1MUSC Al0X519205   6.113   6.863   3.355
    1MUSC Al0X619206   5.936   7.168   1.346
    1MUSC Al0X719207   6.027   6.411   0.343
    1MUSC Al0X819208   6.021   6.716   0.344
    1MUSC Al0X919209   5.852   6.411   3.355
    1MUSC Al0XA19210   5.676   6.716   1.346
    1MUSC Si14519211   5.943   7.178   3.621
    1MUSC Si14619212   5.585   6.853   1.080
    1MUSC Si14719213   5.937   7.178   0.077
    1MUSC Si14819214   6.112   6.853   0.610
    1MUSC Si14919215   5.684   7.023   0.077
    1MUSC Si14A19216   5.844   7.009   0.610
    1MUSC Si14B19217   6.196   7.023   3.620
    1MUSC Si14C19218   5.852   7.009   1.081
    1MUSC Si14D19219   6.203   6.726   3.621
    1MUSC Si14E19220   5.845   6.401   1.080
    1MUSC Si14F19221   5.677   6.726   0.077
    1MUSC Si14G19222   5.851   6.401   0.610
    1MUSC Si14H19223   5.944   6.570   0.077
    1MUSC Si14I19224   6.105   6.556   0.610
    1MUSC Si14J19225   5.936   6.570   3.620
    1MUSC Si14K19226   5.592   6.556   1.081
    1MUSC O03CD19227   5.706   7.012   0.236
    1MUSC O03CE19228   5.822   7.020   0.451
    1MUSC O03CF19229   6.174   7.012   3.461
    1MUSC O03CG19230   5.874   7.020   1.240
    1MUSC O03CH19231   5.961   6.832   3.453
    1MUSC O03CI19232   5.567   7.200   1.248
    1MUSC O03CJ19233   5.919   6.832   0.245
    1MUSC O03CK19234   6.130   7.200   0.442
    1MUSC O03CL19235   5.821   7.080   3.672
    1MUSC O03CM19236   5.707   6.951   1.029
    1MUSC O03CN19237   6.059   7.080   0.025
    1MUSC O03CO19238   5.990   6.951   0.662
    1MUSC O03CP19239   5.800   7.117   0.006
    1MUSC O03CQ19240   5.728   6.914   0.681
    1MUSC O03CR19241   6.080   7.117   3.692
    1MUSC O03CS19242   5.968   6.914   1.009
    1MUSC O03CT19243   5.700   6.874   0.006
    1MUSC O03CU19244   5.828   7.158   0.681
    1MUSC O03CV19245   6.180   6.874   3.691
    1MUSC O03CW19246   5.868   7.158   1.010
    1MUSC O03CX19247   5.961   7.190   3.461
    1MUSC O03CY19248   5.567   6.842   1.240
    1MUSC O03CZ19249   5.919   7.190   0.236
    1MUSC O03Ca19250   6.130   6.842   0.451
    1MUSC O03Cb19251   5.966   6.559   0.236
    1MUSC O03Cc19252   6.083   6.567   0.451
    1MUSC O03Cd19253   5.914   6.559   3.461
    1MUSC O03Ce19254   5.614   6.567   1.240
    1MUSC O03Cf19255   6.221   6.379   3.453
    1MUSC O03Cg19256   5.827   6.747   1.248
    1MUSC O03Ch19257   5.658   6.379   0.245
    1MUSC O03Ci19258   5.870   6.747   0.442
    1MUSC O03Cj19259   6.081   6.628   3.672
    1MUSC O03Ck19260   5.967   6.499   1.029
    1MUSC O03Cl19261   5.799   6.628   0.025
    1MUSC O03Cm19262   5.729   6.499   0.662
    1MUSC O03Cn19263   6.060   6.665   0.006
    1MUSC O03Co19264   5.989   6.462   0.681
    1MUSC O03Cp19265   5.820   6.665   3.692
    1MUSC O03Cq19266   5.708   6.462   1.009
    1MUSC O03Cr19267   5.960   6.421   0.006
    1MUSC O03Cs19268   6.089   6.705   0.681
    1MUSC O03Ct19269   5.920   6.421   3.691
    1MUSC O03Cu19270   5.608   6.705   1.010
    1MUSC O03Cv19271   6.221   6.737   3.461
    1MUSC O03Cw19272   5.827   6.389   1.240
    1MUSC O03Cx19273   5.658   6.737   0.236
    1MUSC O03Cy19274   5.870   6.389   0.451
    1MUSC K00CR19275   5.757   6.880   1.849
    1MUSC K00CS19276   5.405   7.152   2.852
    1MUSC K00CT19277   5.497   6.427   1.849
    1MUSC K00CU19278   5.665   6.699   2.852
    1MUSC Al0XB19279   5.584   6.863   2.350
    1MUSC Al0XC19280   5.578   7.168   2.351
    1MUSC Al0XD19281   5.930   6.863   1.348
    1MUSC Al0XE19282   5.753   7.168   3.353
    1MUSC Al0XF19283   5.844   6.411   2.350
    1MUSC Al0XG19284   5.838   6.716   2.351
    1MUSC Al0XH19285   5.669   6.411   1.348
    1MUSC Al0XI19286   5.493   6.716   3.353
    1MUSC Si14L19287   5.760   7.178   1.614
    1MUSC Si14M19288   5.402   6.853   3.087
    1MUSC Si14N19289   5.754   7.178   2.084
    1MUSC Si14O19290   5.929   6.853   2.617
    1MUSC Si14P19291   5.501   7.023   2.084
    1MUSC Si14Q19292   5.661   7.009   2.617
    1MUSC Si14R19293   6.013   7.023   1.613
    1MUSC Si14S19294   5.669   7.009   3.088
    1MUSC Si14T19295   6.020   6.726   1.614
    1MUSC Si14U19296   5.662   6.401   3.087
    1MUSC Si14V19297   5.494   6.726   2.084
    1MUSC Si14W19298   5.668   6.401   2.617
    1MUSC Si14X19299   5.761   6.570   2.084
    1MUSC Si14Y19300   5.922   6.556   2.617
    1MUSC Si14Z19301   5.753   6.570   1.613
    1MUSC Si14a19302   5.409   6.556   3.088
    1MUSC O03Cz19303   5.523   7.012   2.243
    1MUSC O03D019304   5.639   7.020   2.458
    1MUSC O03D119305   5.991   7.012   1.454
    1MUSC O03D219306   5.691   7.020   3.247
    1MUSC O03D319307   5.778   6.832   1.446
    1MUSC O03D419308   5.384   7.200   3.255
    1MUSC O03D519309   5.736   6.832   2.252
    1MUSC O03D619310   5.947   7.200   2.449
    1MUSC O03D719311   5.638   7.080   1.665
    1MUSC O03D819312   5.524   6.951   3.036
    1MUSC O03D919313   5.876   7.080   2.032
    1MUSC O03DA19314   5.807   6.951   2.669
    1MUSC O03DB19315   5.617   7.117   2.013
    1MUSC O03DC19316   5.545   6.914   2.688
    1MUSC O03DD19317   5.897   7.117   1.685
    1MUSC O03DE19318   5.785   6.914   3.016
    1MUSC O03DF19319   5.517   6.874   2.013
    1MUSC O03DG19320   5.645   7.158   2.688
    1MUSC O03DH19321   5.997   6.874   1.684
    1MUSC O03DI19322   5.685   7.158   3.017
    1MUSC O03DJ19323   5.778   7.190   1.454
    1MUSC O03DK19324   5.384   6.842   3.247
    1MUSC O03DL19325   5.736   7.190   2.243
    1MUSC O03DM19326   5.947   6.842   2.458
    1MUSC O03DN19327   5.783   6.559   2.243
    1MUSC O03DO19328   5.900   6.567   2.458
    1MUSC O03DP19329   5.731   6.559   1.454
    1MUSC O03DQ19330   5.431   6.567   3.247
    1MUSC O03DR19331   6.038   6.379   1.446
    1MUSC O03DS19332   5.644   6.747   3.255
    1MUSC O03DT19333   5.475   6.379   2.252
    1MUSC O03DU19334   5.687   6.747   2.449
    1MUSC O03DV19335   5.898   6.628   1.665
    1MUSC O03DW19336   5.784   6.499   3.036
    1MUSC O03DX19337   5.616   6.628   2.032
    1MUSC O03DY19338   5.546   6.499   2.669
    1MUSC O03DZ19339   5.877   6.665   2.013
    1MUSC O03Da19340   5.806   6.462   2.688
    1MUSC O03Db19341   5.637   6.665   1.685
    1MUSC O03Dc19342   5.525   6.462   3.016
    1MUSC O03Dd19343   5.777   6.421   2.013
    1MUSC O03De19344   5.906   6.705   2.688
    1MUSC O03Df19345   5.737   6.421   1.684
    1MUSC O03Dg19346   5.425   6.705   3.017
    1MUSC O03Dh19347   6.038   6.737   1.454
    1MUSC O03Di19348   5.644   6.389   3.247
    1MUSC O03Dj19349   5.475   6.737   2.243
    1MUSC O03Dk19350   5.687   6.389   2.458
    1MUSC K00CV19351   5.588   8.057   0.845
    1MUSC K00CW19352   5.848   7.605   0.845
    1MUSC Al0XJ19353   5.767   7.769   0.343
    1MUSC Al0XK19354   5.761   8.074   0.344
    1MUSC Al0XL19355   6.113   7.769   3.355
    1MUSC Al0XM19356   5.936   8.074   1.346
    1MUSC Al0XN19357   6.027   7.316   0.343
    1MUSC Al0XO19358   6.021   7.621   0.344
    1MUSC Al0XP19359   5.852   7.316   3.355
    1MUSC Al0XQ19360   5.676   7.621   1.346
    1MUSC Si14b19361   5.943   8.084   3.621
    1MUSC Si14c19362   5.585   7.759   1.080
    1MUSC Si14d19363   5.937   8.084   0.077
    1MUSC Si14e19364   6.112   7.759   0.610
    1MUSC Si14f19365   5.684   7.928   0.077
    1MUSC Si14g19366   5.844   7.914   0.610
    1MUSC Si14h19367   6.196   7.928   3.620
    1MUSC Si14i19368   5.852   7.914   1.081
    1MUSC Si14j19369   6.203   7.631   3.621
    1MUSC Si14k19370   5.845   7.306   1.080
    1MUSC Si14l19371   5.677   7.631   0.077
    1MUSC Si14m19372   5.851   7.306   0.610
    1MUSC Si14n19373   5.944   7.476   0.077
    1MUSC Si14o19374   6.105   7.461   0.610
    1MUSC Si14p19375   5.936   7.476   3.620
    1MUSC Si14q19376   5.592   7.461   1.081
    1MUSC O03Dl19377   5.706   7.917   0.236
    1MUSC O03Dm19378   5.822   7.925   0.451
    1MUSC O03Dn19379   6.174   7.917   3.461
    1MUSC O03Do19380   5.874   7.925   1.240
    1MUSC O03Dp19381   5.961   7.737   3.453
    1MUSC O03Dq19382   5.567   8.105   1.248
    1MUSC O03Dr19383   5.919   7.737   0.245
    1MUSC O03Ds19384   6.130   8.105   0.442
    1MUSC O03Dt19385   5.821   7.986   3.672
    1MUSC O03Du19386   5.707   7.856   1.029
    1MUSC O03Dv19387   6.059   7.986   0.025
    1MUSC O03Dw19388   5.990   7.856   0.662
    1MUSC O03Dx19389   5.800   8.023   0.006
    1MUSC O03Dy19390   5.728   7.819   0.681
    1MUSC O03Dz19391   6.080   8.023   3.692
    1MUSC O03E019392   5.968   7.819   1.009
    1MUSC O03E119393   5.700   7.779   0.006
    1MUSC O03E219394   5.828   8.063   0.681
    1MUSC O03E319395   6.180   7.779   3.691
    1MUSC O03E419396   5.868   8.063   1.010
    1MUSC O03E519397   5.961   8.095   3.461
    1MUSC O03E619398   5.567   7.747   1.240
    1MUSC O03E719399   5.919   8.095   0.236
    1MUSC O03E819400   6.130   7.747   0.451
    1MUSC O03E919401   5.966   7.464   0.236
    1MUSC O03EA19402   6.083   7.473   0.451
    1MUSC O03EB19403   5.914   7.464   3.461
    1MUSC O03EC19404   5.614   7.473   1.240
    1MUSC O03ED19405   6.221   7.284   3.453
    1MUSC O03EE19406   5.827   7.653   1.248
    1MUSC O03EF19407   5.658   7.284   0.245
    1MUSC O03EG19408   5.870   7.653   0.442
    1MUSC O03EH19409   6.081   7.533   3.672
    1MUSC O03EI19410   5.967   7.404   1.029
    1MUSC O03EJ19411   5.799   7.533   0.025
    1MUSC O03EK19412   5.729   7.404   0.662
    1MUSC O03EL19413   6.060   7.570   0.006
    1MUSC O03EM19414   5.989   7.367   0.681
    1MUSC O03EN19415   5.820   7.570   3.692
    1MUSC O03EO19416   5.708   7.367   1.009
    1MUSC O03EP19417   5.960   7.326   0.006
    1MUSC O03EQ19418   6.089   7.611   0.681
    1MUSC O03ER19419   5.920   7.326   3.691
    1MUSC O03ES19420   5.608   7.611   1.010
    1MUSC O03ET19421   6.221   7.642   3.461
    1MUSC O03EU19422   5.827   7.295   1.240
    1MUSC O03EV19423   5.658   7.642   0.236
    1MUSC O03EW19424   5.870   7.295   0.451
    1MUSC K00CX19425   5.757   7.785   1.849
    1MUSC K00CY19426   5.405   8.057   2.852
    1MUSC K00CZ19427   5.497   7.332   1.849
    1MUSC K00Ca19428   5.665   7.605   2.852
    1MUSC Al0XR19429   5.584   7.769   2.350
    1MUSC Al0XS19430   5.578   8.074   2.351
    1MUSC Al0XT19431   5.930   7.769   1.348
    1MUSC Al0XU19432   5.753   8.074   3.353
    1MUSC Al0XV19433   5.844   7.316   2.350
    1MUSC Al0XW19434   5.838   7.621   2.351
    1MUSC Al0XX19435   5.669   7.316   1.348
    1MUSC Al0XY19436   5.493   7.621   3.353
    1MUSC Si14r19437   5.760   8.084   1.614
    1MUSC Si14s19438   5.402   7.759   3.087
    1MUSC Si14t19439   5.754   8.084   2.084
    1MUSC Si14u19440   5.929   7.759   2.617
    1MUSC Si14v19441   5.501   7.928   2.084
    1MUSC Si14w19442   5.661   7.914   2.617
    1MUSC Si14x19443   6.013   7.928   1.613
    1MUSC Si14y19444   5.669   7.914   3.088
    1MUSC Si14z19445   6.020   7.631   1.614
    1MUSC Si15019446   5.662   7.306   3.087
    1MUSC Si15119447   5.494   7.631   2.084
    1MUSC Si15219448   5.668   7.306   2.617
    1MUSC Si15319449   5.761   7.476   2.084
    1MUSC Si15419450   5.922   7.461   2.617
    1MUSC Si15519451   5.753   7.476   1.613
    1MUSC Si15619452   5.409   7.461   3.088
    1MUSC O03EX19453   5.523   7.917   2.243
    1MUSC O03EY19454   5.639   7.925   2.458
    1MUSC O03EZ19455   5.991   7.917   1.454
    1MUSC O03Ea19456   5.691   7.925   3.247
    1MUSC O03Eb19457   5.778   7.737   1.446
    1MUSC O03Ec19458   5.384   8.105   3.255
    1MUSC O03Ed19459   5.736   7.737   2.252
    1MUSC O03Ee19460   5.947   8.105   2.449
    1MUSC O03Ef19461   5.638   7.986   1.665
    1MUSC O03Eg19462   5.524   7.856   3.036
    1MUSC O03Eh19463   5.876   7.986   2.032
    1MUSC O03Ei19464   5.807   7.856   2.669
    1MUSC O03Ej19465   5.617   8.023   2.013
    1MUSC O03Ek19466   5.545   7.819   2.688
    1MUSC O03El19467   5.897   8.023   1.685
    1MUSC O03Em19468   5.785   7.819   3.016
    1MUSC O03En19469   5.517   7.779   2.013
    1MUSC O03Eo19470   5.645   8.063   2.688
    1MUSC O03Ep19471   5.997   7.779   1.684
    1MUSC O03Eq19472   5.685   8.063   3.017
    1MUSC O03Er19473   5.778   8.095   1.454
    1MUSC O03Es19474   5.384   7.747   3.247
    1MUSC O03Et19475   5.736   8.095   2.243
    1MUSC O03Eu19476   5.947   7.747   2.458
    1MUSC O03Ev19477   5.783   7.464   2.243
    1MUSC O03Ew19478   5.900   7.473   2.458
    1MUSC O03Ex19479   5.731   7.464   1.454
    1MUSC O03Ey19480   5.431   7.473   3.247
    1MUSC O03Ez19481   6.038   7.284   1.446
    1MUSC O03F019482   5.644   7.653   3.255
    1MUSC O03F119483   5.475   7.284   2.252
    1MUSC O03F219484   5.687   7.653   2.449
    1MUSC O03F319485   5.898   7.533   1.665
    1MUSC O03F419486   5.784   7.404   3.036
    1MUSC O03F519487   5.616   7.533   2.032
    1MUSC O03F619488   5.546   7.404   2.669
    1MUSC O03F719489   5.877   7.570   2.013
    1MUSC O03F819490   5.806   7.367   2.688
    1MUSC O03F919491   5.637   7.570   1.685
    1MUSC O03FA19492   5.525   7.367   3.016
    1MUSC O03FB19493   5.777   7.326   2.013
    1MUSC O03FC19494   5.906   7.611   2.688
    1MUSC O03FD19495   5.737   7.326   1.684
    1MUSC O03FE19496   5.425   7.611   3.017
    1MUSC O03FF19497   6.038   7.642   1.454
    1MUSC O03FG19498   5.644   7.295   3.247
    1MUSC O03FH19499   5.475   7.642   2.243
    1MUSC O03FI19500   5.687   7.295   2.458
    1MUSC K00Cb19501   5.588   8.962   0.845
    1MUSC K00Cc19502   5.848   8.510   0.845
    1MUSC Al0XZ19503   5.767   8.674   0.343
    1MUSC Al0Xa19504   5.761   8.979   0.344
    1MUSC Al0Xb19505   6.113   8.674   3.355
    1MUSC Al0Xc19506   5.936   8.979   1.346
    1MUSC Al0Xd19507   6.027   8.221   0.343
    1MUSC Al0Xe19508   6.021   8.526   0.344
    1MUSC Al0Xf19509   5.852   8.221   3.355
    1MUSC Al0Xg19510   5.676   8.526   1.346
    1MUSC Si15719511   5.943   8.989   3.621
    1MUSC Si15819512   5.585   8.664   1.080
    1MUSC Si15919513   5.937   8.989   0.077
    1MUSC Si15A19514   6.112   8.664   0.610
    1MUSC Si15B19515   5.684   8.834   0.077
    1MUSC Si15C19516   5.844   8.819   0.610
    1MUSC Si15D19517   6.196   8.834   3.620
    1MUSC Si15E19518   5.852   8.819   1.081
    1MUSC Si15F19519   6.203   8.536   3.621
    1MUSC Si15G19520   5.845   8.211   1.080
    1MUSC Si15H19521   5.677   8.536   0.077
    1MUSC Si15I19522   5.851   8.211   0.610
    1MUSC Si15J19523   5.944   8.381   0.077
    1MUSC Si15K19524   6.105   8.367   0.610
    1MUSC Si15L19525   5.936   8.381   3.620
    1MUSC Si15M19526   5.592   8.367   1.081
    1MUSC O03FJ19527   5.706   8.822   0.236
    1MUSC O03FK19528   5.822   8.831   0.451
    1MUSC O03FL19529   6.174   8.822   3.461
    1MUSC O03FM19530   5.874   8.831   1.240
    1MUSC O03FN19531   5.961   8.642   3.453
    1MUSC O03FO19532   5.567   9.010   1.248
    1MUSC O03FP19533   5.919   8.642   0.245
    1MUSC O03FQ19534   6.130   9.010   0.442
    1MUSC O03FR19535   5.821   8.891   3.672
    1MUSC O03FS19536   5.707   8.762   1.029
    1MUSC O03FT19537   6.059   8.891   0.025
    1MUSC O03FU19538   5.990   8.762   0.662
    1MUSC O03FV19539   5.800   8.928   0.006
    1MUSC O03FW19540   5.728   8.725   0.681
    1MUSC O03FX19541   6.080   8.928   3.692
    1MUSC O03FY19542   5.968   8.725   1.009
    1MUSC O03FZ19543   5.700   8.684   0.006
    1MUSC O03Fa19544   5.828   8.968   0.681
    1MUSC O03Fb19545   6.180   8.684   3.691
    1MUSC O03Fc19546   5.868   8.968   1.010
    1MUSC O03Fd19547   5.961   9.000   3.461
    1MUSC O03Fe19548   5.567   8.652   1.240
    1MUSC O03Ff19549   5.919   9.000   0.236
    1MUSC O03Fg19550   6.130   8.652   0.451
    1MUSC O03Fh19551   5.966   8.370   0.236
    1MUSC O03Fi19552   6.083   8.378   0.451
    1MUSC O03Fj19553   5.914   8.370   3.461
    1MUSC O03Fk19554   5.614   8.378   1.240
    1MUSC O03Fl19555   6.221   8.190   3.453
    1MUSC O03Fm19556   5.827   8.558   1.248
    1MUSC O03Fn19557   5.658   8.190   0.245
    1MUSC O03Fo19558   5.870   8.558   0.442
    1MUSC O03Fp19559   6.081   8.438   3.672
    1MUSC O03Fq19560   5.967   8.309   1.029
    1MUSC O03Fr19561   5.799   8.438   0.025
    1MUSC O03Fs19562   5.729   8.309   0.662
    1MUSC O03Ft19563   6.060   8.475   0.006
    1MUSC O03Fu19564   5.989   8.272   0.681
    1MUSC O03Fv19565   5.820   8.475   3.692
    1MUSC O03Fw19566   5.708   8.272   1.009
    1MUSC O03Fx19567   5.960   8.232   0.006
    1MUSC O03Fy19568   6.089   8.516   0.681
    1MUSC O03Fz19569   5.920   8.232   3.691
    1MUSC O03G019570   5.608   8.516   1.010
    1MUSC O03G119571   6.221   8.548   3.461
    1MUSC O03G219572   5.827   8.200   1.240
    1MUSC O03G319573   5.658   8.548   0.236
    1MUSC O03G419574   5.870   8.200   0.451
    1MUSC K00Cd19575   5.757   8.690   1.849
    1MUSC K00Ce19576   5.405   8.962   2.852
    1MUSC K00Cf19577   5.497   8.238   1.849
    1MUSC K00Cg19578   5.665   8.510   2.852
    1MUSC Al0Xh19579   5.584   8.674   2.350
    1MUSC Al0Xi19580   5.578   8.979   2.351
    1MUSC Al0Xj19581   5.930   8.674   1.348
    1MUSC Al0Xk19582   5.753   8.979   3.353
    1MUSC Al0Xl19583   5.844   8.221   2.350
    1MUSC Al0Xm19584   5.838   8.526   2.351
    1MUSC Al0Xn19585   5.669   8.221   1.348
    1MUSC Al0Xo19586   5.493   8.526   3.353
    1MUSC Si15N19587   5.760   8.989   1.614
    1MUSC Si15O19588   5.402   8.664   3.087
    1MUSC Si15P19589   5.754   8.989   2.084
    1MUSC Si15Q19590   5.929   8.664   2.617
    1MUSC Si15R19591   5.501   8.834   2.084
    1MUSC Si15S19592   5.661   8.819   2.617
    1MUSC Si15T19593   6.013   8.834   1.613
    1MUSC Si15U19594   5.669   8.819   3.088
    1MUSC Si15V19595   6.020   8.536   1.614
    1MUSC Si15W19596   5.662   8.211   3.087
    1MUSC Si15X19597   5.494   8.536   2.084
    1MUSC Si15Y19598   5.668   8.211   2.617
    1MUSC Si15Z19599   5.761   8.381   2.084
    1MUSC Si15a19600   5.922   8.367   2.617
    1MUSC Si15b19601   5.753   8.381   1.613
    1MUSC Si15c19602   5.409   8.367   3.088
    1MUSC O03G519603   5.523   8.822   2.243
    1MUSC O03G619604   5.639   8.831   2.458
    1MUSC O03G719605   5.991   8.822   1.454
    1MUSC O03G819606   5.691   8.831   3.247
    1MUSC O03G919607   5.778   8.642   1.446
    1MUSC O03GA19608   5.384   9.010   3.255
    1MUSC O03GB19609   5.736   8.642   2.252
    1MUSC O03GC19610   5.947   9.010   2.449
    1MUSC O03GD19611   5.638   8.891   1.665
    1MUSC O03GE19612   5.524   8.762   3.036
    1MUSC O03GF19613   5.876   8.891   2.032
    1MUSC O03GG19614   5.807   8.762   2.669
    1MUSC O03GH19615   5.617   8.928   2.013
    1MUSC O03GI19616   5.545   8.725   2.688
    1MUSC O03GJ19617   5.897   8.928   1.685
    1MUSC O03GK19618   5.785   8.725   3.016
    1MUSC O03GL19619   5.517   8.684   2.013
    1MUSC O03GM19620   5.645   8.968   2.688
    1MUSC O03GN19621   5.997   8.684   1.684
    1MUSC O03GO19622   5.685   8.968   3.017
    1MUSC O03GP19623   5.778   9.000   1.454
    1MUSC O03GQ19624   5.384   8.652   3.247
    1MUSC O03GR19625   5.736   9.000   2.243
    1MUSC O03GS19626   5.947   8.652   2.458
    1MUSC O03GT19627   5.783   8.370   2.243
    1MUSC O03GU19628   5.900   8.378   2.458
    1MUSC O03GV19629   5.731   8.370   1.454
    1MUSC O03GW19630   5.431   8.378   3.247
    1MUSC O03GX19631   6.038   8.190   1.446
    1MUSC O03GY19632   5.644   8.558   3.255
    1MUSC O03GZ19633   5.475   8.190   2.252
    1MUSC O03Ga19634   5.687   8.558   2.449
    1MUSC O03Gb19635   5.898   8.438   1.665
    1MUSC O03Gc19636   5.784   8.309   3.036
    1MUSC O03Gd19637   5.616   8.438   2.032
    1MUSC O03Ge19638   5.546   8.309   2.669
    1MUSC O03Gf19639   5.877   8.475   2.013
    1MUSC O03Gg19640   5.806   8.272   2.688
    1MUSC O03Gh19641   5.637   8.475   1.685
    1MUSC O03Gi19642   5.525   8.272   3.016
    1MUSC O03Gj19643   5.777   8.232   2.013
    1MUSC O03Gk19644   5.906   8.516   2.688
    1MUSC O03Gl19645   5.737   8.232   1.684
    1MUSC O03Gm19646   5.425   8.516   3.017
    1MUSC O03Gn19647   6.038   8.548   1.454
    1MUSC O03Go19648   5.644   8.200   3.247
    1MUSC O03Gp19649   5.475   8.548   2.243
    1MUSC O03Gq19650   5.687   8.200   2.458
    1MUSC K00Ch19651   5.588   9.868   0.845
    1MUSC K00Ci19652   5.848   9.415   0.845
    1MUSC Al0Xp19653   5.767   9.579   0.343
    1MUSC Al0Xq19654   5.761   9.884   0.344
    1MUSC Al0Xr19655   6.113   9.579   3.355
    1MUSC Al0Xs19656   5.936   9.884   1.346
    1MUSC Al0Xt19657   6.027   9.126   0.343
    1MUSC Al0Xu19658   6.021   9.432   0.344
    1MUSC Al0Xv19659   5.852   9.126   3.355
    1MUSC Al0Xw19660   5.676   9.432   1.346
    1MUSC Si15d19661   5.943   9.894   3.621
    1MUSC Si15e19662   5.585   9.569   1.080
    1MUSC Si15f19663   5.937   9.894   0.077
    1MUSC Si15g19664   6.112   9.569   0.610
    1MUSC Si15h19665   5.684   9.739   0.077
    1MUSC Si15i19666   5.844   9.724   0.610
    1MUSC Si15j19667   6.196   9.739   3.620
    1MUSC Si15k19668   5.852   9.724   1.081
    1MUSC Si15l19669   6.203   9.441   3.621
    1MUSC Si15m19670   5.845   9.117   1.080
    1MUSC Si15n19671   5.677   9.441   0.077
    1MUSC Si15o19672   5.851   9.117   0.610
    1MUSC Si15p19673   5.944   9.286   0.077
    1MUSC Si15q19674   6.105   9.272   0.610
    1MUSC Si15r19675   5.936   9.286   3.620
    1MUSC Si15s19676   5.592   9.272   1.081
    1MUSC O03Gr19677   5.706   9.728   0.236
    1MUSC O03Gs19678   5.822   9.736   0.451
    1MUSC O03Gt19679   6.174   9.728   3.461
    1MUSC O03Gu19680   5.874   9.736   1.240
    1MUSC O03Gv19681   5.961   9.548   3.453
    1MUSC O03Gw19682   5.567   9.916   1.248
    1MUSC O03Gx19683   5.919   9.548   0.245
    1MUSC O03Gy19684   6.130   9.916   0.442
    1MUSC O03Gz19685   5.821   9.796   3.672
    1MUSC O03H019686   5.707   9.667   1.029
    1MUSC O03H119687   6.059   9.796   0.025
    1MUSC O03H219688   5.990   9.667   0.662
    1MUSC O03H319689   5.800   9.833   0.006
    1MUSC O03H419690   5.728   9.630   0.681
    1MUSC O03H519691   6.080   9.833   3.692
    1MUSC O03H619692   5.968   9.630   1.009
    1MUSC O03H719693   5.700   9.590   0.006
    1MUSC O03H819694   5.828   9.874   0.681
    1MUSC O03H919695   6.180   9.590   3.691
    1MUSC O03HA19696   5.868   9.874   1.010
    1MUSC O03HB19697   5.961   9.906   3.461
    1MUSC O03HC19698   5.567   9.558   1.240
    1MUSC O03HD19699   5.919   9.906   0.236
    1MUSC O03HE19700   6.130   9.558   0.451
    1MUSC O03HF19701   5.966   9.275   0.236
    1MUSC O03HG19702   6.083   9.283   0.451
    1MUSC O03HH19703   5.914   9.275   3.461
    1MUSC O03HI19704   5.614   9.283   1.240
    1MUSC O03HJ19705   6.221   9.095   3.453
    1MUSC O03HK19706   5.827   9.463   1.248
    1MUSC O03HL19707   5.658   9.095   0.245
    1MUSC O03HM19708   5.870   9.463   0.442
    1MUSC O03HN19709   6.081   9.344   3.672
    1MUSC O03HO19710   5.967   9.214   1.029
    1MUSC O03HP19711   5.799   9.344   0.025
    1MUSC O03HQ19712   5.729   9.214   0.662
    1MUSC O03HR19713   6.060   9.381   0.006
    1MUSC O03HS19714   5.989   9.177   0.681
    1MUSC O03HT19715   5.820   9.381   3.692
    1MUSC O03HU19716   5.708   9.177   1.009
    1MUSC O03HV19717   5.960   9.137   0.006
    1MUSC O03HW19718   6.089   9.421   0.681
    1MUSC O03HX19719   5.920   9.137   3.691
    1MUSC O03HY19720   5.608   9.421   1.010
    1MUSC O03HZ19721   6.221   9.453   3.461
    1MUSC O03Ha19722   5.827   9.105   1.240
    1MUSC O03Hb19723   5.658   9.453   0.236
    1MUSC O03Hc19724   5.870   9.105   0.451
    1MUSC K00Cj19725   5.757   9.596   1.849
    1MUSC K00Ck19726   5.405   9.868   2.852
    1MUSC K00Cl19727   5.497   9.143   1.849
    1MUSC K00Cm19728   5.665   9.415   2.852
    1MUSC Al0Xx19729   5.584   9.579   2.350
    1MUSC Al0Xy19730   5.578   9.884   2.351
    1MUSC Al0Xz19731   5.930   9.579   1.348
    1MUSC Al0Y019732   5.753   9.884   3.353
    1MUSC Al0Y119733   5.844   9.126   2.350
    1MUSC Al0Y219734   5.838   9.432   2.351
    1MUSC Al0Y319735   5.669   9.126   1.348
    1MUSC Al0Y419736   5.493   9.432   3.353
    1MUSC Si15t19737   5.760   9.894   1.614
    1MUSC Si15u19738   5.402   9.569   3.087
    1MUSC Si15v19739   5.754   9.894   2.084
    1MUSC Si15w19740   5.929   9.569   2.617
    1MUSC Si15x19741   5.501   9.739   2.084
    1MUSC Si15y19742   5.661   9.724   2.617
    1MUSC Si15z19743   6.013   9.739   1.613
    1MUSC Si16019744   5.669   9.724   3.088
    1MUSC Si16119745   6.020   9.441   1.614
    1MUSC Si16219746   5.662   9.117   3.087
    1MUSC Si16319747   5.494   9.441   2.084
    1MUSC Si16419748   5.668   9.117   2.617
    1MUSC Si16519749   5.761   9.286   2.084
    1MUSC Si16619750   5.922   9.272   2.617
    1MUSC Si16719751   5.753   9.286   1.613
    1MUSC Si16819752   5.409   9.272   3.088
    1MUSC O03Hd19753   5.523   9.728   2.243
    1MUSC O03He19754   5.639   9.736   2.458
    1MUSC O03Hf19755   5.991   9.728   1.454
    1MUSC O03Hg19756   5.691   9.736   3.247
    1MUSC O03Hh19757   5.778   9.548   1.446
    1MUSC O03Hi19758   5.384   9.916   3.255
    1MUSC O03Hj19759   5.736   9.548   2.252
    1MUSC O03Hk19760   5.947   9.916   2.449
    1MUSC O03Hl19761   5.638   9.796   1.665
    1MUSC O03Hm19762   5.524   9.667   3.036
    1MUSC O03Hn19763   5.876   9.796   2.032
    1MUSC O03Ho19764   5.807   9.667   2.669
    1MUSC O03Hp19765   5.617   9.833   2.013
    1MUSC O03Hq19766   5.545   9.630   2.688
    1MUSC O03Hr19767   5.897   9.833   1.685
    1MUSC O03Hs19768   5.785   9.630   3.016
    1MUSC O03Ht19769   5.517   9.590   2.013
    1MUSC O03Hu19770   5.645   9.874   2.688
    1MUSC O03Hv19771   5.997   9.590   1.684
    1MUSC O03Hw19772   5.685   9.874   3.017
    1MUSC O03Hx19773   5.778   9.906   1.454
    1MUSC O03Hy19774   5.384   9.558   3.247
    1MUSC O03Hz19775   5.736   9.906   2.243
    1MUSC O03I019776   5.947   9.558   2.458
    1MUSC O03I119777   5.783   9.275   2.243
    1MUSC O03I219778   5.900   9.283   2.458
    1MUSC O03I319779   5.731   9.275   1.454
    1MUSC O03I419780   5.431   9.283   3.247
    1MUSC O03I519781   6.038   9.095   1.446
    1MUSC O03I619782   5.644   9.463   3.255
    1MUSC O03I719783   5.475   9.095   2.252
    1MUSC O03I819784   5.687   9.463   2.449
    1MUSC O03I919785   5.898   9.344   1.665
    1MUSC O03IA19786   5.784   9.214   3.036
    1MUSC O03IB19787   5.616   9.344   2.032
    1MUSC O03IC19788   5.546   9.214   2.669
    1MUSC O03ID19789   5.877   9.381   2.013
    1MUSC O03IE19790   5.806   9.177   2.688
    1MUSC O03IF19791   5.637   9.381   1.685
    1MUSC O03IG19792   5.525   9.177   3.016
    1MUSC O03IH19793   5.777   9.137   2.013
    1MUSC O03II19794   5.906   9.421   2.688
    1MUSC O03IJ19795   5.737   9.137   1.684
    1MUSC O03IK19796   5.425   9.421   3.017
    1MUSC O03IL19797   6.038   9.453   1.454
    1MUSC O03IM19798   5.644   9.105   3.247
    1MUSC O03IN19799   5.475   9.453   2.243
    1MUSC O03IO19800   5.687   9.105   2.458
    1MUSC K00Cn19801   6.109   0.815   0.845
    1MUSC K00Co19802   6.369   0.362   0.845
    1MUSC Al0Y519803   6.288   0.526   0.343
    1MUSC Al0Y619804   6.281   0.831   0.344
    1MUSC Al0Y719805   6.633   0.526   3.355
    1MUSC Al0Y819806   6.456   0.831   1.346
    1MUSC Al0Y919807   6.548   0.074   0.343
    1MUSC Al0YA19808   6.541   0.379   0.344
    1MUSC Al0YB19809   6.373   0.074   3.355
    1MUSC Al0YC19810   6.196   0.379   1.346
    1MUSC Si16919811   6.463   0.841   3.621
    1MUSC Si16A19812   6.106   0.517   1.080
    1MUSC Si16B19813   6.457   0.841   0.077
    1MUSC Si16C19814   6.632   0.517   0.610
    1MUSC Si16D19815   6.204   0.686   0.077
    1MUSC Si16E19816   6.365   0.672   0.610
    1MUSC Si16F19817   6.717   0.686   3.620
    1MUSC Si16G19818   6.373   0.672   1.081
    1MUSC Si16H19819   6.724   0.389   3.621
    1MUSC Si16I19820   6.366   0.064   1.080
    1MUSC Si16J19821   6.197   0.389   0.077
    1MUSC Si16K19822   6.372   0.064   0.610
    1MUSC Si16L19823   6.464   0.233   0.077
    1MUSC Si16M19824   6.625   0.219   0.610
    1MUSC Si16N19825   6.456   0.233   3.620
    1MUSC Si16O19826   6.113   0.219   1.081
    1MUSC O03IP19827   6.226   0.675   0.236
    1MUSC O03IQ19828   6.343   0.683   0.451
    1MUSC O03IR19829   6.695   0.675   3.461
    1MUSC O03IS19830   6.395   0.683   1.240
    1MUSC O03IT19831   6.482   0.495   3.453
    1MUSC O03IU19832   6.087   0.863   1.248
    1MUSC O03IV19833   6.439   0.495   0.245
    1MUSC O03IW19834   6.650   0.863   0.442
    1MUSC O03IX19835   6.341   0.744   3.672
    1MUSC O03IY19836   6.228   0.614   1.029
    1MUSC O03IZ19837   6.579   0.744   0.025
    1MUSC O03Ia19838   6.510   0.614   0.662
    1MUSC O03Ib19839   6.320   0.781   0.006
    1MUSC O03Ic19840   6.249   0.577   0.681
    1MUSC O03Id19841   6.601   0.781   3.692
    1MUSC O03Ie19842   6.489   0.577   1.009
    1MUSC O03If19843   6.220   0.537   0.006
    1MUSC O03Ig19844   6.349   0.821   0.681
    1MUSC O03Ih19845   6.701   0.537   3.691
    1MUSC O03Ii19846   6.389   0.821   1.010
    1MUSC O03Ij19847   6.482   0.853   3.461
    1MUSC O03Ik19848   6.087   0.505   1.240
    1MUSC O03Il19849   6.439   0.853   0.236
    1MUSC O03Im19850   6.650   0.505   0.451
    1MUSC O03In19851   6.486   0.222   0.236
    1MUSC O03Io19852   6.603   0.230   0.451
    1MUSC O03Ip19853   6.434   0.222   3.461
    1MUSC O03Iq19854   6.135   0.230   1.240
    1MUSC O03Ir19855   6.742   0.042   3.453
    1MUSC O03Is19856   6.348   0.410   1.248
    1MUSC O03It19857   6.179   0.042   0.245
    1MUSC O03Iu19858   6.390   0.410   0.442
    1MUSC O03Iv19859   6.602   0.291   3.672
    1MUSC O03Iw19860   6.488   0.162   1.029
    1MUSC O03Ix19861   6.319   0.291   0.025
    1MUSC O03Iy19862   6.250   0.162   0.662
    1MUSC O03Iz19863   6.580   0.328   0.006
    1MUSC O03J019864   6.509   0.125   0.681
    1MUSC O03J119865   6.340   0.328   3.692
    1MUSC O03J219866   6.229   0.125   1.009
    1MUSC O03J319867   6.480   0.084   0.006
    1MUSC O03J419868   6.609   0.368   0.681
    1MUSC O03J519869   6.440   0.084   3.691
    1MUSC O03J619870   6.129   0.368   1.010
    1MUSC O03J719871   6.742   0.400   3.461
    1MUSC O03J819872   6.348   0.052   1.240
    1MUSC O03J919873   6.179   0.400   0.236
    1MUSC O03JA19874   6.390   0.052   0.451
    1MUSC K00Cp19875   6.277   0.543   1.849
    1MUSC K00Cq19876   5.926   0.815   2.852
    1MUSC K00Cr19877   6.017   0.090   1.849
    1MUSC K00Cs19878   6.186   0.362   2.852
    1MUSC Al0YD19879   6.105   0.526   2.350
    1MUSC Al0YE19880   6.098   0.831   2.351
    1MUSC Al0YF19881   6.450   0.526   1.348
    1MUSC Al0YG19882   6.273   0.831   3.353
    1MUSC Al0YH19883   6.365   0.074   2.350
    1MUSC Al0YI19884   6.358   0.379   2.351
    1MUSC Al0YJ19885   6.190   0.074   1.348
    1MUSC Al0YK19886   6.013   0.379   3.353
    1MUSC Si16P19887   6.280   0.841   1.614
    1MUSC Si16Q19888   5.923   0.517   3.087
    1MUSC Si16R19889   6.274   0.841   2.084
    1MUSC Si16S19890   6.449   0.517   2.617
    1MUSC Si16T19891   6.021   0.686   2.084
    1MUSC Si16U19892   6.182   0.672   2.617
    1MUSC Si16V19893   6.534   0.686   1.613
    1MUSC Si16W19894   6.190   0.672   3.088
    1MUSC Si16X19895   6.541   0.389   1.614
    1MUSC Si16Y19896   6.183   0.064   3.087
    1MUSC Si16Z19897   6.014   0.389   2.084
    1MUSC Si16a19898   6.189   0.064   2.617
    1MUSC Si16b19899   6.281   0.233   2.084
    1MUSC Si16c19900   6.442   0.219   2.617
    1MUSC Si16d19901   6.273   0.233   1.613
    1MUSC Si16e19902   5.930   0.219   3.088
    1MUSC O03JB19903   6.043   0.675   2.243
    1MUSC O03JC19904   6.160   0.683   2.458
    1MUSC O03JD19905   6.512   0.675   1.454
    1MUSC O03JE19906   6.212   0.683   3.247
    1MUSC O03JF19907   6.299   0.495   1.446
    1MUSC O03JG19908   5.904   0.863   3.255
    1MUSC O03JH19909   6.256   0.495   2.252
    1MUSC O03JI19910   6.467   0.863   2.449
    1MUSC O03JJ19911   6.158   0.744   1.665
    1MUSC O03JK19912   6.045   0.614   3.036
    1MUSC O03JL19913   6.396   0.744   2.032
    1MUSC O03JM19914   6.327   0.614   2.669
    1MUSC O03JN19915   6.137   0.781   2.013
    1MUSC O03JO19916   6.066   0.577   2.688
    1MUSC O03JP19917   6.418   0.781   1.685
    1MUSC O03JQ19918   6.306   0.577   3.016
    1MUSC O03JR19919   6.037   0.537   2.013
    1MUSC O03JS19920   6.166   0.821   2.688
    1MUSC O03JT19921   6.518   0.537   1.684
    1MUSC O03JU19922   6.206   0.821   3.017
    1MUSC O03JV19923   6.299   0.853   1.454
    1MUSC O03JW19924   5.904   0.505   3.247
    1MUSC O03JX19925   6.256   0.853   2.243
    1MUSC O03JY19926   6.467   0.505   2.458
    1MUSC O03JZ19927   6.303   0.222   2.243
    1MUSC O03Ja19928   6.420   0.230   2.458
    1MUSC O03Jb19929   6.251   0.222   1.454
    1MUSC O03Jc19930   5.952   0.230   3.247
    1MUSC O03Jd19931   6.559   0.042   1.446
    1MUSC O03Je19932   6.165   0.410   3.255
    1MUSC O03Jf19933   5.996   0.042   2.252
    1MUSC O03Jg19934   6.207   0.410   2.449
    1MUSC O03Jh19935   6.419   0.291   1.665
    1MUSC O03Ji19936   6.305   0.162   3.036
    1MUSC O03Jj19937   6.136   0.291   2.032
    1MUSC O03Jk19938   6.067   0.162   2.669
    1MUSC O03Jl19939   6.397   0.328   2.013
    1MUSC O03Jm19940   6.326   0.125   2.688
    1MUSC O03Jn19941   6.157   0.328   1.685
    1MUSC O03Jo19942   6.046   0.125   3.016
    1MUSC O03Jp19943   6.297   0.084   2.013
    1MUSC O03Jq19944   6.426   0.368   2.688
    1MUSC O03Jr19945   6.257   0.084   1.684
    1MUSC O03Js19946   5.946   0.368   3.017
    1MUSC O03Jt19947   6.559   0.400   1.454
    1MUSC O03Ju19948   6.165   0.052   3.247
    1MUSC O03Jv19949   5.996   0.400   2.243
    1MUSC O03Jw19950   6.207   0.052   2.458
    1MUSC K00Ct19951   6.109   1.720   0.845
    1MUSC K00Cu19952   6.369   1.268   0.845
    1MUSC Al0YL19953   6.288   1.432   0.343
    1MUSC Al0YM19954   6.281   1.737   0.344
    1MUSC Al0YN19955   6.633   1.432   3.355
    1MUSC Al0YO19956   6.456   1.737   1.346
    1MUSC Al0YP19957   6.548   0.979   0.343
    1MUSC Al0YQ19958   6.541   1.284   0.344
    1MUSC Al0YR19959   6.373   0.979   3.355
    1MUSC Al0YS19960   6.196   1.284   1.346
    1MUSC Si16f19961   6.463   1.747   3.621
    1MUSC Si16g19962   6.106   1.422   1.080
    1MUSC Si16h19963   6.457   1.747   0.077
    1MUSC Si16i19964   6.632   1.422   0.610
    1MUSC Si16j19965   6.204   1.591   0.077
    1MUSC Si16k19966   6.365   1.577   0.610
    1MUSC Si16l19967   6.717   1.591   3.620
    1MUSC Si16m19968   6.373   1.577   1.081
    1MUSC Si16n19969   6.724   1.294   3.621
    1MUSC Si16o19970   6.366   0.969   1.080
    1MUSC Si16p19971   6.197   1.294   0.077
    1MUSC Si16q19972   6.372   0.969   0.610
    1MUSC Si16r19973   6.464   1.139   0.077
    1MUSC Si16s19974   6.625   1.124   0.610
    1MUSC Si16t19975   6.456   1.139   3.620
    1MUSC Si16u19976   6.113   1.124   1.081
    1MUSC O03Jx19977   6.226   1.580   0.236
    1MUSC O03Jy19978   6.343   1.588   0.451
    1MUSC O03Jz19979   6.695   1.580   3.461
    1MUSC O03K019980   6.395   1.588   1.240
    1MUSC O03K119981   6.482   1.400   3.453
    1MUSC O03K219982   6.087   1.768   1.248
    1MUSC O03K319983   6.439   1.400   0.245
    1MUSC O03K419984   6.650   1.768   0.442
    1MUSC O03K519985   6.341   1.649   3.672
    1MUSC O03K619986   6.228   1.520   1.029
    1MUSC O03K719987   6.579   1.649   0.025
    1MUSC O03K819988   6.510   1.520   0.662
    1MUSC O03K919989   6.320   1.686   0.006
    1MUSC O03KA19990   6.249   1.483   0.681
    1MUSC O03KB19991   6.601   1.686   3.692
    1MUSC O03KC19992   6.489   1.483   1.009
    1MUSC O03KD19993   6.220   1.442   0.006
    1MUSC O03KE19994   6.349   1.726   0.681
    1MUSC O03KF19995   6.701   1.442   3.691
    1MUSC O03KG19996   6.389   1.726   1.010
    1MUSC O03KH19997   6.482   1.758   3.461
    1MUSC O03KI19998   6.087   1.410   1.240
    1MUSC O03KJ19999   6.439   1.758   0.236
    1MUSC O03KK20000   6.650   1.410   0.451
    1MUSC O03KL20001   6.486   1.127   0.236
    1MUSC O03KM20002   6.603   1.136   0.451
    1MUSC O03KN20003   6.434   1.127   3.461
    1MUSC O03KO20004   6.135   1.136   1.240
    1MUSC O03KP20005   6.742   0.948   3.453
    1MUSC O03KQ20006   6.348   1.316   1.248
    1MUSC O03KR20007   6.179   0.948   0.245
    1MUSC O03KS20008   6.390   1.316   0.442
    1MUSC O03KT20009   6.602   1.196   3.672
    1MUSC O03KU20010   6.488   1.067   1.029
    1MUSC O03KV20011   6.319   1.196   0.025
    1MUSC O03KW20012   6.250   1.067   0.662
    1MUSC O03KX20013   6.580   1.233   0.006
    1MUSC O03KY20014   6.509   1.030   0.681
    1MUSC O03KZ20015   6.340   1.233   3.692
    1MUSC O03Ka20016   6.229   1.030   1.009
    1MUSC O03Kb20017   6.480   0.990   0.006
    1MUSC O03Kc20018   6.609   1.274   0.681
    1MUSC O03Kd20019   6.440   0.990   3.691
    1MUSC O03Ke20020   6.129   1.274   1.010
    1MUSC O03Kf20021   6.742   1.306   3.461
    1MUSC O03Kg20022   6.348   0.958   1.240
    1MUSC O03Kh20023   6.179   1.306   0.236
    1MUSC O03Ki20024   6.390   0.958   0.451
    1MUSC K00Cv20025   6.277   1.448   1.849
    1MUSC K00Cw20026   5.926   1.720   2.852
    1MUSC K00Cx20027   6.017   0.996   1.849
    1MUSC K00Cy20028   6.186   1.268   2.852
    1MUSC Al0YT20029   6.105   1.432   2.350
    1MUSC Al0YU20030   6.098   1.737   2.351
    1MUSC Al0YV20031   6.450   1.432   1.348
    1MUSC Al0YW20032   6.273   1.737   3.353
    1MUSC Al0YX20033   6.365   0.979   2.350
    1MUSC Al0YY20034   6.358   1.284   2.351
    1MUSC Al0YZ20035   6.190   0.979   1.348
    1MUSC Al0Ya20036   6.013   1.284   3.353
    1MUSC Si16v20037   6.280   1.747   1.614
    1MUSC Si16w20038   5.923   1.422   3.087
    1MUSC Si16x20039   6.274   1.747   2.084
    1MUSC Si16y20040   6.449   1.422   2.617
    1MUSC Si16z20041   6.021   1.591   2.084
    1MUSC Si17020042   6.182   1.577   2.617
    1MUSC Si17120043   6.534   1.591   1.613
    1MUSC Si17220044   6.190   1.577   3.088
    1MUSC Si17320045   6.541   1.294   1.614
    1MUSC Si17420046   6.183   0.969   3.087
    1MUSC Si17520047   6.014   1.294   2.084
    1MUSC Si17620048   6.189   0.969   2.617
    1MUSC Si17720049   6.281   1.139   2.084
    1MUSC Si17820050   6.442   1.124   2.617
    1MUSC Si17920051   6.273   1.139   1.613
    1MUSC Si17A20052   5.930   1.124   3.088
    1MUSC O03Kj20053   6.043   1.580   2.243
    1MUSC O03Kk20054   6.160   1.588   2.458
    1MUSC O03Kl20055   6.512   1.580   1.454
    1MUSC O03Km20056   6.212   1.588   3.247
    1MUSC O03Kn20057   6.299   1.400   1.446
    1MUSC O03Ko20058   5.904   1.768   3.255
    1MUSC O03Kp20059   6.256   1.400   2.252
    1MUSC O03Kq20060   6.467   1.768   2.449
    1MUSC O03Kr20061   6.158   1.649   1.665
    1MUSC O03Ks20062   6.045   1.520   3.036
    1MUSC O03Kt20063   6.396   1.649   2.032
    1MUSC O03Ku20064   6.327   1.520   2.669
    1MUSC O03Kv20065   6.137   1.686   2.013
    1MUSC O03Kw20066   6.066   1.483   2.688
    1MUSC O03Kx20067   6.418   1.686   1.685
    1MUSC O03Ky20068   6.306   1.483   3.016
    1MUSC O03Kz20069   6.037   1.442   2.013
    1MUSC O03L020070   6.166   1.726   2.688
    1MUSC O03L120071   6.518   1.442   1.684
    1MUSC O03L220072   6.206   1.726   3.017
    1MUSC O03L320073   6.299   1.758   1.454
    1MUSC O03L420074   5.904   1.410   3.247
    1MUSC O03L520075   6.256   1.758   2.243
    1MUSC O03L620076   6.467   1.410   2.458
    1MUSC O03L720077   6.303   1.127   2.243
    1MUSC O03L820078   6.420   1.136   2.458
    1MUSC O03L920079   6.251   1.127   1.454
    1MUSC O03LA20080   5.952   1.136   3.247
    1MUSC O03LB20081   6.559   0.948   1.446
    1MUSC O03LC20082   6.165   1.316   3.255
    1MUSC O03LD20083   5.996   0.948   2.252
    1MUSC O03LE20084   6.207   1.316   2.449
    1MUSC O03LF20085   6.419   1.196   1.665
    1MUSC O03LG20086   6.305   1.067   3.036
    1MUSC O03LH20087   6.136   1.196   2.032
    1MUSC O03LI20088   6.067   1.067   2.669
    1MUSC O03LJ20089   6.397   1.233   2.013
    1MUSC O03LK20090   6.326   1.030   2.688
    1MUSC O03LL20091   6.157   1.233   1.685
    1MUSC O03LM20092   6.046   1.030   3.016
    1MUSC O03LN20093   6.297   0.990   2.013
    1MUSC O03LO20094   6.426   1.274   2.688
    1MUSC O03LP20095   6.257   0.990   1.684
    1MUSC O03LQ20096   5.946   1.274   3.017
    1MUSC O03LR20097   6.559   1.306   1.454
    1MUSC O03LS20098   6.165   0.958   3.247
    1MUSC O03LT20099   5.996   1.306   2.243
    1MUSC O03LU20100   6.207   0.958   2.458
    1MUSC K00Cz20101   6.109   2.626   0.845
    1MUSC K00D020102   6.369   2.173   0.845
    1MUSC Al0Yb20103   6.288   2.337   0.343
    1MUSC Al0Yc20104   6.281   2.642   0.344
    1MUSC Al0Yd20105   6.633   2.337   3.355
    1MUSC Al0Ye20106   6.456   2.642   1.346
    1MUSC Al0Yf20107   6.548   1.884   0.343
    1MUSC Al0Yg20108   6.541   2.189   0.344
    1MUSC Al0Yh20109   6.373   1.884   3.355
    1MUSC Al0Yi20110   6.196   2.189   1.346
    1MUSC Si17B20111   6.463   2.652   3.621
    1MUSC Si17C20112   6.106   2.327   1.080
    1MUSC Si17D20113   6.457   2.652   0.077
    1MUSC Si17E20114   6.632   2.327   0.610
    1MUSC Si17F20115   6.204   2.497   0.077
    1MUSC Si17G20116   6.365   2.482   0.610
    1MUSC Si17H20117   6.717   2.497   3.620
    1MUSC Si17I20118   6.373   2.482   1.081
    1MUSC Si17J20119   6.724   2.199   3.621
    1MUSC Si17K20120   6.366   1.874   1.080
    1MUSC Si17L20121   6.197   2.199   0.077
    1MUSC Si17M20122   6.372   1.874   0.610
    1MUSC Si17N20123   6.464   2.044   0.077
    1MUSC Si17O20124   6.625   2.030   0.610
    1MUSC Si17P20125   6.456   2.044   3.620
    1MUSC Si17Q20126   6.113   2.030   1.081
    1MUSC O03LV20127   6.226   2.485   0.236
    1MUSC O03LW20128   6.343   2.494   0.451
    1MUSC O03LX20129   6.695   2.485   3.461
    1MUSC O03LY20130   6.395   2.494   1.240
    1MUSC O03LZ20131   6.482   2.305   3.453
    1MUSC O03La20132   6.087   2.674   1.248
    1MUSC O03Lb20133   6.439   2.305   0.245
    1MUSC O03Lc20134   6.650   2.674   0.442
    1MUSC O03Ld20135   6.341   2.554   3.672
    1MUSC O03Le20136   6.228   2.425   1.029
    1MUSC O03Lf20137   6.579   2.554   0.025
    1MUSC O03Lg20138   6.510   2.425   0.662
    1MUSC O03Lh20139   6.320   2.591   0.006
    1MUSC O03Li20140   6.249   2.388   0.681
    1MUSC O03Lj20141   6.601   2.591   3.692
    1MUSC O03Lk20142   6.489   2.388   1.009
    1MUSC O03Ll20143   6.220   2.347   0.006
    1MUSC O03Lm20144   6.349   2.632   0.681
    1MUSC O03Ln20145   6.701   2.347   3.691
    1MUSC O03Lo20146   6.389   2.632   1.010
    1MUSC O03Lp20147   6.482   2.663   3.461
    1MUSC O03Lq20148   6.087   2.316   1.240
    1MUSC O03Lr20149   6.439   2.663   0.236
    1MUSC O03Ls20150   6.650   2.316   0.451
    1MUSC O03Lt20151   6.486   2.033   0.236
    1MUSC O03Lu20152   6.603   2.041   0.451
    1MUSC O03Lv20153   6.434   2.033   3.461
    1MUSC O03Lw20154   6.135   2.041   1.240
    1MUSC O03Lx20155   6.742   1.853   3.453
    1MUSC O03Ly20156   6.348   2.221   1.248
    1MUSC O03Lz20157   6.179   1.853   0.245
    1MUSC O03M020158   6.390   2.221   0.442
    1MUSC O03M120159   6.602   2.101   3.672
    1MUSC O03M220160   6.488   1.972   1.029
    1MUSC O03M320161   6.319   2.101   0.025
    1MUSC O03M420162   6.250   1.972   0.662
    1MUSC O03M520163   6.580   2.139   0.006
    1MUSC O03M620164   6.509   1.935   0.681
    1MUSC O03M720165   6.340   2.139   3.692
    1MUSC O03M820166   6.229   1.935   1.009
    1MUSC O03M920167   6.480   1.895   0.006
    1MUSC O03MA20168   6.609   2.179   0.681
    1MUSC O03MB20169   6.440   1.895   3.691
    1MUSC O03MC20170   6.129   2.179   1.010
    1MUSC O03MD20171   6.742   2.211   3.461
    1MUSC O03ME20172   6.348   1.863   1.240
    1MUSC O03MF20173   6.179   2.211   0.236
    1MUSC O03MG20174   6.390   1.863   0.451
    1MUSC K00D120175   6.277   2.353   1.849
    1MUSC K00D220176   5.926   2.626   2.852
    1MUSC K00D320177   6.017   1.901   1.849
    1MUSC K00D420178   6.186   2.173   2.852
    1MUSC Al0Yj20179   6.105   2.337   2.350
    1MUSC Al0Yk20180   6.098   2.642   2.351
    1MUSC Al0Yl20181   6.450   2.337   1.348
    1MUSC Al0Ym20182   6.273   2.642   3.353
    1MUSC Al0Yn20183   6.365   1.884   2.350
    1MUSC Al0Yo20184   6.358   2.189   2.351
    1MUSC Al0Yp20185   6.190   1.884   1.348
    1MUSC Al0Yq20186   6.013   2.189   3.353
    1MUSC Si17R20187   6.280   2.652   1.614
    1MUSC Si17S20188   5.923   2.327   3.087
    1MUSC Si17T20189   6.274   2.652   2.084
    1MUSC Si17U20190   6.449   2.327   2.617
    1MUSC Si17V20191   6.021   2.497   2.084
    1MUSC Si17W20192   6.182   2.482   2.617
    1MUSC Si17X20193   6.534   2.497   1.613
    1MUSC Si17Y20194   6.190   2.482   3.088
    1MUSC Si17Z20195   6.541   2.199   1.614
    1MUSC Si17a20196   6.183   1.874   3.087
    1MUSC Si17b20197   6.014   2.199   2.084
    1MUSC Si17c20198   6.189   1.874   2.617
    1MUSC Si17d20199   6.281   2.044   2.084
    1MUSC Si17e20200   6.442   2.030   2.617
    1MUSC Si17f20201   6.273   2.044   1.613
    1MUSC Si17g20202   5.930   2.030   3.088
    1MUSC O03MH20203   6.043   2.485   2.243
    1MUSC O03MI20204   6.160   2.494   2.458
    1MUSC O03MJ20205   6.512   2.485   1.454
    1MUSC O03MK20206   6.212   2.494   3.247
    1MUSC O03ML20207   6.299   2.305   1.446
    1MUSC O03MM20208   5.904   2.674   3.255
    1MUSC O03MN20209   6.256   2.305   2.252
    1MUSC O03MO20210   6.467   2.674   2.449
    1MUSC O03MP20211   6.158   2.554   1.665
    1MUSC O03MQ20212   6.045   2.425   3.036
    1MUSC O03MR20213   6.396   2.554   2.032
    1MUSC O03MS20214   6.327   2.425   2.669
    1MUSC O03MT20215   6.137   2.591   2.013
    1MUSC O03MU20216   6.066   2.388   2.688
    1MUSC O03MV20217   6.418   2.591   1.685
    1MUSC O03MW20218   6.306   2.388   3.016
    1MUSC O03MX20219   6.037   2.347   2.013
    1MUSC O03MY20220   6.166   2.632   2.688
    1MUSC O03MZ20221   6.518   2.347   1.684
    1MUSC O03Ma20222   6.206   2.632   3.017
    1MUSC O03Mb20223   6.299   2.663   1.454
    1MUSC O03Mc20224   5.904   2.316   3.247
    1MUSC O03Md20225   6.256   2.663   2.243
    1MUSC O03Me20226   6.467   2.316   2.458
    1MUSC O03Mf20227   6.303   2.033   2.243
    1MUSC O03Mg20228   6.420   2.041   2.458
    1MUSC O03Mh20229   6.251   2.033   1.454
    1MUSC O03Mi20230   5.952   2.041   3.247
    1MUSC O03Mj20231   6.559   1.853   1.446
    1MUSC O03Mk20232   6.165   2.221   3.255
    1MUSC O03Ml20233   5.996   1.853   2.252
    1MUSC O03Mm20234   6.207   2.221   2.449
    1MUSC O03Mn20235   6.419   2.101   1.665
    1MUSC O03Mo20236   6.305   1.972   3.036
    1MUSC O03Mp20237   6.136   2.101   2.032
    1MUSC O03Mq20238   6.067   1.972   2.669
    1MUSC O03Mr20239   6.397   2.139   2.013
    1MUSC O03Ms20240   6.326   1.935   2.688
    1MUSC O03Mt20241   6.157   2.139   1.685
    1MUSC O03Mu20242   6.046   1.935   3.016
    1MUSC O03Mv20243   6.297   1.895   2.013
    1MUSC O03Mw20244   6.426   2.179   2.688
    1MUSC O03Mx20245   6.257   1.895   1.684
    1MUSC O03My20246   5.946   2.179   3.017
    1MUSC O03Mz20247   6.559   2.211   1.454
    1MUSC O03N020248   6.165   1.863   3.247
    1MUSC O03N120249   5.996   2.211   2.243
    1MUSC O03N220250   6.207   1.863   2.458
    1MUSC K00D520251   6.109   3.531   0.845
    1MUSC K00D620252   6.369   3.078   0.845
    1MUSC Al0Yr20253   6.288   3.242   0.343
    1MUSC Al0Ys20254   6.281   3.547   0.344
    1MUSC Al0Yt20255   6.633   3.242   3.355
    1MUSC Al0Yu20256   6.456   3.547   1.346
    1MUSC Al0Yv20257   6.548   2.790   0.343
    1MUSC Al0Yw20258   6.541   3.095   0.344
    1MUSC Al0Yx20259   6.373   2.790   3.355
    1MUSC Al0Yy20260   6.196   3.095   1.346
    1MUSC Si17h20261   6.463   3.557   3.621
    1MUSC Si17i20262   6.106   3.232   1.080
    1MUSC Si17j20263   6.457   3.557   0.077
    1MUSC Si17k20264   6.632   3.232   0.610
    1MUSC Si17l20265   6.204   3.402   0.077
    1MUSC Si17m20266   6.365   3.388   0.610
    1MUSC Si17n20267   6.717   3.402   3.620
    1MUSC Si17o20268   6.373   3.388   1.081
    1MUSC Si17p20269   6.724   3.105   3.621
    1MUSC Si17q20270   6.366   2.780   1.080
    1MUSC Si17r20271   6.197   3.105   0.077
    1MUSC Si17s20272   6.372   2.780   0.610
    1MUSC Si17t20273   6.464   2.949   0.077
    1MUSC Si17u20274   6.625   2.935   0.610
    1MUSC Si17v20275   6.456   2.949   3.620
    1MUSC Si17w20276   6.113   2.935   1.081
    1MUSC O03N320277   6.226   3.391   0.236
    1MUSC O03N420278   6.343   3.399   0.451
    1MUSC O03N520279   6.695   3.391   3.461
    1MUSC O03N620280   6.395   3.399   1.240
    1MUSC O03N720281   6.482   3.211   3.453
    1MUSC O03N820282   6.087   3.579   1.248
    1MUSC O03N920283   6.439   3.211   0.245
    1MUSC O03NA20284   6.650   3.579   0.442
    1MUSC O03NB20285   6.341   3.459   3.672
    1MUSC O03NC20286   6.228   3.330   1.029
    1MUSC O03ND20287   6.579   3.459   0.025
    1MUSC O03NE20288   6.510   3.330   0.662
    1MUSC O03NF20289   6.320   3.496   0.006
    1MUSC O03NG20290   6.249   3.293   0.681
    1MUSC O03NH20291   6.601   3.496   3.692
    1MUSC O03NI20292   6.489   3.293   1.009
    1MUSC O03NJ20293   6.220   3.253   0.006
    1MUSC O03NK20294   6.349   3.537   0.681
    1MUSC O03NL20295   6.701   3.253   3.691
    1MUSC O03NM20296   6.389   3.537   1.010
    1MUSC O03NN20297   6.482   3.569   3.461
    1MUSC O03NO20298   6.087   3.221   1.240
    1MUSC O03NP20299   6.439   3.569   0.236
    1MUSC O03NQ20300   6.650   3.221   0.451
    1MUSC O03NR20301   6.486   2.938   0.236
    1MUSC O03NS20302   6.603   2.946   0.451
    1MUSC O03NT20303   6.434   2.938   3.461
    1MUSC O03NU20304   6.135   2.946   1.240
    1MUSC O03NV20305   6.742   2.758   3.453
    1MUSC O03NW20306   6.348   3.126   1.248
    1MUSC O03NX20307   6.179   2.758   0.245
    1MUSC O03NY20308   6.390   3.126   0.442
    1MUSC O03NZ20309   6.602   3.007   3.672
    1MUSC O03Na20310   6.488   2.877   1.029
    1MUSC O03Nb20311   6.319   3.007   0.025
    1MUSC O03Nc20312   6.250   2.877   0.662
    1MUSC O03Nd20313   6.580   3.044   0.006
    1MUSC O03Ne20314   6.509   2.840   0.681
    1MUSC O03Nf20315   6.340   3.044   3.692
    1MUSC O03Ng20316   6.229   2.840   1.009
    1MUSC O03Nh20317   6.480   2.800   0.006
    1MUSC O03Ni20318   6.609   3.084   0.681
    1MUSC O03Nj20319   6.440   2.800   3.691
    1MUSC O03Nk20320   6.129   3.084   1.010
    1MUSC O03Nl20321   6.742   3.116   3.461
    1MUSC O03Nm20322   6.348   2.768   1.240
    1MUSC O03Nn20323   6.179   3.116   0.236
    1MUSC O03No20324   6.390   2.768   0.451
    1MUSC K00D720325   6.277   3.259   1.849
    1MUSC K00D820326   5.926   3.531   2.852
    1MUSC K00D920327   6.017   2.806   1.849
    1MUSC K00DA20328   6.186   3.078   2.852
    1MUSC Al0Yz20329   6.105   3.242   2.350
    1MUSC Al0Z020330   6.098   3.547   2.351
    1MUSC Al0Z120331   6.450   3.242   1.348
    1MUSC Al0Z220332   6.273   3.547   3.353
    1MUSC Al0Z320333   6.365   2.790   2.350
    1MUSC Al0Z420334   6.358   3.095   2.351
    1MUSC Al0Z520335   6.190   2.790   1.348
    1MUSC Al0Z620336   6.013   3.095   3.353
    1MUSC Si17x20337   6.280   3.557   1.614
    1MUSC Si17y20338   5.923   3.232   3.087
    1MUSC Si17z20339   6.274   3.557   2.084
    1MUSC Si18020340   6.449   3.232   2.617
    1MUSC Si18120341   6.021   3.402   2.084
    1MUSC Si18220342   6.182   3.388   2.617
    1MUSC Si18320343   6.534   3.402   1.613
    1MUSC Si18420344   6.190   3.388   3.088
    1MUSC Si18520345   6.541   3.105   1.614
    1MUSC Si18620346   6.183   2.780   3.087
    1MUSC Si18720347   6.014   3.105   2.084
    1MUSC Si18820348   6.189   2.780   2.617
    1MUSC Si18920349   6.281   2.949   2.084
    1MUSC Si18A20350   6.442   2.935   2.617
    1MUSC Si18B20351   6.273   2.949   1.613
    1MUSC Si18C20352   5.930   2.935   3.088
    1MUSC O03Np20353   6.043   3.391   2.243
    1MUSC O03Nq20354   6.160   3.399   2.458
    1MUSC O03Nr20355   6.512   3.391   1.454
    1MUSC O03Ns20356   6.212   3.399   3.247
    1MUSC O03Nt20357   6.299   3.211   1.446
    1MUSC O03Nu20358   5.904   3.579   3.255
    1MUSC O03Nv20359   6.256   3.211   2.252
    1MUSC O03Nw20360   6.467   3.579   2.449
    1MUSC O03Nx20361   6.158   3.459   1.665
    1MUSC O03Ny20362   6.045   3.330   3.036
    1MUSC O03Nz20363   6.396   3.459   2.032
    1MUSC O03O020364   6.327   3.330   2.669
    1MUSC O03O120365   6.137   3.496   2.013
    1MUSC O03O220366   6.066   3.293   2.688
    1MUSC O03O320367   6.418   3.496   1.685
    1MUSC O03O420368   6.306   3.293   3.016
    1MUSC O03O520369   6.037   3.253   2.013
    1MUSC O03O620370   6.166   3.537   2.688
    1MUSC O03O720371   6.518   3.253   1.684
    1MUSC O03O820372   6.206   3.537   3.017
    1MUSC O03O920373   6.299   3.569   1.454
    1MUSC O03OA20374   5.904   3.221   3.247
    1MUSC O03OB20375   6.256   3.569   2.243
    1MUSC O03OC20376   6.467   3.221   2.458
    1MUSC O03OD20377   6.303   2.938   2.243
    1MUSC O03OE20378   6.420   2.946   2.458
    1MUSC O03OF20379   6.251   2.938   1.454
    1MUSC O03OG20380   5.952   2.946   3.247
    1MUSC O03OH20381   6.559   2.758   1.446
    1MUSC O03OI20382   6.165   3.126   3.255
    1MUSC O03OJ20383   5.996   2.758   2.252
    1MUSC O03OK20384   6.207   3.126   2.449
    1MUSC O03OL20385   6.419   3.007   1.665
    1MUSC O03OM20386   6.305   2.877   3.036
    1MUSC O03ON20387   6.136   3.007   2.032
    1MUSC O03OO20388   6.067   2.877   2.669
    1MUSC O03OP20389   6.397   3.044   2.013
    1MUSC O03OQ20390   6.326   2.840   2.688
    1MUSC O03OR20391   6.157   3.044   1.685
    1MUSC O03OS20392   6.046   2.840   3.016
    1MUSC O03OT20393   6.297   2.800   2.013
    1MUSC O03OU20394   6.426   3.084   2.688
    1MUSC O03OV20395   6.257   2.800   1.684
    1MUSC O03OW20396   5.946   3.084   3.017
    1MUSC O03OX20397   6.559   3.116   1.454
    1MUSC O03OY20398   6.165   2.768   3.247
    1MUSC O03OZ20399   5.996   3.116   2.243
    1MUSC O03Oa20400   6.207   2.768   2.458
    1MUSC K00DB20401   6.109   4.436   0.845
    1MUSC K00DC20402   6.369   3.983   0.845
    1MUSC Al0Z720403   6.288   4.147   0.343
    1MUSC Al0Z820404   6.281   4.453   0.344
    1MUSC Al0Z920405   6.633   4.147   3.355
    1MUSC Al0ZA20406   6.456   4.453   1.346
    1MUSC Al0ZB20407   6.548   3.695   0.343
    1MUSC Al0ZC20408   6.541   4.000   0.344
    1MUSC Al0ZD20409   6.373   3.695   3.355
    1MUSC Al0ZE20410   6.196   4.000   1.346
    1MUSC Si18D20411   6.463   4.462   3.621
    1MUSC Si18E20412   6.106   4.138   1.080
    1MUSC Si18F20413   6.457   4.462   0.077
    1MUSC Si18G20414   6.632   4.138   0.610
    1MUSC Si18H20415   6.204   4.307   0.077
    1MUSC Si18I20416   6.365   4.293   0.610
    1MUSC Si18J20417   6.717   4.307   3.620
    1MUSC Si18K20418   6.373   4.293   1.081
    1MUSC Si18L20419   6.724   4.010   3.621
    1MUSC Si18M20420   6.366   3.685   1.080
    1MUSC Si18N20421   6.197   4.010   0.077
    1MUSC Si18O20422   6.372   3.685   0.610
    1MUSC Si18P20423   6.464   3.855   0.077
    1MUSC Si18Q20424   6.625   3.840   0.610
    1MUSC Si18R20425   6.456   3.855   3.620
    1MUSC Si18S20426   6.113   3.840   1.081
    1MUSC O03Ob20427   6.226   4.296   0.236
    1MUSC O03Oc20428   6.343   4.304   0.451
    1MUSC O03Od20429   6.695   4.296   3.461
    1MUSC O03Oe20430   6.395   4.304   1.240
    1MUSC O03Of20431   6.482   4.116   3.453
    1MUSC O03Og20432   6.087   4.484   1.248
    1MUSC O03Oh20433   6.439   4.116   0.245
    1MUSC O03Oi20434   6.650   4.484   0.442
    1MUSC O03Oj20435   6.341   4.365   3.672
    1MUSC O03Ok20436   6.228   4.235   1.029
    1MUSC O03Ol20437   6.579   4.365   0.025
    1MUSC O03Om20438   6.510   4.235   0.662
    1MUSC O03On20439   6.320   4.402   0.006
    1MUSC O03Oo20440   6.249   4.198   0.681
    1MUSC O03Op20441   6.601   4.402   3.692
    1MUSC O03Oq20442   6.489   4.198   1.009
    1MUSC O03Or20443   6.220   4.158   0.006
    1MUSC O03Os20444   6.349   4.442   0.681
    1MUSC O03Ot20445   6.701   4.158   3.691
    1MUSC O03Ou20446   6.389   4.442   1.010
    1MUSC O03Ov20447   6.482   4.474   3.461
    1MUSC O03Ow20448   6.087   4.126   1.240
    1MUSC O03Ox20449   6.439   4.474   0.236
    1MUSC O03Oy20450   6.650   4.126   0.451
    1MUSC O03Oz20451   6.486   3.843   0.236
    1MUSC O03P020452   6.603   3.852   0.451
    1MUSC O03P120453   6.434   3.843   3.461
    1MUSC O03P220454   6.135   3.852   1.240
    1MUSC O03P320455   6.742   3.663   3.453
    1MUSC O03P420456   6.348   4.031   1.248
    1MUSC O03P520457   6.179   3.663   0.245
    1MUSC O03P620458   6.390   4.031   0.442
    1MUSC O03P720459   6.602   3.912   3.672
    1MUSC O03P820460   6.488   3.783   1.029
    1MUSC O03P920461   6.319   3.912   0.025
    1MUSC O03PA20462   6.250   3.783   0.662
    1MUSC O03PB20463   6.580   3.949   0.006
    1MUSC O03PC20464   6.509   3.746   0.681
    1MUSC O03PD20465   6.340   3.949   3.692
    1MUSC O03PE20466   6.229   3.746   1.009
    1MUSC O03PF20467   6.480   3.705   0.006
    1MUSC O03PG20468   6.609   3.989   0.681
    1MUSC O03PH20469   6.440   3.705   3.691
    1MUSC O03PI20470   6.129   3.989   1.010
    1MUSC O03PJ20471   6.742   4.021   3.461
    1MUSC O03PK20472   6.348   3.673   1.240
    1MUSC O03PL20473   6.179   4.021   0.236
    1MUSC O03PM20474   6.390   3.673   0.451
    1MUSC K00DD20475   6.277   4.164   1.849
    1MUSC K00DE20476   5.926   4.436   2.852
    1MUSC K00DF20477   6.017   3.711   1.849
    1MUSC K00DG20478   6.186   3.983   2.852
    1MUSC Al0ZF20479   6.105   4.147   2.350
    1MUSC Al0ZG20480   6.098   4.453   2.351
    1MUSC Al0ZH20481   6.450   4.147   1.348
    1MUSC Al0ZI20482   6.273   4.453   3.353
    1MUSC Al0ZJ20483   6.365   3.695   2.350
    1MUSC Al0ZK20484   6.358   4.000   2.351
    1MUSC Al0ZL20485   6.190   3.695   1.348
    1MUSC Al0ZM20486   6.013   4.000   3.353
    1MUSC Si18T20487   6.280   4.462   1.614
    1MUSC Si18U20488   5.923   4.138   3.087
    1MUSC Si18V20489   6.274   4.462   2.084
    1MUSC Si18W20490   6.449   4.138   2.617
    1MUSC Si18X20491   6.021   4.307   2.084
    1MUSC Si18Y20492   6.182   4.293   2.617
    1MUSC Si18Z20493   6.534   4.307   1.613
    1MUSC Si18a20494   6.190   4.293   3.088
    1MUSC Si18b20495   6.541   4.010   1.614
    1MUSC Si18c20496   6.183   3.685   3.087
    1MUSC Si18d20497   6.014   4.010   2.084
    1MUSC Si18e20498   6.189   3.685   2.617
    1MUSC Si18f20499   6.281   3.855   2.084
    1MUSC Si18g20500   6.442   3.840   2.617
    1MUSC Si18h20501   6.273   3.855   1.613
    1MUSC Si18i20502   5.930   3.840   3.088
    1MUSC O03PN20503   6.043   4.296   2.243
    1MUSC O03PO20504   6.160   4.304   2.458
    1MUSC O03PP20505   6.512   4.296   1.454
    1MUSC O03PQ20506   6.212   4.304   3.247
    1MUSC O03PR20507   6.299   4.116   1.446
    1MUSC O03PS20508   5.904   4.484   3.255
    1MUSC O03PT20509   6.256   4.116   2.252
    1MUSC O03PU20510   6.467   4.484   2.449
    1MUSC O03PV20511   6.158   4.365   1.665
    1MUSC O03PW20512   6.045   4.235   3.036
    1MUSC O03PX20513   6.396   4.365   2.032
    1MUSC O03PY20514   6.327   4.235   2.669
    1MUSC O03PZ20515   6.137   4.402   2.013
    1MUSC O03Pa20516   6.066   4.198   2.688
    1MUSC O03Pb20517   6.418   4.402   1.685
    1MUSC O03Pc20518   6.306   4.198   3.016
    1MUSC O03Pd20519   6.037   4.158   2.013
    1MUSC O03Pe20520   6.166   4.442   2.688
    1MUSC O03Pf20521   6.518   4.158   1.684
    1MUSC O03Pg20522   6.206   4.442   3.017
    1MUSC O03Ph20523   6.299   4.474   1.454
    1MUSC O03Pi20524   5.904   4.126   3.247
    1MUSC O03Pj20525   6.256   4.474   2.243
    1MUSC O03Pk20526   6.467   4.126   2.458
    1MUSC O03Pl20527   6.303   3.843   2.243
    1MUSC O03Pm20528   6.420   3.852   2.458
    1MUSC O03Pn20529   6.251   3.843   1.454
    1MUSC O03Po20530   5.952   3.852   3.247
    1MUSC O03Pp20531   6.559   3.663   1.446
    1MUSC O03Pq20532   6.165   4.031   3.255
    1MUSC O03Pr20533   5.996   3.663   2.252
    1MUSC O03Ps20534   6.207   4.031   2.449
    1MUSC O03Pt20535   6.419   3.912   1.665
    1MUSC O03Pu20536   6.305   3.783   3.036
    1MUSC O03Pv20537   6.136   3.912   2.032
    1MUSC O03Pw20538   6.067   3.783   2.669
    1MUSC O03Px20539   6.397   3.949   2.013
    1MUSC O03Py20540   6.326   3.746   2.688
    1MUSC O03Pz20541   6.157   3.949   1.685
    1MUSC O03Q020542   6.046   3.746   3.016
    1MUSC O03Q120543   6.297   3.705   2.013
    1MUSC O03Q220544   6.426   3.989   2.688
    1MUSC O03Q320545   6.257   3.705   1.684
    1MUSC O03Q420546   5.946   3.989   3.017
    1MUSC O03Q520547   6.559   4.021   1.454
    1MUSC O03Q620548   6.165   3.673   3.247
    1MUSC O03Q720549   5.996   4.021   2.243
    1MUSC O03Q820550   6.207   3.673   2.458
    1MUSC K00DH20551   6.109   5.341   0.845
    1MUSC K00DI20552   6.369   4.889   0.845
    1MUSC Al0ZN20553   6.288   5.053   0.343
    1MUSC Al0ZO20554   6.281   5.358   0.344
    1MUSC Al0ZP20555   6.633   5.053   3.355
    1MUSC Al0ZQ20556   6.456   5.358   1.346
    1MUSC Al0ZR20557   6.548   4.600   0.343
    1MUSC Al0ZS20558   6.541   4.905   0.344
    1MUSC Al0ZT20559   6.373   4.600   3.355
    1MUSC Al0ZU20560   6.196   4.905   1.346
    1MUSC Si18j20561   6.463   5.368   3.621
    1MUSC Si18k20562   6.106   5.043   1.080
    1MUSC Si18l20563   6.457   5.368   0.077
    1MUSC Si18m20564   6.632   5.043   0.610
    1MUSC Si18n20565   6.204   5.212   0.077
    1MUSC Si18o20566   6.365   5.198   0.610
    1MUSC Si18p20567   6.717   5.212   3.620
    1MUSC Si18q20568   6.373   5.198   1.081
    1MUSC Si18r20569   6.724   4.915   3.621
    1MUSC Si18s20570   6.366   4.590   1.080
    1MUSC Si18t20571   6.197   4.915   0.077
    1MUSC Si18u20572   6.372   4.590   0.610
    1MUSC Si18v20573   6.464   4.760   0.077
    1MUSC Si18w20574   6.625   4.746   0.610
    1MUSC Si18x20575   6.456   4.760   3.620
    1MUSC Si18y20576   6.113   4.746   1.081
    1MUSC O03Q920577   6.226   5.201   0.236
    1MUSC O03QA20578   6.343   5.209   0.451
    1MUSC O03QB20579   6.695   5.201   3.461
    1MUSC O03QC20580   6.395   5.209   1.240
    1MUSC O03QD20581   6.482   5.021   3.453
    1MUSC O03QE20582   6.087   5.389   1.248
    1MUSC O03QF20583   6.439   5.021   0.245
    1MUSC O03QG20584   6.650   5.389   0.442
    1MUSC O03QH20585   6.341   5.270   3.672
    1MUSC O03QI20586   6.228   5.141   1.029
    1MUSC O03QJ20587   6.579   5.270   0.025
    1MUSC O03QK20588   6.510   5.141   0.662
    1MUSC O03QL20589   6.320   5.307   0.006
    1MUSC O03QM20590   6.249   5.104   0.681
    1MUSC O03QN20591   6.601   5.307   3.692
    1MUSC O03QO20592   6.489   5.104   1.009
    1MUSC O03QP20593   6.220   5.063   0.006
    1MUSC O03QQ20594   6.349   5.347   0.681
    1MUSC O03QR20595   6.701   5.063   3.691
    1MUSC O03QS20596   6.389   5.347   1.010
    1MUSC O03QT20597   6.482   5.379   3.461
    1MUSC O03QU20598   6.087   5.031   1.240
    1MUSC O03QV20599   6.439   5.379   0.236
    1MUSC O03QW20600   6.650   5.031   0.451
    1MUSC O03QX20601   6.486   4.749   0.236
    1MUSC O03QY20602   6.603   4.757   0.451
    1MUSC O03QZ20603   6.434   4.749   3.461
    1MUSC O03Qa20604   6.135   4.757   1.240
    1MUSC O03Qb20605   6.742   4.569   3.453
    1MUSC O03Qc20606   6.348   4.937   1.248
    1MUSC O03Qd20607   6.179   4.569   0.245
    1MUSC O03Qe20608   6.390   4.937   0.442
    1MUSC O03Qf20609   6.602   4.817   3.672
    1MUSC O03Qg20610   6.488   4.688   1.029
    1MUSC O03Qh20611   6.319   4.817   0.025
    1MUSC O03Qi20612   6.250   4.688   0.662
    1MUSC O03Qj20613   6.580   4.854   0.006
    1MUSC O03Qk20614   6.509   4.651   0.681
    1MUSC O03Ql20615   6.340   4.854   3.692
    1MUSC O03Qm20616   6.229   4.651   1.009
    1MUSC O03Qn20617   6.480   4.611   0.006
    1MUSC O03Qo20618   6.609   4.895   0.681
    1MUSC O03Qp20619   6.440   4.611   3.691
    1MUSC O03Qq20620   6.129   4.895   1.010
    1MUSC O03Qr20621   6.742   4.927   3.461
    1MUSC O03Qs20622   6.348   4.579   1.240
    1MUSC O03Qt20623   6.179   4.927   0.236
    1MUSC O03Qu20624   6.390   4.579   0.451
    1MUSC K00DJ20625   6.277   5.069   1.849
    1MUSC K00DK20626   5.926   5.341   2.852
    1MUSC K00DL20627   6.017   4.617   1.849
    1MUSC K00DM20628   6.186   4.889   2.852
    1MUSC Al0ZV20629   6.105   5.053   2.350
    1MUSC Al0ZW20630   6.098   5.358   2.351
    1MUSC Al0ZX20631   6.450   5.053   1.348
    1MUSC Al0ZY20632   6.273   5.358   3.353
    1MUSC Al0ZZ20633   6.365   4.600   2.350
    1MUSC Al0Za20634   6.358   4.905   2.351
    1MUSC Al0Zb20635   6.190   4.600   1.348
    1MUSC Al0Zc20636   6.013   4.905   3.353
    1MUSC Si18z20637   6.280   5.368   1.614
    1MUSC Si19020638   5.923   5.043   3.087
    1MUSC Si19120639   6.274   5.368   2.084
    1MUSC Si19220640   6.449   5.043   2.617
    1MUSC Si19320641   6.021   5.212   2.084
    1MUSC Si19420642   6.182   5.198   2.617
    1MUSC Si19520643   6.534   5.212   1.613
    1MUSC Si19620644   6.190   5.198   3.088
    1MUSC Si19720645   6.541   4.915   1.614
    1MUSC Si19820646   6.183   4.590   3.087
    1MUSC Si19920647   6.014   4.915   2.084
    1MUSC Si19A20648   6.189   4.590   2.617
    1MUSC Si19B20649   6.281   4.760   2.084
    1MUSC Si19C20650   6.442   4.746   2.617
    1MUSC Si19D20651   6.273   4.760   1.613
    1MUSC Si19E20652   5.930   4.746   3.088
    1MUSC O03Qv20653   6.043   5.201   2.243
    1MUSC O03Qw20654   6.160   5.209   2.458
    1MUSC O03Qx20655   6.512   5.201   1.454
    1MUSC O03Qy20656   6.212   5.209   3.247
    1MUSC O03Qz20657   6.299   5.021   1.446
    1MUSC O03R020658   5.904   5.389   3.255
    1MUSC O03R120659   6.256   5.021   2.252
    1MUSC O03R220660   6.467   5.389   2.449
    1MUSC O03R320661   6.158   5.270   1.665
    1MUSC O03R420662   6.045   5.141   3.036
    1MUSC O03R520663   6.396   5.270   2.032
    1MUSC O03R620664   6.327   5.141   2.669
    1MUSC O03R720665   6.137   5.307   2.013
    1MUSC O03R820666   6.066   5.104   2.688
    1MUSC O03R920667   6.418   5.307   1.685
    1MUSC O03RA20668   6.306   5.104   3.016
    1MUSC O03RB20669   6.037   5.063   2.013
    1MUSC O03RC20670   6.166   5.347   2.688
    1MUSC O03RD20671   6.518   5.063   1.684
    1MUSC O03RE20672   6.206   5.347   3.017
    1MUSC O03RF20673   6.299   5.379   1.454
    1MUSC O03RG20674   5.904   5.031   3.247
    1MUSC O03RH20675   6.256   5.379   2.243
    1MUSC O03RI20676   6.467   5.031   2.458
    1MUSC O03RJ20677   6.303   4.749   2.243
    1MUSC O03RK20678   6.420   4.757   2.458
    1MUSC O03RL20679   6.251   4.749   1.454
    1MUSC O03RM20680   5.952   4.757   3.247
    1MUSC O03RN20681   6.559   4.569   1.446
    1MUSC O03RO20682   6.165   4.937   3.255
    1MUSC O03RP20683   5.996   4.569   2.252
    1MUSC O03RQ20684   6.207   4.937   2.449
    1MUSC O03RR20685   6.419   4.817   1.665
    1MUSC O03RS20686   6.305   4.688   3.036
    1MUSC O03RT20687   6.136   4.817   2.032
    1MUSC O03RU20688   6.067   4.688   2.669
    1MUSC O03RV20689   6.397   4.854   2.013
    1MUSC O03RW20690   6.326   4.651   2.688
    1MUSC O03RX20691   6.157   4.854   1.685
    1MUSC O03RY20692   6.046   4.651   3.016
    1MUSC O03RZ20693   6.297   4.611   2.013
    1MUSC O03Ra20694   6.426   4.895   2.688
    1MUSC O03Rb20695   6.257   4.611   1.684
    1MUSC O03Rc20696   5.946   4.895   3.017
    1MUSC O03Rd20697   6.559   4.927   1.454
    1MUSC O03Re20698   6.165   4.579   3.247
    1MUSC O03Rf20699   5.996   4.927   2.243
    1MUSC O03Rg20700   6.207   4.579   2.458
    1MUSC K00DN20701   6.109   6.247   0.845
    1MUSC K00DO20702   6.369   5.794   0.845
    1MUSC Al0Zd20703   6.288   5.958   0.343
    1MUSC Al0Ze20704   6.281   6.263   0.344
    1MUSC Al0Zf20705   6.633   5.958   3.355
    1MUSC Al0Zg20706   6.456   6.263   1.346
    1MUSC Al0Zh20707   6.548   5.505   0.343
    1MUSC Al0Zi20708   6.541   5.810   0.344
    1MUSC Al0Zj20709   6.373   5.505   3.355
    1MUSC Al0Zk20710   6.196   5.810   1.346
    1MUSC Si19F20711   6.463   6.273   3.621
    1MUSC Si19G20712   6.106   5.948   1.080
    1MUSC Si19H20713   6.457   6.273   0.077
    1MUSC Si19I20714   6.632   5.948   0.610
    1MUSC Si19J20715   6.204   6.118   0.077
    1MUSC Si19K20716   6.365   6.103   0.610
    1MUSC Si19L20717   6.717   6.118   3.620
    1MUSC Si19M20718   6.373   6.103   1.081
    1MUSC Si19N20719   6.724   5.820   3.621
    1MUSC Si19O20720   6.366   5.495   1.080
    1MUSC Si19P20721   6.197   5.820   0.077
    1MUSC Si19Q20722   6.372   5.495   0.610
    1MUSC Si19R20723   6.464   5.665   0.077
    1MUSC Si19S20724   6.625   5.651   0.610
    1MUSC Si19T20725   6.456   5.665   3.620
    1MUSC Si19U20726   6.113   5.651   1.081
    1MUSC O03Rh20727   6.226   6.106   0.236
    1MUSC O03Ri20728   6.343   6.115   0.451
    1MUSC O03Rj20729   6.695   6.106   3.461
    1MUSC O03Rk20730   6.395   6.115   1.240
    1MUSC O03Rl20731   6.482   5.927   3.453
    1MUSC O03Rm20732   6.087   6.295   1.248
    1MUSC O03Rn20733   6.439   5.927   0.245
    1MUSC O03Ro20734   6.650   6.295   0.442
    1MUSC O03Rp20735   6.341   6.175   3.672
    1MUSC O03Rq20736   6.228   6.046   1.029
    1MUSC O03Rr20737   6.579   6.175   0.025
    1MUSC O03Rs20738   6.510   6.046   0.662
    1MUSC O03Rt20739   6.320   6.212   0.006
    1MUSC O03Ru20740   6.249   6.009   0.681
    1MUSC O03Rv20741   6.601   6.212   3.692
    1MUSC O03Rw20742   6.489   6.009   1.009
    1MUSC O03Rx20743   6.220   5.969   0.006
    1MUSC O03Ry20744   6.349   6.253   0.681
    1MUSC O03Rz20745   6.701   5.969   3.691
    1MUSC O03S020746   6.389   6.253   1.010
    1MUSC O03S120747   6.482   6.285   3.461
    1MUSC O03S220748   6.087   5.937   1.240
    1MUSC O03S320749   6.439   6.285   0.236
    1MUSC O03S420750   6.650   5.937   0.451
    1MUSC O03S520751   6.486   5.654   0.236
    1MUSC O03S620752   6.603   5.662   0.451
    1MUSC O03S720753   6.434   5.654   3.461
    1MUSC O03S820754   6.135   5.662   1.240
    1MUSC O03S920755   6.742   5.474   3.453
    1MUSC O03SA20756   6.348   5.842   1.248
    1MUSC O03SB20757   6.179   5.474   0.245
    1MUSC O03SC20758   6.390   5.842   0.442
    1MUSC O03SD20759   6.602   5.723   3.672
    1MUSC O03SE20760   6.488   5.593   1.029
    1MUSC O03SF20761   6.319   5.723   0.025
    1MUSC O03SG20762   6.250   5.593   0.662
    1MUSC O03SH20763   6.580   5.760   0.006
    1MUSC O03SI20764   6.509   5.556   0.681
    1MUSC O03SJ20765   6.340   5.760   3.692
    1MUSC O03SK20766   6.229   5.556   1.009
    1MUSC O03SL20767   6.480   5.516   0.006
    1MUSC O03SM20768   6.609   5.800   0.681
    1MUSC O03SN20769   6.440   5.516   3.691
    1MUSC O03SO20770   6.129   5.800   1.010
    1MUSC O03SP20771   6.742   5.832   3.461
    1MUSC O03SQ20772   6.348   5.484   1.240
    1MUSC O03SR20773   6.179   5.832   0.236
    1MUSC O03SS20774   6.390   5.484   0.451
    1MUSC K00DP20775   6.277   5.975   1.849
    1MUSC K00DQ20776   5.926   6.247   2.852
    1MUSC K00DR20777   6.017   5.522   1.849
    1MUSC K00DS20778   6.186   5.794   2.852
    1MUSC Al0Zl20779   6.105   5.958   2.350
    1MUSC Al0Zm20780   6.098   6.263   2.351
    1MUSC Al0Zn20781   6.450   5.958   1.348
    1MUSC Al0Zo20782   6.273   6.263   3.353
    1MUSC Al0Zp20783   6.365   5.505   2.350
    1MUSC Al0Zq20784   6.358   5.810   2.351
    1MUSC Al0Zr20785   6.190   5.505   1.348
    1MUSC Al0Zs20786   6.013   5.810   3.353
    1MUSC Si19V20787   6.280   6.273   1.614
    1MUSC Si19W20788   5.923   5.948   3.087
    1MUSC Si19X20789   6.274   6.273   2.084
    1MUSC Si19Y20790   6.449   5.948   2.617
    1MUSC Si19Z20791   6.021   6.118   2.084
    1MUSC Si19a20792   6.182   6.103   2.617
    1MUSC Si19b20793   6.534   6.118   1.613
    1MUSC Si19c20794   6.190   6.103   3.088
    1MUSC Si19d20795   6.541   5.820   1.614
    1MUSC Si19e20796   6.183   5.495   3.087
    1MUSC Si19f20797   6.014   5.820   2.084
    1MUSC Si19g20798   6.189   5.495   2.617
    1MUSC Si19h20799   6.281   5.665   2.084
    1MUSC Si19i20800   6.442   5.651   2.617
    1MUSC Si19j20801   6.273   5.665   1.613
    1MUSC Si19k20802   5.930   5.651   3.088
    1MUSC O03ST20803   6.043   6.106   2.243
    1MUSC O03SU20804   6.160   6.115   2.458
    1MUSC O03SV20805   6.512   6.106   1.454
    1MUSC O03SW20806   6.212   6.115   3.247
    1MUSC O03SX20807   6.299   5.927   1.446
    1MUSC O03SY20808   5.904   6.295   3.255
    1MUSC O03SZ20809   6.256   5.927   2.252
    1MUSC O03Sa20810   6.467   6.295   2.449
    1MUSC O03Sb20811   6.158   6.175   1.665
    1MUSC O03Sc20812   6.045   6.046   3.036
    1MUSC O03Sd20813   6.396   6.175   2.032
    1MUSC O03Se20814   6.327   6.046   2.669
    1MUSC O03Sf20815   6.137   6.212   2.013
    1MUSC O03Sg20816   6.066   6.009   2.688
    1MUSC O03Sh20817   6.418   6.212   1.685
    1MUSC O03Si20818   6.306   6.009   3.016
    1MUSC O03Sj20819   6.037   5.969   2.013
    1MUSC O03Sk20820   6.166   6.253   2.688
    1MUSC O03Sl20821   6.518   5.969   1.684
    1MUSC O03Sm20822   6.206   6.253   3.017
    1MUSC O03Sn20823   6.299   6.285   1.454
    1MUSC O03So20824   5.904   5.937   3.247
    1MUSC O03Sp20825   6.256   6.285   2.243
    1MUSC O03Sq20826   6.467   5.937   2.458
    1MUSC O03Sr20827   6.303   5.654   2.243
    1MUSC O03Ss20828   6.420   5.662   2.458
    1MUSC O03St20829   6.251   5.654   1.454
    1MUSC O03Su20830   5.952   5.662   3.247
    1MUSC O03Sv20831   6.559   5.474   1.446
    1MUSC O03Sw20832   6.165   5.842   3.255
    1MUSC O03Sx20833   5.996   5.474   2.252
    1MUSC O03Sy20834   6.207   5.842   2.449
    1MUSC O03Sz20835   6.419   5.723   1.665
    1MUSC O03T020836   6.305   5.593   3.036
    1MUSC O03T120837   6.136   5.723   2.032
    1MUSC O03T220838   6.067   5.593   2.669
    1MUSC O03T320839   6.397   5.760   2.013
    1MUSC O03T420840   6.326   5.556   2.688
    1MUSC O03T520841   6.157   5.760   1.685
    1MUSC O03T620842   6.046   5.556   3.016
    1MUSC O03T720843   6.297   5.516   2.013
    1MUSC O03T820844   6.426   5.800   2.688
    1MUSC O03T920845   6.257   5.516   1.684
    1MUSC O03TA20846   5.946   5.800   3.017
    1MUSC O03TB20847   6.559   5.832   1.454
    1MUSC O03TC20848   6.165   5.484   3.247
    1MUSC O03TD20849   5.996   5.832   2.243
    1MUSC O03TE20850   6.207   5.484   2.458
    1MUSC K00DT20851   6.109   7.152   0.845
    1MUSC K00DU20852   6.369   6.699   0.845
    1MUSC Al0Zt20853   6.288   6.863   0.343
    1MUSC Al0Zu20854   6.281   7.168   0.344
    1MUSC Al0Zv20855   6.633   6.863   3.355
    1MUSC Al0Zw20856   6.456   7.168   1.346
    1MUSC Al0Zx20857   6.548   6.411   0.343
    1MUSC Al0Zy20858   6.541   6.716   0.344
    1MUSC Al0Zz20859   6.373   6.411   3.355
    1MUSC Al0a020860   6.196   6.716   1.346
    1MUSC Si19l20861   6.463   7.178   3.621
    1MUSC Si19m20862   6.106   6.853   1.080
    1MUSC Si19n20863   6.457   7.178   0.077
    1MUSC Si19o20864   6.632   6.853   0.610
    1MUSC Si19p20865   6.204   7.023   0.077
    1MUSC Si19q20866   6.365   7.009   0.610
    1MUSC Si19r20867   6.717   7.023   3.620
    1MUSC Si19s20868   6.373   7.009   1.081
    1MUSC Si19t20869   6.724   6.726   3.621
    1MUSC Si19u20870   6.366   6.401   1.080
    1MUSC Si19v20871   6.197   6.726   0.077
    1MUSC Si19w20872   6.372   6.401   0.610
    1MUSC Si19x20873   6.464   6.570   0.077
    1MUSC Si19y20874   6.625   6.556   0.610
    1MUSC Si19z20875   6.456   6.570   3.620
    1MUSC Si1A020876   6.113   6.556   1.081
    1MUSC O03TF20877   6.226   7.012   0.236
    1MUSC O03TG20878   6.343   7.020   0.451
    1MUSC O03TH20879   6.695   7.012   3.461
    1MUSC O03TI20880   6.395   7.020   1.240
    1MUSC O03TJ20881   6.482   6.832   3.453
    1MUSC O03TK20882   6.087   7.200   1.248
    1MUSC O03TL20883   6.439   6.832   0.245
    1MUSC O03TM20884   6.650   7.200   0.442
    1MUSC O03TN20885   6.341   7.080   3.672
    1MUSC O03TO20886   6.228   6.951   1.029
    1MUSC O03TP20887   6.579   7.080   0.025
    1MUSC O03TQ20888   6.510   6.951   0.662
    1MUSC O03TR20889   6.320   7.117   0.006
    1MUSC O03TS20890   6.249   6.914   0.681
    1MUSC O03TT20891   6.601   7.117   3.692
    1MUSC O03TU20892   6.489   6.914   1.009
    1MUSC O03TV20893   6.220   6.874   0.006
    1MUSC O03TW20894   6.349   7.158   0.681
    1MUSC O03TX20895   6.701   6.874   3.691
    1MUSC O03TY20896   6.389   7.158   1.010
    1MUSC O03TZ20897   6.482   7.190   3.461
    1MUSC O03Ta20898   6.087   6.842   1.240
    1MUSC O03Tb20899   6.439   7.190   0.236
    1MUSC O03Tc20900   6.650   6.842   0.451
    1MUSC O03Td20901   6.486   6.559   0.236
    1MUSC O03Te20902   6.603   6.567   0.451
    1MUSC O03Tf20903   6.434   6.559   3.461
    1MUSC O03Tg20904   6.135   6.567   1.240
    1MUSC O03Th20905   6.742   6.379   3.453
    1MUSC O03Ti20906   6.348   6.747   1.248
    1MUSC O03Tj20907   6.179   6.379   0.245
    1MUSC O03Tk20908   6.390   6.747   0.442
    1MUSC O03Tl20909   6.602   6.628   3.672
    1MUSC O03Tm20910   6.488   6.499   1.029
    1MUSC O03Tn20911   6.319   6.628   0.025
    1MUSC O03To20912   6.250   6.499   0.662
    1MUSC O03Tp20913   6.580   6.665   0.006
    1MUSC O03Tq20914   6.509   6.462   0.681
    1MUSC O03Tr20915   6.340   6.665   3.692
    1MUSC O03Ts20916   6.229   6.462   1.009
    1MUSC O03Tt20917   6.480   6.421   0.006
    1MUSC O03Tu20918   6.609   6.705   0.681
    1MUSC O03Tv20919   6.440   6.421   3.691
    1MUSC O03Tw20920   6.129   6.705   1.010
    1MUSC O03Tx20921   6.742   6.737   3.461
    1MUSC O03Ty20922   6.348   6.389   1.240
    1MUSC O03Tz20923   6.179   6.737   0.236
    1MUSC O03U020924   6.390   6.389   0.451
    1MUSC K00DV20925   6.277   6.880   1.849
    1MUSC K00DW20926   5.926   7.152   2.852
    1MUSC K00DX20927   6.017   6.427   1.849
    1MUSC K00DY20928   6.186   6.699   2.852
    1MUSC Al0a120929   6.105   6.863   2.350
    1MUSC Al0a220930   6.098   7.168   2.351
    1MUSC Al0a320931   6.450   6.863   1.348
    1MUSC Al0a420932   6.273   7.168   3.353
    1MUSC Al0a520933   6.365   6.411   2.350
    1MUSC Al0a620934   6.358   6.716   2.351
    1MUSC Al0a720935   6.190   6.411   1.348
    1MUSC Al0a820936   6.013   6.716   3.353
    1MUSC Si1A120937   6.280   7.178   1.614
    1MUSC Si1A220938   5.923   6.853   3.087
    1MUSC Si1A320939   6.274   7.178   2.084
    1MUSC Si1A420940   6.449   6.853   2.617
    1MUSC Si1A520941   6.021   7.023   2.084
    1MUSC Si1A620942   6.182   7.009   2.617
    1MUSC Si1A720943   6.534   7.023   1.613
    1MUSC Si1A820944   6.190   7.009   3.088
    1MUSC Si1A920945   6.541   6.726   1.614
    1MUSC Si1AA20946   6.183   6.401   3.087
    1MUSC Si1AB20947   6.014   6.726   2.084
    1MUSC Si1AC20948   6.189   6.401   2.617
    1MUSC Si1AD20949   6.281   6.570   2.084
    1MUSC Si1AE20950   6.442   6.556   2.617
    1MUSC Si1AF20951   6.273   6.570   1.613
    1MUSC Si1AG20952   5.930   6.556   3.088
    1MUSC O03U120953   6.043   7.012   2.243
    1MUSC O03U220954   6.160   7.020   2.458
    1MUSC O03U320955   6.512   7.012   1.454
    1MUSC O03U420956   6.212   7.020   3.247
    1MUSC O03U520957   6.299   6.832   1.446
    1MUSC O03U620958   5.904   7.200   3.255
    1MUSC O03U720959   6.256   6.832   2.252
    1MUSC O03U820960   6.467   7.200   2.449
    1MUSC O03U920961   6.158   7.080   1.665
    1MUSC O03UA20962   6.045   6.951   3.036
    1MUSC O03UB20963   6.396   7.080   2.032
    1MUSC O03UC20964   6.327   6.951   2.669
    1MUSC O03UD20965   6.137   7.117   2.013
    1MUSC O03UE20966   6.066   6.914   2.688
    1MUSC O03UF20967   6.418   7.117   1.685
    1MUSC O03UG20968   6.306   6.914   3.016
    1MUSC O03UH20969   6.037   6.874   2.013
    1MUSC O03UI20970   6.166   7.158   2.688
    1MUSC O03UJ20971   6.518   6.874   1.684
    1MUSC O03UK20972   6.206   7.158   3.017
    1MUSC O03UL20973   6.299   7.190   1.454
    1MUSC O03UM20974   5.904   6.842   3.247
    1MUSC O03UN20975   6.256   7.190   2.243
    1MUSC O03UO20976   6.467   6.842   2.458
    1MUSC O03UP20977   6.303   6.559   2.243
    1MUSC O03UQ20978   6.420   6.567   2.458
    1MUSC O03UR20979   6.251   6.559   1.454
    1MUSC O03US20980   5.952   6.567   3.247
    1MUSC O03UT20981   6.559   6.379   1.446
    1MUSC O03UU20982   6.165   6.747   3.255
    1MUSC O03UV20983   5.996   6.379   2.252
    1MUSC O03UW20984   6.207   6.747   2.449
    1MUSC O03UX20985   6.419   6.628   1.665
    1MUSC O03UY20986   6.305   6.499   3.036
    1MUSC O03UZ20987   6.136   6.628   2.032
    1MUSC O03Ua20988   6.067   6.499   2.669
    1MUSC O03Ub20989   6.397   6.665   2.013
    1MUSC O03Uc20990   6.326   6.462   2.688
    1MUSC O03Ud20991   6.157   6.665   1.685
    1MUSC O03Ue20992   6.046   6.462   3.016
    1MUSC O03Uf20993   6.297   6.421   2.013
    1MUSC O03Ug20994   6.426   6.705   2.688
    1MUSC O03Uh20995   6.257   6.421   1.684
    1MUSC O03Ui20996   5.946   6.705   3.017
    1MUSC O03Uj20997   6.559   6.737   1.454
    1MUSC O03Uk20998   6.165   6.389   3.247
    1MUSC O03Ul20999   5.996   6.737   2.243
    1MUSC O03Um21000   6.207   6.389   2.458
    1MUSC K00DZ21001   6.109   8.057   0.845
    1MUSC K00Da21002   6.369   7.605   0.845
    1MUSC Al0a921003   6.288   7.769   0.343
    1MUSC Al0aA21004   6.281   8.074   0.344
    1MUSC Al0aB21005   6.633   7.769   3.355
    1MUSC Al0aC21006   6.456   8.074   1.346
    1MUSC Al0aD21007   6.548   7.316   0.343
    1MUSC Al0aE21008   6.541   7.621   0.344
    1MUSC Al0aF21009   6.373   7.316   3.355
    1MUSC Al0aG21010   6.196   7.621   1.346
    1MUSC Si1AH21011   6.463   8.084   3.621
    1MUSC Si1AI21012   6.106   7.759   1.080
    1MUSC Si1AJ21013   6.457   8.084   0.077
    1MUSC Si1AK21014   6.632   7.759   0.610
    1MUSC Si1AL21015   6.204   7.928   0.077
    1MUSC Si1AM21016   6.365   7.914   0.610
    1MUSC Si1AN21017   6.717   7.928   3.620
    1MUSC Si1AO21018   6.373   7.914   1.081
    1MUSC Si1AP21019   6.724   7.631   3.621
    1MUSC Si1AQ21020   6.366   7.306   1.080
    1MUSC Si1AR21021   6.197   7.631   0.077
    1MUSC Si1AS21022   6.372   7.306   0.610
    1MUSC Si1AT21023   6.464   7.476   0.077
    1MUSC Si1AU21024   6.625   7.461   0.610
    1MUSC Si1AV21025   6.456   7.476   3.620
    1MUSC Si1AW21026   6.113   7.461   1.081
    1MUSC O03Un21027   6.226   7.917   0.236
    1MUSC O03Uo21028   6.343   7.925   0.451
    1MUSC O03Up21029   6.695   7.917   3.461
    1MUSC O03Uq21030   6.395   7.925   1.240
    1MUSC O03Ur21031   6.482   7.737   3.453
    1MUSC O03Us21032   6.087   8.105   1.248
    1MUSC O03Ut21033   6.439   7.737   0.245
    1MUSC O03Uu21034   6.650   8.105   0.442
    1MUSC O03Uv21035   6.341   7.986   3.672
    1MUSC O03Uw21036   6.228   7.856   1.029
    1MUSC O03Ux21037   6.579   7.986   0.025
    1MUSC O03Uy21038   6.510   7.856   0.662
    1MUSC O03Uz21039   6.320   8.023   0.006
    1MUSC O03V021040   6.249   7.819   0.681
    1MUSC O03V121041   6.601   8.023   3.692
    1MUSC O03V221042   6.489   7.819   1.009
    1MUSC O03V321043   6.220   7.779   0.006
    1MUSC O03V421044   6.349   8.063   0.681
    1MUSC O03V521045   6.701   7.779   3.691
    1MUSC O03V621046   6.389   8.063   1.010
    1MUSC O03V721047   6.482   8.095   3.461
    1MUSC O03V821048   6.087   7.747   1.240
    1MUSC O03V921049   6.439   8.095   0.236
    1MUSC O03VA21050   6.650   7.747   0.451
    1MUSC O03VB21051   6.486   7.464   0.236
    1MUSC O03VC21052   6.603   7.473   0.451
    1MUSC O03VD21053   6.434   7.464   3.461
    1MUSC O03VE21054   6.135   7.473   1.240
    1MUSC O03VF21055   6.742   7.284   3.453
    1MUSC O03VG21056   6.348   7.653   1.248
    1MUSC O03VH21057   6.179   7.284   0.245
    1MUSC O03VI21058   6.390   7.653   0.442
    1MUSC O03VJ21059   6.602   7.533   3.672
    1MUSC O03VK21060   6.488   7.404   1.029
    1MUSC O03VL21061   6.319   7.533   0.025
    1MUSC O03VM21062   6.250   7.404   0.662
    1MUSC O03VN21063   6.580   7.570   0.006
    1MUSC O03VO21064   6.509   7.367   0.681
    1MUSC O03VP21065   6.340   7.570   3.692
    1MUSC O03VQ21066   6.229   7.367   1.009
    1MUSC O03VR21067   6.480   7.326   0.006
    1MUSC O03VS21068   6.609   7.611   0.681
    1MUSC O03VT21069   6.440   7.326   3.691
    1MUSC O03VU21070   6.129   7.611   1.010
    1MUSC O03VV21071   6.742   7.642   3.461
    1MUSC O03VW21072   6.348   7.295   1.240
    1MUSC O03VX21073   6.179   7.642   0.236
    1MUSC O03VY21074   6.390   7.295   0.451
    1MUSC K00Db21075   6.277   7.785   1.849
    1MUSC K00Dc21076   5.926   8.057   2.852
    1MUSC K00Dd21077   6.017   7.332   1.849
    1MUSC K00De21078   6.186   7.605   2.852
    1MUSC Al0aH21079   6.105   7.769   2.350
    1MUSC Al0aI21080   6.098   8.074   2.351
    1MUSC Al0aJ21081   6.450   7.769   1.348
    1MUSC Al0aK21082   6.273   8.074   3.353
    1MUSC Al0aL21083   6.365   7.316   2.350
    1MUSC Al0aM21084   6.358   7.621   2.351
    1MUSC Al0aN21085   6.190   7.316   1.348
    1MUSC Al0aO21086   6.013   7.621   3.353
    1MUSC Si1AX21087   6.280   8.084   1.614
    1MUSC Si1AY21088   5.923   7.759   3.087
    1MUSC Si1AZ21089   6.274   8.084   2.084
    1MUSC Si1Aa21090   6.449   7.759   2.617
    1MUSC Si1Ab21091   6.021   7.928   2.084
    1MUSC Si1Ac21092   6.182   7.914   2.617
    1MUSC Si1Ad21093   6.534   7.928   1.613
    1MUSC Si1Ae21094   6.190   7.914   3.088
    1MUSC Si1Af21095   6.541   7.631   1.614
    1MUSC Si1Ag21096   6.183   7.306   3.087
    1MUSC Si1Ah21097   6.014   7.631   2.084
    1MUSC Si1Ai21098   6.189   7.306   2.617
    1MUSC Si1Aj21099   6.281   7.476   2.084
    1MUSC Si1Ak21100   6.442   7.461   2.617
    1MUSC Si1Al21101   6.273   7.476   1.613
    1MUSC Si1Am21102   5.930   7.461   3.088
    1MUSC O03VZ21103   6.043   7.917   2.243
    1MUSC O03Va21104   6.160   7.925   2.458
    1MUSC O03Vb21105   6.512   7.917   1.454
    1MUSC O03Vc21106   6.212   7.925   3.247
    1MUSC O03Vd21107   6.299   7.737   1.446
    1MUSC O03Ve21108   5.904   8.105   3.255
    1MUSC O03Vf21109   6.256   7.737   2.252
    1MUSC O03Vg21110   6.467   8.105   2.449
    1MUSC O03Vh21111   6.158   7.986   1.665
    1MUSC O03Vi21112   6.045   7.856   3.036
    1MUSC O03Vj21113   6.396   7.986   2.032
    1MUSC O03Vk21114   6.327   7.856   2.669
    1MUSC O03Vl21115   6.137   8.023   2.013
    1MUSC O03Vm21116   6.066   7.819   2.688
    1MUSC O03Vn21117   6.418   8.023   1.685
    1MUSC O03Vo21118   6.306   7.819   3.016
    1MUSC O03Vp21119   6.037   7.779   2.013
    1MUSC O03Vq21120   6.166   8.063   2.688
    1MUSC O03Vr21121   6.518   7.779   1.684
    1MUSC O03Vs21122   6.206   8.063   3.017
    1MUSC O03Vt21123   6.299   8.095   1.454
    1MUSC O03Vu21124   5.904   7.747   3.247
    1MUSC O03Vv21125   6.256   8.095   2.243
    1MUSC O03Vw21126   6.467   7.747   2.458
    1MUSC O03Vx21127   6.303   7.464   2.243
    1MUSC O03Vy21128   6.420   7.473   2.458
    1MUSC O03Vz21129   6.251   7.464   1.454
    1MUSC O03W021130   5.952   7.473   3.247
    1MUSC O03W121131   6.559   7.284   1.446
    1MUSC O03W221132   6.165   7.653   3.255
    1MUSC O03W321133   5.996   7.284   2.252
    1MUSC O03W421134   6.207   7.653   2.449
    1MUSC O03W521135   6.419   7.533   1.665
    1MUSC O03W621136   6.305   7.404   3.036
    1MUSC O03W721137   6.136   7.533   2.032
    1MUSC O03W821138   6.067   7.404   2.669
    1MUSC O03W921139   6.397   7.570   2.013
    1MUSC O03WA21140   6.326   7.367   2.688
    1MUSC O03WB21141   6.157   7.570   1.685
    1MUSC O03WC21142   6.046   7.367   3.016
    1MUSC O03WD21143   6.297   7.326   2.013
    1MUSC O03WE21144   6.426   7.611   2.688
    1MUSC O03WF21145   6.257   7.326   1.684
    1MUSC O03WG21146   5.946   7.611   3.017
    1MUSC O03WH21147   6.559   7.642   1.454
    1MUSC O03WI21148   6.165   7.295   3.247
    1MUSC O03WJ21149   5.996   7.642   2.243
    1MUSC O03WK21150   6.207   7.295   2.458
    1MUSC K00Df21151   6.109   8.962   0.845
    1MUSC K00Dg21152   6.369   8.510   0.845
    1MUSC Al0aP21153   6.288   8.674   0.343
    1MUSC Al0aQ21154   6.281   8.979   0.344
    1MUSC Al0aR21155   6.633   8.674   3.355
    1MUSC Al0aS21156   6.456   8.979   1.346
    1MUSC Al0aT21157   6.548   8.221   0.343
    1MUSC Al0aU21158   6.541   8.526   0.344
    1MUSC Al0aV21159   6.373   8.221   3.355
    1MUSC Al0aW21160   6.196   8.526   1.346
    1MUSC Si1An21161   6.463   8.989   3.621
    1MUSC Si1Ao21162   6.106   8.664   1.080
    1MUSC Si1Ap21163   6.457   8.989   0.077
    1MUSC Si1Aq21164   6.632   8.664   0.610
    1MUSC Si1Ar21165   6.204   8.834   0.077
    1MUSC Si1As21166   6.365   8.819   0.610
    1MUSC Si1At21167   6.717   8.834   3.620
    1MUSC Si1Au21168   6.373   8.819   1.081
    1MUSC Si1Av21169   6.724   8.536   3.621
    1MUSC Si1Aw21170   6.366   8.211   1.080
    1MUSC Si1Ax21171   6.197   8.536   0.077
    1MUSC Si1Ay21172   6.372   8.211   0.610
    1MUSC Si1Az21173   6.464   8.381   0.077
    1MUSC Si1B021174   6.625   8.367   0.610
    1MUSC Si1B121175   6.456   8.381   3.620
    1MUSC Si1B221176   6.113   8.367   1.081
    1MUSC O03WL21177   6.226   8.822   0.236
    1MUSC O03WM21178   6.343   8.831   0.451
    1MUSC O03WN21179   6.695   8.822   3.461
    1MUSC O03WO21180   6.395   8.831   1.240
    1MUSC O03WP21181   6.482   8.642   3.453
    1MUSC O03WQ21182   6.087   9.010   1.248
    1MUSC O03WR21183   6.439   8.642   0.245
    1MUSC O03WS21184   6.650   9.010   0.442
    1MUSC O03WT21185   6.341   8.891   3.672
    1MUSC O03WU21186   6.228   8.762   1.029
    1MUSC O03WV21187   6.579   8.891   0.025
    1MUSC O03WW21188   6.510   8.762   0.662
    1MUSC O03WX21189   6.320   8.928   0.006
    1MUSC O03WY21190   6.249   8.725   0.681
    1MUSC O03WZ21191   6.601   8.928   3.692
    1MUSC O03Wa21192   6.489   8.725   1.009
    1MUSC O03Wb21193   6.220   8.684   0.006
    1MUSC O03Wc21194   6.349   8.968   0.681
    1MUSC O03Wd21195   6.701   8.684   3.691
    1MUSC O03We21196   6.389   8.968   1.010
    1MUSC O03Wf21197   6.482   9.000   3.461
    1MUSC O03Wg21198   6.087   8.652   1.240
    1MUSC O03Wh21199   6.439   9.000   0.236
    1MUSC O03Wi21200   6.650   8.652   0.451
    1MUSC O03Wj21201   6.486   8.370   0.236
    1MUSC O03Wk21202   6.603   8.378   0.451
    1MUSC O03Wl21203   6.434   8.370   3.461
    1MUSC O03Wm21204   6.135   8.378   1.240
    1MUSC O03Wn21205   6.742   8.190   3.453
    1MUSC O03Wo21206   6.348   8.558   1.248
    1MUSC O03Wp21207   6.179   8.190   0.245
    1MUSC O03Wq21208   6.390   8.558   0.442
    1MUSC O03Wr21209   6.602   8.438   3.672
    1MUSC O03Ws21210   6.488   8.309   1.029
    1MUSC O03Wt21211   6.319   8.438   0.025
    1MUSC O03Wu21212   6.250   8.309   0.662
    1MUSC O03Wv21213   6.580   8.475   0.006
    1MUSC O03Ww21214   6.509   8.272   0.681
    1MUSC O03Wx21215   6.340   8.475   3.692
    1MUSC O03Wy21216   6.229   8.272   1.009
    1MUSC O03Wz21217   6.480   8.232   0.006
    1MUSC O03X021218   6.609   8.516   0.681
    1MUSC O03X121219   6.440   8.232   3.691
    1MUSC O03X221220   6.129   8.516   1.010
    1MUSC O03X321221   6.742   8.548   3.461
    1MUSC O03X421222   6.348   8.200   1.240
    1MUSC O03X521223   6.179   8.548   0.236
    1MUSC O03X621224   6.390   8.200   0.451
    1MUSC K00Dh21225   6.277   8.690   1.849
    1MUSC K00Di21226   5.926   8.962   2.852
    1MUSC K00Dj21227   6.017   8.238   1.849
    1MUSC K00Dk21228   6.186   8.510   2.852
    1MUSC Al0aX21229   6.105   8.674   2.350
    1MUSC Al0aY21230   6.098   8.979   2.351
    1MUSC Al0aZ21231   6.450   8.674   1.348
    1MUSC Al0aa21232   6.273   8.979   3.353
    1MUSC Al0ab21233   6.365   8.221   2.350
    1MUSC Al0ac21234   6.358   8.526   2.351
    1MUSC Al0ad21235   6.190   8.221   1.348
    1MUSC Al0ae21236   6.013   8.526   3.353
    1MUSC Si1B321237   6.280   8.989   1.614
    1MUSC Si1B421238   5.923   8.664   3.087
    1MUSC Si1B521239   6.274   8.989   2.084
    1MUSC Si1B621240   6.449   8.664   2.617
    1MUSC Si1B721241   6.021   8.834   2.084
    1MUSC Si1B821242   6.182   8.819   2.617
    1MUSC Si1B921243   6.534   8.834   1.613
    1MUSC Si1BA21244   6.190   8.819   3.088
    1MUSC Si1BB21245   6.541   8.536   1.614
    1MUSC Si1BC21246   6.183   8.211   3.087
    1MUSC Si1BD21247   6.014   8.536   2.084
    1MUSC Si1BE21248   6.189   8.211   2.617
    1MUSC Si1BF21249   6.281   8.381   2.084
    1MUSC Si1BG21250   6.442   8.367   2.617
    1MUSC Si1BH21251   6.273   8.381   1.613
    1MUSC Si1BI21252   5.930   8.367   3.088
    1MUSC O03X721253   6.043   8.822   2.243
    1MUSC O03X821254   6.160   8.831   2.458
    1MUSC O03X921255   6.512   8.822   1.454
    1MUSC O03XA21256   6.212   8.831   3.247
    1MUSC O03XB21257   6.299   8.642   1.446
    1MUSC O03XC21258   5.904   9.010   3.255
    1MUSC O03XD21259   6.256   8.642   2.252
    1MUSC O03XE21260   6.467   9.010   2.449
    1MUSC O03XF21261   6.158   8.891   1.665
    1MUSC O03XG21262   6.045   8.762   3.036
    1MUSC O03XH21263   6.396   8.891   2.032
    1MUSC O03XI21264   6.327   8.762   2.669
    1MUSC O03XJ21265   6.137   8.928   2.013
    1MUSC O03XK21266   6.066   8.725   2.688
    1MUSC O03XL21267   6.418   8.928   1.685
    1MUSC O03XM21268   6.306   8.725   3.016
    1MUSC O03XN21269   6.037   8.684   2.013
    1MUSC O03XO21270   6.166   8.968   2.688
    1MUSC O03XP21271   6.518   8.684   1.684
    1MUSC O03XQ21272   6.206   8.968   3.017
    1MUSC O03XR21273   6.299   9.000   1.454
    1MUSC O03XS21274   5.904   8.652   3.247
    1MUSC O03XT21275   6.256   9.000   2.243
    1MUSC O03XU21276   6.467   8.652   2.458
    1MUSC O03XV21277   6.303   8.370   2.243
    1MUSC O03XW21278   6.420   8.378   2.458
    1MUSC O03XX21279   6.251   8.370   1.454
    1MUSC O03XY21280   5.952   8.378   3.247
    1MUSC O03XZ21281   6.559   8.190   1.446
    1MUSC O03Xa21282   6.165   8.558   3.255
    1MUSC O03Xb21283   5.996   8.190   2.252
    1MUSC O03Xc21284   6.207   8.558   2.449
    1MUSC O03Xd21285   6.419   8.438   1.665
    1MUSC O03Xe21286   6.305   8.309   3.036
    1MUSC O03Xf21287   6.136   8.438   2.032
    1MUSC O03Xg21288   6.067   8.309   2.669
    1MUSC O03Xh21289   6.397   8.475   2.013
    1MUSC O03Xi21290   6.326   8.272   2.688
    1MUSC O03Xj21291   6.157   8.475   1.685
    1MUSC O03Xk21292   6.046   8.272   3.016
    1MUSC O03Xl21293   6.297   8.232   2.013
    1MUSC O03Xm21294   6.426   8.516   2.688
    1MUSC O03Xn21295   6.257   8.232   1.684
    1MUSC O03Xo21296   5.946   8.516   3.017
    1MUSC O03Xp21297   6.559   8.548   1.454
    1MUSC O03Xq21298   6.165   8.200   3.247
    1MUSC O03Xr21299   5.996   8.548   2.243
    1MUSC O03Xs21300   6.207   8.200   2.458
    1MUSC K00Dl21301   6.109   9.868   0.845
    1MUSC K00Dm21302   6.369   9.415   0.845
    1MUSC Al0af21303   6.288   9.579   0.343
    1MUSC Al0ag21304   6.281   9.884   0.344
    1MUSC Al0ah21305   6.633   9.579   3.355
    1MUSC Al0ai21306   6.456   9.884   1.346
    1MUSC Al0aj21307   6.548   9.126   0.343
    1MUSC Al0ak21308   6.541   9.432   0.344
    1MUSC Al0al21309   6.373   9.126   3.355
    1MUSC Al0am21310   6.196   9.432   1.346
    1MUSC Si1BJ21311   6.463   9.894   3.621
    1MUSC Si1BK21312   6.106   9.569   1.080
    1MUSC Si1BL21313   6.457   9.894   0.077
    1MUSC Si1BM21314   6.632   9.569   0.610
    1MUSC Si1BN21315   6.204   9.739   0.077
    1MUSC Si1BO21316   6.365   9.724   0.610
    1MUSC Si1BP21317   6.717   9.739   3.620
    1MUSC Si1BQ21318   6.373   9.724   1.081
    1MUSC Si1BR21319   6.724   9.441   3.621
    1MUSC Si1BS21320   6.366   9.117   1.080
    1MUSC Si1BT21321   6.197   9.441   0.077
    1MUSC Si1BU21322   6.372   9.117   0.610
    1MUSC Si1BV21323   6.464   9.286   0.077
    1MUSC Si1BW21324   6.625   9.272   0.610
    1MUSC Si1BX21325   6.456   9.286   3.620
    1MUSC Si1BY21326   6.113   9.272   1.081
    1MUSC O03Xt21327   6.226   9.728   0.236
    1MUSC O03Xu21328   6.343   9.736   0.451
    1MUSC O03Xv21329   6.695   9.728   3.461
    1MUSC O03Xw21330   6.395   9.736   1.240
    1MUSC O03Xx21331   6.482   9.548   3.453
    1MUSC O03Xy21332   6.087   9.916   1.248
    1MUSC O03Xz21333   6.439   9.548   0.245
    1MUSC O03Y021334   6.650   9.916   0.442
    1MUSC O03Y121335   6.341   9.796   3.672
    1MUSC O03Y221336   6.228   9.667   1.029
    1MUSC O03Y321337   6.579   9.796   0.025
    1MUSC O03Y421338   6.510   9.667   0.662
    1MUSC O03Y521339   6.320   9.833   0.006
    1MUSC O03Y621340   6.249   9.630   0.681
    1MUSC O03Y721341   6.601   9.833   3.692
    1MUSC O03Y821342   6.489   9.630   1.009
    1MUSC O03Y921343   6.220   9.590   0.006
    1MUSC O03YA21344   6.349   9.874   0.681
    1MUSC O03YB21345   6.701   9.590   3.691
    1MUSC O03YC21346   6.389   9.874   1.010
    1MUSC O03YD21347   6.482   9.906   3.461
    1MUSC O03YE21348   6.087   9.558   1.240
    1MUSC O03YF21349   6.439   9.906   0.236
    1MUSC O03YG21350   6.650   9.558   0.451
    1MUSC O03YH21351   6.486   9.275   0.236
    1MUSC O03YI21352   6.603   9.283   0.451
    1MUSC O03YJ21353   6.434   9.275   3.461
    1MUSC O03YK21354   6.135   9.283   1.240
    1MUSC O03YL21355   6.742   9.095   3.453
    1MUSC O03YM21356   6.348   9.463   1.248
    1MUSC O03YN21357   6.179   9.095   0.245
    1MUSC O03YO21358   6.390   9.463   0.442
    1MUSC O03YP21359   6.602   9.344   3.672
    1MUSC O03YQ21360   6.488   9.214   1.029
    1MUSC O03YR21361   6.319   9.344   0.025
    1MUSC O03YS21362   6.250   9.214   0.662
    1MUSC O03YT21363   6.580   9.381   0.006
    1MUSC O03YU21364   6.509   9.177   0.681
    1MUSC O03YV21365   6.340   9.381   3.692
    1MUSC O03YW21366   6.229   9.177   1.009
    1MUSC O03YX21367   6.480   9.137   0.006
    1MUSC O03YY21368   6.609   9.421   0.681
    1MUSC O03YZ21369   6.440   9.137   3.691
    1MUSC O03Ya21370   6.129   9.421   1.010
    1MUSC O03Yb21371   6.742   9.453   3.461
    1MUSC O03Yc21372   6.348   9.105   1.240
    1MUSC O03Yd21373   6.179   9.453   0.236
    1MUSC O03Ye21374   6.390   9.105   0.451
    1MUSC K00Dn21375   6.277   9.596   1.849
    1MUSC K00Do21376   5.926   9.868   2.852
    1MUSC K00Dp21377   6.017   9.143   1.849
    1MUSC K00Dq21378   6.186   9.415   2.852
    1MUSC Al0an21379   6.105   9.579   2.350
    1MUSC Al0ao21380   6.098   9.884   2.351
    1MUSC Al0ap21381   6.450   9.579   1.348
    1MUSC Al0aq21382   6.273   9.884   3.353
    1MUSC Al0ar21383   6.365   9.126   2.350
    1MUSC Al0as21384   6.358   9.432   2.351
    1MUSC Al0at21385   6.190   9.126   1.348
    1MUSC Al0au21386   6.013   9.432   3.353
    1MUSC Si1BZ21387   6.280   9.894   1.614
    1MUSC Si1Ba21388   5.923   9.569   3.087
    1MUSC Si1Bb21389   6.274   9.894   2.084
    1MUSC Si1Bc21390   6.449   9.569   2.617
    1MUSC Si1Bd21391   6.021   9.739   2.084
    1MUSC Si1Be21392   6.182   9.724   2.617
    1MUSC Si1Bf21393   6.534   9.739   1.613
    1MUSC Si1Bg21394   6.190   9.724   3.088
    1MUSC Si1Bh21395   6.541   9.441   1.614
    1MUSC Si1Bi21396   6.183   9.117   3.087
    1MUSC Si1Bj21397   6.014   9.441   2.084
    1MUSC Si1Bk21398   6.189   9.117   2.617
    1MUSC Si1Bl21399   6.281   9.286   2.084
    1MUSC Si1Bm21400   6.442   9.272   2.617
    1MUSC Si1Bn21401   6.273   9.286   1.613
    1MUSC Si1Bo21402   5.930   9.272   3.088
    1MUSC O03Yf21403   6.043   9.728   2.243
    1MUSC O03Yg21404   6.160   9.736   2.458
    1MUSC O03Yh21405   6.512   9.728   1.454
    1MUSC O03Yi21406   6.212   9.736   3.247
    1MUSC O03Yj21407   6.299   9.548   1.446
    1MUSC O03Yk21408   5.904   9.916   3.255
    1MUSC O03Yl21409   6.256   9.548   2.252
    1MUSC O03Ym21410   6.467   9.916   2.449
    1MUSC O03Yn21411   6.158   9.796   1.665
    1MUSC O03Yo21412   6.045   9.667   3.036
    1MUSC O03Yp21413   6.396   9.796   2.032
    1MUSC O03Yq21414   6.327   9.667   2.669
    1MUSC O03Yr21415   6.137   9.833   2.013
    1MUSC O03Ys21416   6.066   9.630   2.688
    1MUSC O03Yt21417   6.418   9.833   1.685
    1MUSC O03Yu21418   6.306   9.630   3.016
    1MUSC O03Yv21419   6.037   9.590   2.013
    1MUSC O03Yw21420   6.166   9.874   2.688
    1MUSC O03Yx21421   6.518   9.590   1.684
    1MUSC O03Yy21422   6.206   9.874   3.017
    1MUSC O03Yz21423   6.299   9.906   1.454
    1MUSC O03Z021424   5.904   9.558   3.247
    1MUSC O03Z121425   6.256   9.906   2.243
    1MUSC O03Z221426   6.467   9.558   2.458
    1MUSC O03Z321427   6.303   9.275   2.243
    1MUSC O03Z421428   6.420   9.283   2.458
    1MUSC O03Z521429   6.251   9.275   1.454
    1MUSC O03Z621430   5.952   9.283   3.247
    1MUSC O03Z721431   6.559   9.095   1.446
    1MUSC O03Z821432   6.165   9.463   3.255
    1MUSC O03Z921433   5.996   9.095   2.252
    1MUSC O03ZA21434   6.207   9.463   2.449
    1MUSC O03ZB21435   6.419   9.344   1.665
    1MUSC O03ZC21436   6.305   9.214   3.036
    1MUSC O03ZD21437   6.136   9.344   2.032
    1MUSC O03ZE21438   6.067   9.214   2.669
    1MUSC O03ZF21439   6.397   9.381   2.013
    1MUSC O03ZG21440   6.326   9.177   2.688
    1MUSC O03ZH21441   6.157   9.381   1.685
    1MUSC O03ZI21442   6.046   9.177   3.016
    1MUSC O03ZJ21443   6.297   9.137   2.013
    1MUSC O03ZK21444   6.426   9.421   2.688
    1MUSC O03ZL21445   6.257   9.137   1.684
    1MUSC O03ZM21446   5.946   9.421   3.017
    1MUSC O03ZN21447   6.559   9.453   1.454
    1MUSC O03ZO21448   6.165   9.105   3.247
    1MUSC O03ZP21449   5.996   9.453   2.243
    1MUSC O03ZQ21450   6.207   9.105   2.458
    1MUSC K00Dr21451   6.629   0.815   0.845
    1MUSC K00Ds21452   6.889   0.362   0.845
    1MUSC Al0av21453   6.808   0.526   0.343
    1MUSC Al0aw21454   6.802   0.831   0.344
    1MUSC Al0ax21455   7.153   0.526   3.355
    1MUSC Al0ay21456   6.977   0.831   1.346
    1MUSC Al0az21457   7.068   0.074   0.343
    1MUSC Al0b021458   7.062   0.379   0.344
    1MUSC Al0b121459   6.893   0.074   3.355
    1MUSC Al0b221460   6.717   0.379   1.346
    1MUSC Si1Bp21461   6.984   0.841   3.621
    1MUSC Si1Bq21462   6.626   0.517   1.080
    1MUSC Si1Br21463   6.978   0.841   0.077
    1MUSC Si1Bs21464   7.153   0.517   0.610
    1MUSC Si1Bt21465   6.724   0.686   0.077
    1MUSC Si1Bu21466   6.885   0.672   0.610
    1MUSC Si1Bv21467   7.237   0.686   3.620
    1MUSC Si1Bw21468   6.893   0.672   1.081
    1MUSC Si1Bx21469   7.244   0.389   3.621
    1MUSC Si1By21470   6.886   0.064   1.080
    1MUSC Si1Bz21471   6.718   0.389   0.077
    1MUSC Si1C021472   6.892   0.064   0.610
    1MUSC Si1C121473   6.985   0.233   0.077
    1MUSC Si1C221474   7.146   0.219   0.610
    1MUSC Si1C321475   6.977   0.233   3.620
    1MUSC Si1C421476   6.633   0.219   1.081
    1MUSC O03ZR21477   6.747   0.675   0.236
    1MUSC O03ZS21478   6.863   0.683   0.451
    1MUSC O03ZT21479   7.215   0.675   3.461
    1MUSC O03ZU21480   6.915   0.683   1.240
    1MUSC O03ZV21481   7.002   0.495   3.453
    1MUSC O03ZW21482   6.608   0.863   1.248
    1MUSC O03ZX21483   6.960   0.495   0.245
    1MUSC O03ZY21484   7.171   0.863   0.442
    1MUSC O03ZZ21485   6.862   0.744   3.672
    1MUSC O03Za21486   6.748   0.614   1.029
    1MUSC O03Zb21487   7.100   0.744   0.025
    1MUSC O03Zc21488   7.031   0.614   0.662
    1MUSC O03Zd21489   6.840   0.781   0.006
    1MUSC O03Ze21490   6.769   0.577   0.681
    1MUSC O03Zf21491   7.121   0.781   3.692
    1MUSC O03Zg21492   7.009   0.577   1.009
    1MUSC O03Zh21493   6.741   0.537   0.006
    1MUSC O03Zi21494   6.869   0.821   0.681
    1MUSC O03Zj21495   7.221   0.537   3.691
    1MUSC O03Zk21496   6.909   0.821   1.010
    1MUSC O03Zl21497   7.002   0.853   3.461
    1MUSC O03Zm21498   6.608   0.505   1.240
    1MUSC O03Zn21499   6.960   0.853   0.236
    1MUSC O03Zo21500   7.171   0.505   0.451
    1MUSC O03Zp21501   7.007   0.222   0.236
    1MUSC O03Zq21502   7.124   0.230   0.451
    1MUSC O03Zr21503   6.955   0.222   3.461
    1MUSC O03Zs21504   6.655   0.230   1.240
    1MUSC O03Zt21505   7.262   0.042   3.453
    1MUSC O03Zu21506   6.868   0.410   1.248
    1MUSC O03Zv21507   6.699   0.042   0.245
    1MUSC O03Zw21508   6.911   0.410   0.442
    1MUSC O03Zx21509   7.122   0.291   3.672
    1MUSC O03Zy21510   7.008   0.162   1.029
    1MUSC O03Zz21511   6.840   0.291   0.025
    1MUSC O03a021512   6.770   0.162   0.662
    1MUSC O03a121513   7.101   0.328   0.006
    1MUSC O03a221514   7.030   0.125   0.681
    1MUSC O03a321515   6.861   0.328   3.692
    1MUSC O03a421516   6.749   0.125   1.009
    1MUSC O03a521517   7.001   0.084   0.006
    1MUSC O03a621518   7.130   0.368   0.681
    1MUSC O03a721519   6.961   0.084   3.691
    1MUSC O03a821520   6.649   0.368   1.010
    1MUSC O03a921521   7.262   0.400   3.461
    1MUSC O03aA21522   6.868   0.052   1.240
    1MUSC O03aB21523   6.699   0.400   0.236
    1MUSC O03aC21524   6.911   0.052   0.451
    1MUSC K00Dt21525   6.798   0.543   1.849
    1MUSC K00Du21526   6.446   0.815   2.852
    1MUSC K00Dv21527   6.538   0.090   1.849
    1MUSC K00Dw21528   6.706   0.362   2.852
    1MUSC Al0b321529   6.625   0.526   2.350
    1MUSC Al0b421530   6.619   0.831   2.351
    1MUSC Al0b521531   6.970   0.526   1.348
    1MUSC Al0b621532   6.794   0.831   3.353
    1MUSC Al0b721533   6.885   0.074   2.350
    1MUSC Al0b821534   6.879   0.379   2.351
    1MUSC Al0b921535   6.710   0.074   1.348
    1MUSC Al0bA21536   6.534   0.379   3.353
    1MUSC Si1C521537   6.801   0.841   1.614
    1MUSC Si1C621538   6.443   0.517   3.087
    1MUSC Si1C721539   6.795   0.841   2.084
    1MUSC Si1C821540   6.970   0.517   2.617
    1MUSC Si1C921541   6.541   0.686   2.084
    1MUSC Si1CA21542   6.702   0.672   2.617
    1MUSC Si1CB21543   7.054   0.686   1.613
    1MUSC Si1CC21544   6.710   0.672   3.088
    1MUSC Si1CD21545   7.061   0.389   1.614
    1MUSC Si1CE21546   6.703   0.064   3.087
    1MUSC Si1CF21547   6.535   0.389   2.084
    1MUSC Si1CG21548   6.709   0.064   2.617
    1MUSC Si1CH21549   6.802   0.233   2.084
    1MUSC Si1CI21550   6.963   0.219   2.617
    1MUSC Si1CJ21551   6.794   0.233   1.613
    1MUSC Si1CK21552   6.450   0.219   3.088
    1MUSC O03aD21553   6.564   0.675   2.243
    1MUSC O03aE21554   6.680   0.683   2.458
    1MUSC O03aF21555   7.032   0.675   1.454
    1MUSC O03aG21556   6.732   0.683   3.247
    1MUSC O03aH21557   6.819   0.495   1.446
    1MUSC O03aI21558   6.425   0.863   3.255
    1MUSC O03aJ21559   6.777   0.495   2.252
    1MUSC O03aK21560   6.988   0.863   2.449
    1MUSC O03aL21561   6.679   0.744   1.665
    1MUSC O03aM21562   6.565   0.614   3.036
    1MUSC O03aN21563   6.917   0.744   2.032
    1MUSC O03aO21564   6.848   0.614   2.669
    1MUSC O03aP21565   6.657   0.781   2.013
    1MUSC O03aQ21566   6.586   0.577   2.688
    1MUSC O03aR21567   6.938   0.781   1.685
    1MUSC O03aS21568   6.826   0.577   3.016
    1MUSC O03aT21569   6.558   0.537   2.013
    1MUSC O03aU21570   6.686   0.821   2.688
    1MUSC O03aV21571   7.038   0.537   1.684
    1MUSC O03aW21572   6.726   0.821   3.017
    1MUSC O03aX21573   6.819   0.853   1.454
    1MUSC O03aY21574   6.425   0.505   3.247
    1MUSC O03aZ21575   6.777   0.853   2.243
    1MUSC O03aa21576   6.988   0.505   2.458
    1MUSC O03ab21577   6.824   0.222   2.243
    1MUSC O03ac21578   6.941   0.230   2.458
    1MUSC O03ad21579   6.772   0.222   1.454
    1MUSC O03ae21580   6.472   0.230   3.247
    1MUSC O03af21581   7.079   0.042   1.446
    1MUSC O03ag21582   6.685   0.410   3.255
    1MUSC O03ah21583   6.516   0.042   2.252
    1MUSC O03ai21584   6.728   0.410   2.449
    1MUSC O03aj21585   6.939   0.291   1.665
    1MUSC O03ak21586   6.825   0.162   3.036
    1MUSC O03al21587   6.657   0.291   2.032
    1MUSC O03am21588   6.587   0.162   2.669
    1MUSC O03an21589   6.918   0.328   2.013
    1MUSC O03ao21590   6.847   0.125   2.688
    1MUSC O03ap21591   6.678   0.328   1.685
    1MUSC O03aq21592   6.566   0.125   3.016
    1MUSC O03ar21593   6.818   0.084   2.013
    1MUSC O03as21594   6.947   0.368   2.688
    1MUSC O03at21595   6.778   0.084   1.684
    1MUSC O03au21596   6.466   0.368   3.017
    1MUSC O03av21597   7.079   0.400   1.454
    1MUSC O03aw21598   6.685   0.052   3.247
    1MUSC O03ax21599   6.516   0.400   2.243
    1MUSC O03ay21600   6.728   0.052   2.458
    1MUSC K00Dx21601   6.629   1.720   0.845
    1MUSC K00Dy21602   6.889   1.268   0.845
    1MUSC Al0bB21603   6.808   1.432   0.343
    1MUSC Al0bC21604   6.802   1.737   0.344
    1MUSC Al0bD21605   7.153   1.432   3.355
    1MUSC Al0bE21606   6.977   1.737   1.346
    1MUSC Al0bF21607   7.068   0.979   0.343
    1MUSC Al0bG21608   7.062   1.284   0.344
    1MUSC Al0bH21609   6.893   0.979   3.355
    1MUSC Al0bI21610   6.717   1.284   1.346
    1MUSC Si1CL21611   6.984   1.747   3.621
    1MUSC Si1CM21612   6.626   1.422   1.080
    1MUSC Si1CN21613   6.978   1.747   0.077
    1MUSC Si1CO21614   7.153   1.422   0.610
    1MUSC Si1CP21615   6.724   1.591   0.077
    1MUSC Si1CQ21616   6.885   1.577   0.610
    1MUSC Si1CR21617   7.237   1.591   3.620
    1MUSC Si1CS21618   6.893   1.577   1.081
    1MUSC Si1CT21619   7.244   1.294   3.621
    1MUSC Si1CU21620   6.886   0.969   1.080
    1MUSC Si1CV21621   6.718   1.294   0.077
    1MUSC Si1CW21622   6.892   0.969   0.610
    1MUSC Si1CX21623   6.985   1.139   0.077
    1MUSC Si1CY21624   7.146   1.124   0.610
    1MUSC Si1CZ21625   6.977   1.139   3.620
    1MUSC Si1Ca21626   6.633   1.124   1.081
    1MUSC O03az21627   6.747   1.580   0.236
    1MUSC O03b021628   6.863   1.588   0.451
    1MUSC O03b121629   7.215   1.580   3.461
    1MUSC O03b221630   6.915   1.588   1.240
    1MUSC O03b321631   7.002   1.400   3.453
    1MUSC O03b421632   6.608   1.768   1.248
    1MUSC O03b521633   6.960   1.400   0.245
    1MUSC O03b621634   7.171   1.768   0.442
    1MUSC O03b721635   6.862   1.649   3.672
    1MUSC O03b821636   6.748   1.520   1.029
    1MUSC O03b921637   7.100   1.649   0.025
    1MUSC O03bA21638   7.031   1.520   0.662
    1MUSC O03bB21639   6.840   1.686   0.006
    1MUSC O03bC21640   6.769   1.483   0.681
    1MUSC O03bD21641   7.121   1.686   3.692
    1MUSC O03bE21642   7.009   1.483   1.009
    1MUSC O03bF21643   6.741   1.442   0.006
    1MUSC O03bG21644   6.869   1.726   0.681
    1MUSC O03bH21645   7.221   1.442   3.691
    1MUSC O03bI21646   6.909   1.726   1.010
    1MUSC O03bJ21647   7.002   1.758   3.461
    1MUSC O03bK21648   6.608   1.410   1.240
    1MUSC O03bL21649   6.960   1.758   0.236
    1MUSC O03bM21650   7.171   1.410   0.451
    1MUSC O03bN21651   7.007   1.127   0.236
    1MUSC O03bO21652   7.124   1.136   0.451
    1MUSC O03bP21653   6.955   1.127   3.461
    1MUSC O03bQ21654   6.655   1.136   1.240
    1MUSC O03bR21655   7.262   0.948   3.453
    1MUSC O03bS21656   6.868   1.316   1.248
    1MUSC O03bT21657   6.699   0.948   0.245
    1MUSC O03bU21658   6.911   1.316   0.442
    1MUSC O03bV21659   7.122   1.196   3.672
    1MUSC O03bW21660   7.008   1.067   1.029
    1MUSC O03bX21661   6.840   1.196   0.025
    1MUSC O03bY21662   6.770   1.067   0.662
    1MUSC O03bZ21663   7.101   1.233   0.006
    1MUSC O03ba21664   7.030   1.030   0.681
    1MUSC O03bb21665   6.861   1.233   3.692
    1MUSC O03bc21666   6.749   1.030   1.009
    1MUSC O03bd21667   7.001   0.990   0.006
    1MUSC O03be21668   7.130   1.274   0.681
    1MUSC O03bf21669   6.961   0.990   3.691
    1MUSC O03bg21670   6.649   1.274   1.010
    1MUSC O03bh21671   7.262   1.306   3.461
    1MUSC O03bi21672   6.868   0.958   1.240
    1MUSC O03bj21673   6.699   1.306   0.236
    1MUSC O03bk21674   6.911   0.958   0.451
    1MUSC K00Dz21675   6.798   1.448   1.849
    1MUSC K00E021676   6.446   1.720   2.852
    1MUSC K00E121677   6.538   0.996   1.849
    1MUSC K00E221678   6.706   1.268   2.852
    1MUSC Al0bJ21679   6.625   1.432   2.350
    1MUSC Al0bK21680   6.619   1.737   2.351
    1MUSC Al0bL21681   6.970   1.432   1.348
    1MUSC Al0bM21682   6.794   1.737   3.353
    1MUSC Al0bN21683   6.885   0.979   2.350
    1MUSC Al0bO21684   6.879   1.284   2.351
    1MUSC Al0bP21685   6.710   0.979   1.348
    1MUSC Al0bQ21686   6.534   1.284   3.353
    1MUSC Si1Cb21687   6.801   1.747   1.614
    1MUSC Si1Cc21688   6.443   1.422   3.087
    1MUSC Si1Cd21689   6.795   1.747   2.084
    1MUSC Si1Ce21690   6.970   1.422   2.617
    1MUSC Si1Cf21691   6.541   1.591   2.084
    1MUSC Si1Cg21692   6.702   1.577   2.617
    1MUSC Si1Ch21693   7.054   1.591   1.613
    1MUSC Si1Ci21694   6.710   1.577   3.088
    1MUSC Si1Cj21695   7.061   1.294   1.614
    1MUSC Si1Ck21696   6.703   0.969   3.087
    1MUSC Si1Cl21697   6.535   1.294   2.084
    1MUSC Si1Cm21698   6.709   0.969   2.617
    1MUSC Si1Cn21699   6.802   1.139   2.084
    1MUSC Si1Co21700   6.963   1.124   2.617
    1MUSC Si1Cp21701   6.794   1.139   1.613
    1MUSC Si1Cq21702   6.450   1.124   3.088
    1MUSC O03bl21703   6.564   1.580   2.243
    1MUSC O03bm21704   6.680   1.588   2.458
    1MUSC O03bn21705   7.032   1.580   1.454
    1MUSC O03bo21706   6.732   1.588   3.247
    1MUSC O03bp21707   6.819   1.400   1.446
    1MUSC O03bq21708   6.425   1.768   3.255
    1MUSC O03br21709   6.777   1.400   2.252
    1MUSC O03bs21710   6.988   1.768   2.449
    1MUSC O03bt21711   6.679   1.649   1.665
    1MUSC O03bu21712   6.565   1.520   3.036
    1MUSC O03bv21713   6.917   1.649   2.032
    1MUSC O03bw21714   6.848   1.520   2.669
    1MUSC O03bx21715   6.657   1.686   2.013
    1MUSC O03by21716   6.586   1.483   2.688
    1MUSC O03bz21717   6.938   1.686   1.685
    1MUSC O03c021718   6.826   1.483   3.016
    1MUSC O03c121719   6.558   1.442   2.013
    1MUSC O03c221720   6.686   1.726   2.688
    1MUSC O03c321721   7.038   1.442   1.684
    1MUSC O03c421722   6.726   1.726   3.017
    1MUSC O03c521723   6.819   1.758   1.454
    1MUSC O03c621724   6.425   1.410   3.247
    1MUSC O03c721725   6.777   1.758   2.243
    1MUSC O03c821726   6.988   1.410   2.458
    1MUSC O03c921727   6.824   1.127   2.243
    1MUSC O03cA21728   6.941   1.136   2.458
    1MUSC O03cB21729   6.772   1.127   1.454
    1MUSC O03cC21730   6.472   1.136   3.247
    1MUSC O03cD21731   7.079   0.948   1.446
    1MUSC O03cE21732   6.685   1.316   3.255
    1MUSC O03cF21733   6.516   0.948   2.252
    1MUSC O03cG21734   6.728   1.316   2.449
    1MUSC O03cH21735   6.939   1.196   1.665
    1MUSC O03cI21736   6.825   1.067   3.036
    1MUSC O03cJ21737   6.657   1.196   2.032
    1MUSC O03cK21738   6.587   1.067   2.669
    1MUSC O03cL21739   6.918   1.233   2.013
    1MUSC O03cM21740   6.847   1.030   2.688
    1MUSC O03cN21741   6.678   1.233   1.685
    1MUSC O03cO21742   6.566   1.030   3.016
    1MUSC O03cP21743   6.818   0.990   2.013
    1MUSC O03cQ21744   6.947   1.274   2.688
    1MUSC O03cR21745   6.778   0.990   1.684
    1MUSC O03cS21746   6.466   1.274   3.017
    1MUSC O03cT21747   7.079   1.306   1.454
    1MUSC O03cU21748   6.685   0.958   3.247
    1MUSC O03cV21749   6.516   1.306   2.243
    1MUSC O03cW21750   6.728   0.958   2.458
    1MUSC K00E321751   6.629   2.626   0.845
    1MUSC K00E421752   6.889   2.173   0.845
    1MUSC Al0bR21753   6.808   2.337   0.343
    1MUSC Al0bS21754   6.802   2.642   0.344
    1MUSC Al0bT21755   7.153   2.337   3.355
    1MUSC Al0bU21756   6.977   2.642   1.346
    1MUSC Al0bV21757   7.068   1.884   0.343
    1MUSC Al0bW21758   7.062   2.189   0.344
    1MUSC Al0bX21759   6.893   1.884   3.355
    1MUSC Al0bY21760   6.717   2.189   1.346
    1MUSC Si1Cr21761   6.984   2.652   3.621
    1MUSC Si1Cs21762   6.626   2.327   1.080
    1MUSC Si1Ct21763   6.978   2.652   0.077
    1MUSC Si1Cu21764   7.153   2.327   0.610
    1MUSC Si1Cv21765   6.724   2.497   0.077
    1MUSC Si1Cw21766   6.885   2.482   0.610
    1MUSC Si1Cx21767   7.237   2.497   3.620
    1MUSC Si1Cy21768   6.893   2.482   1.081
    1MUSC Si1Cz21769   7.244   2.199   3.621
    1MUSC Si1D021770   6.886   1.874   1.080
    1MUSC Si1D121771   6.718   2.199   0.077
    1MUSC Si1D221772   6.892   1.874   0.610
    1MUSC Si1D321773   6.985   2.044   0.077
    1MUSC Si1D421774   7.146   2.030   0.610
    1MUSC Si1D521775   6.977   2.044   3.620
    1MUSC Si1D621776   6.633   2.030   1.081
    1MUSC O03cX21777   6.747   2.485   0.236
    1MUSC O03cY21778   6.863   2.494   0.451
    1MUSC O03cZ21779   7.215   2.485   3.461
    1MUSC O03ca21780   6.915   2.494   1.240
    1MUSC O03cb21781   7.002   2.305   3.453
    1MUSC O03cc21782   6.608   2.674   1.248
    1MUSC O03cd21783   6.960   2.305   0.245
    1MUSC O03ce21784   7.171   2.674   0.442
    1MUSC O03cf21785   6.862   2.554   3.672
    1MUSC O03cg21786   6.748   2.425   1.029
    1MUSC O03ch21787   7.100   2.554   0.025
    1MUSC O03ci21788   7.031   2.425   0.662
    1MUSC O03cj21789   6.840   2.591   0.006
    1MUSC O03ck21790   6.769   2.388   0.681
    1MUSC O03cl21791   7.121   2.591   3.692
    1MUSC O03cm21792   7.009   2.388   1.009
    1MUSC O03cn21793   6.741   2.347   0.006
    1MUSC O03co21794   6.869   2.632   0.681
    1MUSC O03cp21795   7.221   2.347   3.691
    1MUSC O03cq21796   6.909   2.632   1.010
    1MUSC O03cr21797   7.002   2.663   3.461
    1MUSC O03cs21798   6.608   2.316   1.240
    1MUSC O03ct21799   6.960   2.663   0.236
    1MUSC O03cu21800   7.171   2.316   0.451
    1MUSC O03cv21801   7.007   2.033   0.236
    1MUSC O03cw21802   7.124   2.041   0.451
    1MUSC O03cx21803   6.955   2.033   3.461
    1MUSC O03cy21804   6.655   2.041   1.240
    1MUSC O03cz21805   7.262   1.853   3.453
    1MUSC O03d021806   6.868   2.221   1.248
    1MUSC O03d121807   6.699   1.853   0.245
    1MUSC O03d221808   6.911   2.221   0.442
    1MUSC O03d321809   7.122   2.101   3.672
    1MUSC O03d421810   7.008   1.972   1.029
    1MUSC O03d521811   6.840   2.101   0.025
    1MUSC O03d621812   6.770   1.972   0.662
    1MUSC O03d721813   7.101   2.139   0.006
    1MUSC O03d821814   7.030   1.935   0.681
    1MUSC O03d921815   6.861   2.139   3.692
    1MUSC O03dA21816   6.749   1.935   1.009
    1MUSC O03dB21817   7.001   1.895   0.006
    1MUSC O03dC21818   7.130   2.179   0.681
    1MUSC O03dD21819   6.961   1.895   3.691
    1MUSC O03dE21820   6.649   2.179   1.010
    1MUSC O03dF21821   7.262   2.211   3.461
    1MUSC O03dG21822   6.868   1.863   1.240
    1MUSC O03dH21823   6.699   2.211   0.236
    1MUSC O03dI21824   6.911   1.863   0.451
    1MUSC K00E521825   6.798   2.353   1.849
    1MUSC K00E621826   6.446   2.626   2.852
    1MUSC K00E721827   6.538   1.901   1.849
    1MUSC K00E821828   6.706   2.173   2.852
    1MUSC Al0bZ21829   6.625   2.337   2.350
    1MUSC Al0ba21830   6.619   2.642   2.351
    1MUSC Al0bb21831   6.970   2.337   1.348
    1MUSC Al0bc21832   6.794   2.642   3.353
    1MUSC Al0bd21833   6.885   1.884   2.350
    1MUSC Al0be21834   6.879   2.189   2.351
    1MUSC Al0bf21835   6.710   1.884   1.348
    1MUSC Al0bg21836   6.534   2.189   3.353
    1MUSC Si1D721837   6.801   2.652   1.614
    1MUSC Si1D821838   6.443   2.327   3.087
    1MUSC Si1D921839   6.795   2.652   2.084
    1MUSC Si1DA21840   6.970   2.327   2.617
    1MUSC Si1DB21841   6.541   2.497   2.084
    1MUSC Si1DC21842   6.702   2.482   2.617
    1MUSC Si1DD21843   7.054   2.497   1.613
    1MUSC Si1DE21844   6.710   2.482   3.088
    1MUSC Si1DF21845   7.061   2.199   1.614
    1MUSC Si1DG21846   6.703   1.874   3.087
    1MUSC Si1DH21847   6.535   2.199   2.084
    1MUSC Si1DI21848   6.709   1.874   2.617
    1MUSC Si1DJ21849   6.802   2.044   2.084
    1MUSC Si1DK21850   6.963   2.030   2.617
    1MUSC Si1DL21851   6.794   2.044   1.613
    1MUSC Si1DM21852   6.450   2.030   3.088
    1MUSC O03dJ21853   6.564   2.485   2.243
    1MUSC O03dK21854   6.680   2.494   2.458
    1MUSC O03dL21855   7.032   2.485   1.454
    1MUSC O03dM21856   6.732   2.494   3.247
    1MUSC O03dN21857   6.819   2.305   1.446
    1MUSC O03dO21858   6.425   2.674   3.255
    1MUSC O03dP21859   6.777   2.305   2.252
    1MUSC O03dQ21860   6.988   2.674   2.449
    1MUSC O03dR21861   6.679   2.554   1.665
    1MUSC O03dS21862   6.565   2.425   3.036
    1MUSC O03dT21863   6.917   2.554   2.032
    1MUSC O03dU21864   6.848   2.425   2.669
    1MUSC O03dV21865   6.657   2.591   2.013
    1MUSC O03dW21866   6.586   2.388   2.688
    1MUSC O03dX21867   6.938   2.591   1.685
    1MUSC O03dY21868   6.826   2.388   3.016
    1MUSC O03dZ21869   6.558   2.347   2.013
    1MUSC O03da21870   6.686   2.632   2.688
    1MUSC O03db21871   7.038   2.347   1.684
    1MUSC O03dc21872   6.726   2.632   3.017
    1MUSC O03dd21873   6.819   2.663   1.454
    1MUSC O03de21874   6.425   2.316   3.247
    1MUSC O03df21875   6.777   2.663   2.243
    1MUSC O03dg21876   6.988   2.316   2.458
    1MUSC O03dh21877   6.824   2.033   2.243
    1MUSC O03di21878   6.941   2.041   2.458
    1MUSC O03dj21879   6.772   2.033   1.454
    1MUSC O03dk21880   6.472   2.041   3.247
    1MUSC O03dl21881   7.079   1.853   1.446
    1MUSC O03dm21882   6.685   2.221   3.255
    1MUSC O03dn21883   6.516   1.853   2.252
    1MUSC O03do21884   6.728   2.221   2.449
    1MUSC O03dp21885   6.939   2.101   1.665
    1MUSC O03dq21886   6.825   1.972   3.036
    1MUSC O03dr21887   6.657   2.101   2.032
    1MUSC O03ds21888   6.587   1.972   2.669
    1MUSC O03dt21889   6.918   2.139   2.013
    1MUSC O03du21890   6.847   1.935   2.688
    1MUSC O03dv21891   6.678   2.139   1.685
    1MUSC O03dw21892   6.566   1.935   3.016
    1MUSC O03dx21893   6.818   1.895   2.013
    1MUSC O03dy21894   6.947   2.179   2.688
    1MUSC O03dz21895   6.778   1.895   1.684
    1MUSC O03e021896   6.466   2.179   3.017
    1MUSC O03e121897   7.079   2.211   1.454
    1MUSC O03e221898   6.685   1.863   3.247
    1MUSC O03e321899   6.516   2.211   2.243
    1MUSC O03e421900   6.728   1.863   2.458
    1MUSC K00E921901   6.629   3.531   0.845
    1MUSC K00EA21902   6.889   3.078   0.845
    1MUSC Al0bh21903   6.808   3.242   0.343
    1MUSC Al0bi21904   6.802   3.547   0.344
    1MUSC Al0bj21905   7.153   3.242   3.355
    1MUSC Al0bk21906   6.977   3.547   1.346
    1MUSC Al0bl21907   7.068   2.790   0.343
    1MUSC Al0bm21908   7.062   3.095   0.344
    1MUSC Al0bn21909   6.893   2.790   3.355
    1MUSC Al0bo21910   6.717   3.095   1.346
    1MUSC Si1DN21911   6.984   3.557   3.621
    1MUSC Si1DO21912   6.626   3.232   1.080
    1MUSC Si1DP21913   6.978   3.557   0.077
    1MUSC Si1DQ21914   7.153   3.232   0.610
    1MUSC Si1DR21915   6.724   3.402   0.077
    1MUSC Si1DS21916   6.885   3.388   0.610
    1MUSC Si1DT21917   7.237   3.402   3.620
    1MUSC Si1DU21918   6.893   3.388   1.081
    1MUSC Si1DV21919   7.244   3.105   3.621
    1MUSC Si1DW21920   6.886   2.780   1.080
    1MUSC Si1DX21921   6.718   3.105   0.077
    1MUSC Si1DY21922   6.892   2.780   0.610
    1MUSC Si1DZ21923   6.985   2.949   0.077
    1MUSC Si1Da21924   7.146   2.935   0.610
    1MUSC Si1Db21925   6.977   2.949   3.620
    1MUSC Si1Dc21926   6.633   2.935   1.081
    1MUSC O03e521927   6.747   3.391   0.236
    1MUSC O03e621928   6.863   3.399   0.451
    1MUSC O03e721929   7.215   3.391   3.461
    1MUSC O03e821930   6.915   3.399   1.240
    1MUSC O03e921931   7.002   3.211   3.453
    1MUSC O03eA21932   6.608   3.579   1.248
    1MUSC O03eB21933   6.960   3.211   0.245
    1MUSC O03eC21934   7.171   3.579   0.442
    1MUSC O03eD21935   6.862   3.459   3.672
    1MUSC O03eE21936   6.748   3.330   1.029
    1MUSC O03eF21937   7.100   3.459   0.025
    1MUSC O03eG21938   7.031   3.330   0.662
    1MUSC O03eH21939   6.840   3.496   0.006
    1MUSC O03eI21940   6.769   3.293   0.681
    1MUSC O03eJ21941   7.121   3.496   3.692
    1MUSC O03eK21942   7.009   3.293   1.009
    1MUSC O03eL21943   6.741   3.253   0.006
    1MUSC O03eM21944   6.869   3.537   0.681
    1MUSC O03eN21945   7.221   3.253   3.691
    1MUSC O03eO21946   6.909   3.537   1.010
    1MUSC O03eP21947   7.002   3.569   3.461
    1MUSC O03eQ21948   6.608   3.221   1.240
    1MUSC O03eR21949   6.960   3.569   0.236
    1MUSC O03eS21950   7.171   3.221   0.451
    1MUSC O03eT21951   7.007   2.938   0.236
    1MUSC O03eU21952   7.124   2.946   0.451
    1MUSC O03eV21953   6.955   2.938   3.461
    1MUSC O03eW21954   6.655   2.946   1.240
    1MUSC O03eX21955   7.262   2.758   3.453
    1MUSC O03eY21956   6.868   3.126   1.248
    1MUSC O03eZ21957   6.699   2.758   0.245
    1MUSC O03ea21958   6.911   3.126   0.442
    1MUSC O03eb21959   7.122   3.007   3.672
    1MUSC O03ec21960   7.008   2.877   1.029
    1MUSC O03ed21961   6.840   3.007   0.025
    1MUSC O03ee21962   6.770   2.877   0.662
    1MUSC O03ef21963   7.101   3.044   0.006
    1MUSC O03eg21964   7.030   2.840   0.681
    1MUSC O03eh21965   6.861   3.044   3.692
    1MUSC O03ei21966   6.749   2.840   1.009
    1MUSC O03ej21967   7.001   2.800   0.006
    1MUSC O03ek21968   7.130   3.084   0.681
    1MUSC O03el21969   6.961   2.800   3.691
    1MUSC O03em21970   6.649   3.084   1.010
    1MUSC O03en21971   7.262   3.116   3.461
    1MUSC O03eo21972   6.868   2.768   1.240
    1MUSC O03ep21973   6.699   3.116   0.236
    1MUSC O03eq21974   6.911   2.768   0.451
    1MUSC K00EB21975   6.798   3.259   1.849
    1MUSC K00EC21976   6.446   3.531   2.852
    1MUSC K00ED21977   6.538   2.806   1.849
    1MUSC K00EE21978   6.706   3.078   2.852
    1MUSC Al0bp21979   6.625   3.242   2.350
    1MUSC Al0bq21980   6.619   3.547   2.351
    1MUSC Al0br21981   6.970   3.242   1.348
    1MUSC Al0bs21982   6.794   3.547   3.353
    1MUSC Al0bt21983   6.885   2.790   2.350
    1MUSC Al0bu21984   6.879   3.095   2.351
    1MUSC Al0bv21985   6.710   2.790   1.348
    1MUSC Al0bw21986   6.534   3.095   3.353
    1MUSC Si1Dd21987   6.801   3.557   1.614
    1MUSC Si1De21988   6.443   3.232   3.087
    1MUSC Si1Df21989   6.795   3.557   2.084
    1MUSC Si1Dg21990   6.970   3.232   2.617
    1MUSC Si1Dh21991   6.541   3.402   2.084
    1MUSC Si1Di21992   6.702   3.388   2.617
    1MUSC Si1Dj21993   7.054   3.402   1.613
    1MUSC Si1Dk21994   6.710   3.388   3.088
    1MUSC Si1Dl21995   7.061   3.105   1.614
    1MUSC Si1Dm21996   6.703   2.780   3.087
    1MUSC Si1Dn21997   6.535   3.105   2.084
    1MUSC Si1Do21998   6.709   2.780   2.617
    1MUSC Si1Dp21999   6.802   2.949   2.084
    1MUSC Si1Dq22000   6.963   2.935   2.617
    1MUSC Si1Dr22001   6.794   2.949   1.613
    1MUSC Si1Ds22002   6.450   2.935   3.088
    1MUSC O03er22003   6.564   3.391   2.243
    1MUSC O03es22004   6.680   3.399   2.458
    1MUSC O03et22005   7.032   3.391   1.454
    1MUSC O03eu22006   6.732   3.399   3.247
    1MUSC O03ev22007   6.819   3.211   1.446
    1MUSC O03ew22008   6.425   3.579   3.255
    1MUSC O03ex22009   6.777   3.211   2.252
    1MUSC O03ey22010   6.988   3.579   2.449
    1MUSC O03ez22011   6.679   3.459   1.665
    1MUSC O03f022012   6.565   3.330   3.036
    1MUSC O03f122013   6.917   3.459   2.032
    1MUSC O03f222014   6.848   3.330   2.669
    1MUSC O03f322015   6.657   3.496   2.013
    1MUSC O03f422016   6.586   3.293   2.688
    1MUSC O03f522017   6.938   3.496   1.685
    1MUSC O03f622018   6.826   3.293   3.016
    1MUSC O03f722019   6.558   3.253   2.013
    1MUSC O03f822020   6.686   3.537   2.688
    1MUSC O03f922021   7.038   3.253   1.684
    1MUSC O03fA22022   6.726   3.537   3.017
    1MUSC O03fB22023   6.819   3.569   1.454
    1MUSC O03fC22024   6.425   3.221   3.247
    1MUSC O03fD22025   6.777   3.569   2.243
    1MUSC O03fE22026   6.988   3.221   2.458
    1MUSC O03fF22027   6.824   2.938   2.243
    1MUSC O03fG22028   6.941   2.946   2.458
    1MUSC O03fH22029   6.772   2.938   1.454
    1MUSC O03fI22030   6.472   2.946   3.247
    1MUSC O03fJ22031   7.079   2.758   1.446
    1MUSC O03fK22032   6.685   3.126   3.255
    1MUSC O03fL22033   6.516   2.758   2.252
    1MUSC O03fM22034   6.728   3.126   2.449
    1MUSC O03fN22035   6.939   3.007   1.665
    1MUSC O03fO22036   6.825   2.877   3.036
    1MUSC O03fP22037   6.657   3.007   2.032
    1MUSC O03fQ22038   6.587   2.877   2.669
    1MUSC O03fR22039   6.918   3.044   2.013
    1MUSC O03fS22040   6.847   2.840   2.688
    1MUSC O03fT22041   6.678   3.044   1.685
    1MUSC O03fU22042   6.566   2.840   3.016
    1MUSC O03fV22043   6.818   2.800   2.013
    1MUSC O03fW22044   6.947   3.084   2.688
    1MUSC O03fX22045   6.778   2.800   1.684
    1MUSC O03fY22046   6.466   3.084   3.017
    1MUSC O03fZ22047   7.079   3.116   1.454
    1MUSC O03fa22048   6.685   2.768   3.247
    1MUSC O03fb22049   6.516   3.116   2.243
    1MUSC O03fc22050   6.728   2.768   2.458
    1MUSC K00EF22051   6.629   4.436   0.845
    1MUSC K00EG22052   6.889   3.983   0.845
    1MUSC Al0bx22053   6.808   4.147   0.343
    1MUSC Al0by22054   6.802   4.453   0.344
    1MUSC Al0bz22055   7.153   4.147   3.355
    1MUSC Al0c022056   6.977   4.453   1.346
    1MUSC Al0c122057   7.068   3.695   0.343
    1MUSC Al0c222058   7.062   4.000   0.344
    1MUSC Al0c322059   6.893   3.695   3.355
    1MUSC Al0c422060   6.717   4.000   1.346
    1MUSC Si1Dt22061   6.984   4.462   3.621
    1MUSC Si1Du22062   6.626   4.138   1.080
    1MUSC Si1Dv22063   6.978   4.462   0.077
    1MUSC Si1Dw22064   7.153   4.138   0.610
    1MUSC Si1Dx22065   6.724   4.307   0.077
    1MUSC Si1Dy22066   6.885   4.293   0.610
    1MUSC Si1Dz22067   7.237   4.307   3.620
    1MUSC Si1E022068   6.893   4.293   1.081
    1MUSC Si1E122069   7.244   4.010   3.621
    1MUSC Si1E222070   6.886   3.685   1.080
    1MUSC Si1E322071   6.718   4.010   0.077
    1MUSC Si1E422072   6.892   3.685   0.610
    1MUSC Si1E522073   6.985   3.855   0.077
    1MUSC Si1E622074   7.146   3.840   0.610
    1MUSC Si1E722075   6.977   3.855   3.620
    1MUSC Si1E822076   6.633   3.840   1.081
    1MUSC O03fd22077   6.747   4.296   0.236
    1MUSC O03fe22078   6.863   4.304   0.451
    1MUSC O03ff22079   7.215   4.296   3.461
    1MUSC O03fg22080   6.915   4.304   1.240
    1MUSC O03fh22081   7.002   4.116   3.453
    1MUSC O03fi22082   6.608   4.484   1.248
    1MUSC O03fj22083   6.960   4.116   0.245
    1MUSC O03fk22084   7.171   4.484   0.442
    1MUSC O03fl22085   6.862   4.365   3.672
    1MUSC O03fm22086   6.748   4.235   1.029
    1MUSC O03fn22087   7.100   4.365   0.025
    1MUSC O03fo22088   7.031   4.235   0.662
    1MUSC O03fp22089   6.840   4.402   0.006
    1MUSC O03fq22090   6.769   4.198   0.681
    1MUSC O03fr22091   7.121   4.402   3.692
    1MUSC O03fs22092   7.009   4.198   1.009
    1MUSC O03ft22093   6.741   4.158   0.006
    1MUSC O03fu22094   6.869   4.442   0.681
    1MUSC O03fv22095   7.221   4.158   3.691
    1MUSC O03fw22096   6.909   4.442   1.010
    1MUSC O03fx22097   7.002   4.474   3.461
    1MUSC O03fy22098   6.608   4.126   1.240
    1MUSC O03fz22099   6.960   4.474   0.236
    1MUSC O03g022100   7.171   4.126   0.451
    1MUSC O03g122101   7.007   3.843   0.236
    1MUSC O03g222102   7.124   3.852   0.451
    1MUSC O03g322103   6.955   3.843   3.461
    1MUSC O03g422104   6.655   3.852   1.240
    1MUSC O03g522105   7.262   3.663   3.453
    1MUSC O03g622106   6.868   4.031   1.248
    1MUSC O03g722107   6.699   3.663   0.245
    1MUSC O03g822108   6.911   4.031   0.442
    1MUSC O03g922109   7.122   3.912   3.672
    1MUSC O03gA22110   7.008   3.783   1.029
    1MUSC O03gB22111   6.840   3.912   0.025
    1MUSC O03gC22112   6.770   3.783   0.662
    1MUSC O03gD22113   7.101   3.949   0.006
    1MUSC O03gE22114   7.030   3.746   0.681
    1MUSC O03gF22115   6.861   3.949   3.692
    1MUSC O03gG22116   6.749   3.746   1.009
    1MUSC O03gH22117   7.001   3.705   0.006
    1MUSC O03gI22118   7.130   3.989   0.681
    1MUSC O03gJ22119   6.961   3.705   3.691
    1MUSC O03gK22120   6.649   3.989   1.010
    1MUSC O03gL22121   7.262   4.021   3.461
    1MUSC O03gM22122   6.868   3.673   1.240
    1MUSC O03gN22123   6.699   4.021   0.236
    1MUSC O03gO22124   6.911   3.673   0.451
    1MUSC K00EH22125   6.798   4.164   1.849
    1MUSC K00EI22126   6.446   4.436   2.852
    1MUSC K00EJ22127   6.538   3.711   1.849
    1MUSC K00EK22128   6.706   3.983   2.852
    1MUSC Al0c522129   6.625   4.147   2.350
    1MUSC Al0c622130   6.619   4.453   2.351
    1MUSC Al0c722131   6.970   4.147   1.348
    1MUSC Al0c822132   6.794   4.453   3.353
    1MUSC Al0c922133   6.885   3.695   2.350
    1MUSC Al0cA22134   6.879   4.000   2.351
    1MUSC Al0cB22135   6.710   3.695   1.348
    1MUSC Al0cC22136   6.534   4.000   3.353
    1MUSC Si1E922137   6.801   4.462   1.614
    1MUSC Si1EA22138   6.443   4.138   3.087
    1MUSC Si1EB22139   6.795   4.462   2.084
    1MUSC Si1EC22140   6.970   4.138   2.617
    1MUSC Si1ED22141   6.541   4.307   2.084
    1MUSC Si1EE22142   6.702   4.293   2.617
    1MUSC Si1EF22143   7.054   4.307   1.613
    1MUSC Si1EG22144   6.710   4.293   3.088
    1MUSC Si1EH22145   7.061   4.010   1.614
    1MUSC Si1EI22146   6.703   3.685   3.087
    1MUSC Si1EJ22147   6.535   4.010   2.084
    1MUSC Si1EK22148   6.709   3.685   2.617
    1MUSC Si1EL22149   6.802   3.855   2.084
    1MUSC Si1EM22150   6.963   3.840   2.617
    1MUSC Si1EN22151   6.794   3.855   1.613
    1MUSC Si1EO22152   6.450   3.840   3.088
    1MUSC O03gP22153   6.564   4.296   2.243
    1MUSC O03gQ22154   6.680   4.304   2.458
    1MUSC O03gR22155   7.032   4.296   1.454
    1MUSC O03gS22156   6.732   4.304   3.247
    1MUSC O03gT22157   6.819   4.116   1.446
    1MUSC O03gU22158   6.425   4.484   3.255
    1MUSC O03gV22159   6.777   4.116   2.252
    1MUSC O03gW22160   6.988   4.484   2.449
    1MUSC O03gX22161   6.679   4.365   1.665
    1MUSC O03gY22162   6.565   4.235   3.036
    1MUSC O03gZ22163   6.917   4.365   2.032
    1MUSC O03ga22164   6.848   4.235   2.669
    1MUSC O03gb22165   6.657   4.402   2.013
    1MUSC O03gc22166   6.586   4.198   2.688
    1MUSC O03gd22167   6.938   4.402   1.685
    1MUSC O03ge22168   6.826   4.198   3.016
    1MUSC O03gf22169   6.558   4.158   2.013
    1MUSC O03gg22170   6.686   4.442   2.688
    1MUSC O03gh22171   7.038   4.158   1.684
    1MUSC O03gi22172   6.726   4.442   3.017
    1MUSC O03gj22173   6.819   4.474   1.454
    1MUSC O03gk22174   6.425   4.126   3.247
    1MUSC O03gl22175   6.777   4.474   2.243
    1MUSC O03gm22176   6.988   4.126   2.458
    1MUSC O03gn22177   6.824   3.843   2.243
    1MUSC O03go22178   6.941   3.852   2.458
    1MUSC O03gp22179   6.772   3.843   1.454
    1MUSC O03gq22180   6.472   3.852   3.247
    1MUSC O03gr22181   7.079   3.663   1.446
    1MUSC O03gs22182   6.685   4.031   3.255
    1MUSC O03gt22183   6.516   3.663   2.252
    1MUSC O03gu22184   6.728   4.031   2.449
    1MUSC O03gv22185   6.939   3.912   1.665
    1MUSC O03gw22186   6.825   3.783   3.036
    1MUSC O03gx22187   6.657   3.912   2.032
    1MUSC O03gy22188   6.587   3.783   2.669
    1MUSC O03gz22189   6.918   3.949   2.013
    1MUSC O03h022190   6.847   3.746   2.688
    1MUSC O03h122191   6.678   3.949   1.685
    1MUSC O03h222192   6.566   3.746   3.016
    1MUSC O03h322193   6.818   3.705   2.013
    1MUSC O03h422194   6.947   3.989   2.688
    1MUSC O03h522195   6.778   3.705   1.684
    1MUSC O03h622196   6.466   3.989   3.017
    1MUSC O03h722197   7.079   4.021   1.454
    1MUSC O03h822198   6.685   3.673   3.247
    1MUSC O03h922199   6.516   4.021   2.243
    1MUSC O03hA22200   6.728   3.673   2.458
    1MUSC K00EL22201   6.629   5.341   0.845
    1MUSC K00EM22202   6.889   4.889   0.845
    1MUSC Al0cD22203   6.808   5.053   0.343
    1MUSC Al0cE22204   6.802   5.358   0.344
    1MUSC Al0cF22205   7.153   5.053   3.355
    1MUSC Al0cG22206   6.977   5.358   1.346
    1MUSC Al0cH22207   7.068   4.600   0.343
    1MUSC Al0cI22208   7.062   4.905   0.344
    1MUSC Al0cJ22209   6.893   4.600   3.355
    1MUSC Al0cK22210   6.717   4.905   1.346
    1MUSC Si1EP22211   6.984   5.368   3.621
    1MUSC Si1EQ22212   6.626   5.043   1.080
    1MUSC Si1ER22213   6.978   5.368   0.077
    1MUSC Si1ES22214   7.153   5.043   0.610
    1MUSC Si1ET22215   6.724   5.212   0.077
    1MUSC Si1EU22216   6.885   5.198   0.610
    1MUSC Si1EV22217   7.237   5.212   3.620
    1MUSC Si1EW22218   6.893   5.198   1.081
    1MUSC Si1EX22219   7.244   4.915   3.621
    1MUSC Si1EY22220   6.886   4.590   1.080
    1MUSC Si1EZ22221   6.718   4.915   0.077
    1MUSC Si1Ea22222   6.892   4.590   0.610
    1MUSC Si1Eb22223   6.985   4.760   0.077
    1MUSC Si1Ec22224   7.146   4.746   0.610
    1MUSC Si1Ed22225   6.977   4.760   3.620
    1MUSC Si1Ee22226   6.633   4.746   1.081
    1MUSC O03hB22227   6.747   5.201   0.236
    1MUSC O03hC22228   6.863   5.209   0.451
    1MUSC O03hD22229   7.215   5.201   3.461
    1MUSC O03hE22230   6.915   5.209   1.240
    1MUSC O03hF22231   7.002   5.021   3.453
    1MUSC O03hG22232   6.608   5.389   1.248
    1MUSC O03hH22233   6.960   5.021   0.245
    1MUSC O03hI22234   7.171   5.389   0.442
    1MUSC O03hJ22235   6.862   5.270   3.672
    1MUSC O03hK22236   6.748   5.141   1.029
    1MUSC O03hL22237   7.100   5.270   0.025
    1MUSC O03hM22238   7.031   5.141   0.662
    1MUSC O03hN22239   6.840   5.307   0.006
    1MUSC O03hO22240   6.769   5.104   0.681
    1MUSC O03hP22241   7.121   5.307   3.692
    1MUSC O03hQ22242   7.009   5.104   1.009
    1MUSC O03hR22243   6.741   5.063   0.006
    1MUSC O03hS22244   6.869   5.347   0.681
    1MUSC O03hT22245   7.221   5.063   3.691
    1MUSC O03hU22246   6.909   5.347   1.010
    1MUSC O03hV22247   7.002   5.379   3.461
    1MUSC O03hW22248   6.608   5.031   1.240
    1MUSC O03hX22249   6.960   5.379   0.236
    1MUSC O03hY22250   7.171   5.031   0.451
    1MUSC O03hZ22251   7.007   4.749   0.236
    1MUSC O03ha22252   7.124   4.757   0.451
    1MUSC O03hb22253   6.955   4.749   3.461
    1MUSC O03hc22254   6.655   4.757   1.240
    1MUSC O03hd22255   7.262   4.569   3.453
    1MUSC O03he22256   6.868   4.937   1.248
    1MUSC O03hf22257   6.699   4.569   0.245
    1MUSC O03hg22258   6.911   4.937   0.442
    1MUSC O03hh22259   7.122   4.817   3.672
    1MUSC O03hi22260   7.008   4.688   1.029
    1MUSC O03hj22261   6.840   4.817   0.025
    1MUSC O03hk22262   6.770   4.688   0.662
    1MUSC O03hl22263   7.101   4.854   0.006
    1MUSC O03hm22264   7.030   4.651   0.681
    1MUSC O03hn22265   6.861   4.854   3.692
    1MUSC O03ho22266   6.749   4.651   1.009
    1MUSC O03hp22267   7.001   4.611   0.006
    1MUSC O03hq22268   7.130   4.895   0.681
    1MUSC O03hr22269   6.961   4.611   3.691
    1MUSC O03hs22270   6.649   4.895   1.010
    1MUSC O03ht22271   7.262   4.927   3.461
    1MUSC O03hu22272   6.868   4.579   1.240
    1MUSC O03hv22273   6.699   4.927   0.236
    1MUSC O03hw22274   6.911   4.579   0.451
    1MUSC K00EN22275   6.798   5.069   1.849
    1MUSC K00EO22276   6.446   5.341   2.852
    1MUSC K00EP22277   6.538   4.617   1.849
    1MUSC K00EQ22278   6.706   4.889   2.852
    1MUSC Al0cL22279   6.625   5.053   2.350
    1MUSC Al0cM22280   6.619   5.358   2.351
    1MUSC Al0cN22281   6.970   5.053   1.348
    1MUSC Al0cO22282   6.794   5.358   3.353
    1MUSC Al0cP22283   6.885   4.600   2.350
    1MUSC Al0cQ22284   6.879   4.905   2.351
    1MUSC Al0cR22285   6.710   4.600   1.348
    1MUSC Al0cS22286   6.534   4.905   3.353
    1MUSC Si1Ef22287   6.801   5.368   1.614
    1MUSC Si1Eg22288   6.443   5.043   3.087
    1MUSC Si1Eh22289   6.795   5.368   2.084
    1MUSC Si1Ei22290   6.970   5.043   2.617
    1MUSC Si1Ej22291   6.541   5.212   2.084
    1MUSC Si1Ek22292   6.702   5.198   2.617
    1MUSC Si1El22293   7.054   5.212   1.613
    1MUSC Si1Em22294   6.710   5.198   3.088
    1MUSC Si1En22295   7.061   4.915   1.614
    1MUSC Si1Eo22296   6.703   4.590   3.087
    1MUSC Si1Ep22297   6.535   4.915   2.084
    1MUSC Si1Eq22298   6.709   4.590   2.617
    1MUSC Si1Er22299   6.802   4.760   2.084
    1MUSC Si1Es22300   6.963   4.746   2.617
    1MUSC Si1Et22301   6.794   4.760   1.613
    1MUSC Si1Eu22302   6.450   4.746   3.088
    1MUSC O03hx22303   6.564   5.201   2.243
    1MUSC O03hy22304   6.680   5.209   2.458
    1MUSC O03hz22305   7.032   5.201   1.454
    1MUSC O03i022306   6.732   5.209   3.247
    1MUSC O03i122307   6.819   5.021   1.446
    1MUSC O03i222308   6.425   5.389   3.255
    1MUSC O03i322309   6.777   5.021   2.252
    1MUSC O03i422310   6.988   5.389   2.449
    1MUSC O03i522311   6.679   5.270   1.665
    1MUSC O03i622312   6.565   5.141   3.036
    1MUSC O03i722313   6.917   5.270   2.032
    1MUSC O03i822314   6.848   5.141   2.669
    1MUSC O03i922315   6.657   5.307   2.013
    1MUSC O03iA22316   6.586   5.104   2.688
    1MUSC O03iB22317   6.938   5.307   1.685
    1MUSC O03iC22318   6.826   5.104   3.016
    1MUSC O03iD22319   6.558   5.063   2.013
    1MUSC O03iE22320   6.686   5.347   2.688
    1MUSC O03iF22321   7.038   5.063   1.684
    1MUSC O03iG22322   6.726   5.347   3.017
    1MUSC O03iH22323   6.819   5.379   1.454
    1MUSC O03iI22324   6.425   5.031   3.247
    1MUSC O03iJ22325   6.777   5.379   2.243
    1MUSC O03iK22326   6.988   5.031   2.458
    1MUSC O03iL22327   6.824   4.749   2.243
    1MUSC O03iM22328   6.941   4.757   2.458
    1MUSC O03iN22329   6.772   4.749   1.454
    1MUSC O03iO22330   6.472   4.757   3.247
    1MUSC O03iP22331   7.079   4.569   1.446
    1MUSC O03iQ22332   6.685   4.937   3.255
    1MUSC O03iR22333   6.516   4.569   2.252
    1MUSC O03iS22334   6.728   4.937   2.449
    1MUSC O03iT22335   6.939   4.817   1.665
    1MUSC O03iU22336   6.825   4.688   3.036
    1MUSC O03iV22337   6.657   4.817   2.032
    1MUSC O03iW22338   6.587   4.688   2.669
    1MUSC O03iX22339   6.918   4.854   2.013
    1MUSC O03iY22340   6.847   4.651   2.688
    1MUSC O03iZ22341   6.678   4.854   1.685
    1MUSC O03ia22342   6.566   4.651   3.016
    1MUSC O03ib22343   6.818   4.611   2.013
    1MUSC O03ic22344   6.947   4.895   2.688
    1MUSC O03id22345   6.778   4.611   1.684
    1MUSC O03ie22346   6.466   4.895   3.017
    1MUSC O03if22347   7.079   4.927   1.454
    1MUSC O03ig22348   6.685   4.579   3.247
    1MUSC O03ih22349   6.516   4.927   2.243
    1MUSC O03ii22350   6.728   4.579   2.458
    1MUSC K00ER22351   6.629   6.247   0.845
    1MUSC K00ES22352   6.889   5.794   0.845
    1MUSC Al0cT22353   6.808   5.958   0.343
    1MUSC Al0cU22354   6.802   6.263   0.344
    1MUSC Al0cV22355   7.153   5.958   3.355
    1MUSC Al0cW22356   6.977   6.263   1.346
    1MUSC Al0cX22357   7.068   5.505   0.343
    1MUSC Al0cY22358   7.062   5.810   0.344
    1MUSC Al0cZ22359   6.893   5.505   3.355
    1MUSC Al0ca22360   6.717   5.810   1.346
    1MUSC Si1Ev22361   6.984   6.273   3.621
    1MUSC Si1Ew22362   6.626   5.948   1.080
    1MUSC Si1Ex22363   6.978   6.273   0.077
    1MUSC Si1Ey22364   7.153   5.948   0.610
    1MUSC Si1Ez22365   6.724   6.118   0.077
    1MUSC Si1F022366   6.885   6.103   0.610
    1MUSC Si1F122367   7.237   6.118   3.620
    1MUSC Si1F222368   6.893   6.103   1.081
    1MUSC Si1F322369   7.244   5.820   3.621
    1MUSC Si1F422370   6.886   5.495   1.080
    1MUSC Si1F522371   6.718   5.820   0.077
    1MUSC Si1F622372   6.892   5.495   0.610
    1MUSC Si1F722373   6.985   5.665   0.077
    1MUSC Si1F822374   7.146   5.651   0.610
    1MUSC Si1F922375   6.977   5.665   3.620
    1MUSC Si1FA22376   6.633   5.651   1.081
    1MUSC O03ij22377   6.747   6.106   0.236
    1MUSC O03ik22378   6.863   6.115   0.451
    1MUSC O03il22379   7.215   6.106   3.461
    1MUSC O03im22380   6.915   6.115   1.240
    1MUSC O03in22381   7.002   5.927   3.453
    1MUSC O03io22382   6.608   6.295   1.248
    1MUSC O03ip22383   6.960   5.927   0.245
    1MUSC O03iq22384   7.171   6.295   0.442
    1MUSC O03ir22385   6.862   6.175   3.672
    1MUSC O03is22386   6.748   6.046   1.029
    1MUSC O03it22387   7.100   6.175   0.025
    1MUSC O03iu22388   7.031   6.046   0.662
    1MUSC O03iv22389   6.840   6.212   0.006
    1MUSC O03iw22390   6.769   6.009   0.681
    1MUSC O03ix22391   7.121   6.212   3.692
    1MUSC O03iy22392   7.009   6.009   1.009
    1MUSC O03iz22393   6.741   5.969   0.006
    1MUSC O03j022394   6.869   6.253   0.681
    1MUSC O03j122395   7.221   5.969   3.691
    1MUSC O03j222396   6.909   6.253   1.010
    1MUSC O03j322397   7.002   6.285   3.461
    1MUSC O03j422398   6.608   5.937   1.240
    1MUSC O03j522399   6.960   6.285   0.236
    1MUSC O03j622400   7.171   5.937   0.451
    1MUSC O03j722401   7.007   5.654   0.236
    1MUSC O03j822402   7.124   5.662   0.451
    1MUSC O03j922403   6.955   5.654   3.461
    1MUSC O03jA22404   6.655   5.662   1.240
    1MUSC O03jB22405   7.262   5.474   3.453
    1MUSC O03jC22406   6.868   5.842   1.248
    1MUSC O03jD22407   6.699   5.474   0.245
    1MUSC O03jE22408   6.911   5.842   0.442
    1MUSC O03jF22409   7.122   5.723   3.672
    1MUSC O03jG22410   7.008   5.593   1.029
    1MUSC O03jH22411   6.840   5.723   0.025
    1MUSC O03jI22412   6.770   5.593   0.662
    1MUSC O03jJ22413   7.101   5.760   0.006
    1MUSC O03jK22414   7.030   5.556   0.681
    1MUSC O03jL22415   6.861   5.760   3.692
    1MUSC O03jM22416   6.749   5.556   1.009
    1MUSC O03jN22417   7.001   5.516   0.006
    1MUSC O03jO22418   7.130   5.800   0.681
    1MUSC O03jP22419   6.961   5.516   3.691
    1MUSC O03jQ22420   6.649   5.800   1.010
    1MUSC O03jR22421   7.262   5.832   3.461
    1MUSC O03jS22422   6.868   5.484   1.240
    1MUSC O03jT22423   6.699   5.832   0.236
    1MUSC O03jU22424   6.911   5.484   0.451
    1MUSC K00ET22425   6.798   5.975   1.849
    1MUSC K00EU22426   6.446   6.247   2.852
    1MUSC K00EV22427   6.538   5.522   1.849
    1MUSC K00EW22428   6.706   5.794   2.852
    1MUSC Al0cb22429   6.625   5.958   2.350
    1MUSC Al0cc22430   6.619   6.263   2.351
    1MUSC Al0cd22431   6.970   5.958   1.348
    1MUSC Al0ce22432   6.794   6.263   3.353
    1MUSC Al0cf22433   6.885   5.505   2.350
    1MUSC Al0cg22434   6.879   5.810   2.351
    1MUSC Al0ch22435   6.710   5.505   1.348
    1MUSC Al0ci22436   6.534   5.810   3.353
    1MUSC Si1FB22437   6.801   6.273   1.614
    1MUSC Si1FC22438   6.443   5.948   3.087
    1MUSC Si1FD22439   6.795   6.273   2.084
    1MUSC Si1FE22440   6.970   5.948   2.617
    1MUSC Si1FF22441   6.541   6.118   2.084
    1MUSC Si1FG22442   6.702   6.103   2.617
    1MUSC Si1FH22443   7.054   6.118   1.613
    1MUSC Si1FI22444   6.710   6.103   3.088
    1MUSC Si1FJ22445   7.061   5.820   1.614
    1MUSC Si1FK22446   6.703   5.495   3.087
    1MUSC Si1FL22447   6.535   5.820   2.084
    1MUSC Si1FM22448   6.709   5.495   2.617
    1MUSC Si1FN22449   6.802   5.665   2.084
    1MUSC Si1FO22450   6.963   5.651   2.617
    1MUSC Si1FP22451   6.794   5.665   1.613
    1MUSC Si1FQ22452   6.450   5.651   3.088
    1MUSC O03jV22453   6.564   6.106   2.243
    1MUSC O03jW22454   6.680   6.115   2.458
    1MUSC O03jX22455   7.032   6.106   1.454
    1MUSC O03jY22456   6.732   6.115   3.247
    1MUSC O03jZ22457   6.819   5.927   1.446
    1MUSC O03ja22458   6.425   6.295   3.255
    1MUSC O03jb22459   6.777   5.927   2.252
    1MUSC O03jc22460   6.988   6.295   2.449
    1MUSC O03jd22461   6.679   6.175   1.665
    1MUSC O03je22462   6.565   6.046   3.036
    1MUSC O03jf22463   6.917   6.175   2.032
    1MUSC O03jg22464   6.848   6.046   2.669
    1MUSC O03jh22465   6.657   6.212   2.013
    1MUSC O03ji22466   6.586   6.009   2.688
    1MUSC O03jj22467   6.938   6.212   1.685
    1MUSC O03jk22468   6.826   6.009   3.016
    1MUSC O03jl22469   6.558   5.969   2.013
    1MUSC O03jm22470   6.686   6.253   2.688
    1MUSC O03jn22471   7.038   5.969   1.684
    1MUSC O03jo22472   6.726   6.253   3.017
    1MUSC O03jp22473   6.819   6.285   1.454
    1MUSC O03jq22474   6.425   5.937   3.247
    1MUSC O03jr22475   6.777   6.285   2.243
    1MUSC O03js22476   6.988   5.937   2.458
    1MUSC O03jt22477   6.824   5.654   2.243
    1MUSC O03ju22478   6.941   5.662   2.458
    1MUSC O03jv22479   6.772   5.654   1.454
    1MUSC O03jw22480   6.472   5.662   3.247
    1MUSC O03jx22481   7.079   5.474   1.446
    1MUSC O03jy22482   6.685   5.842   3.255
    1MUSC O03jz22483   6.516   5.474   2.252
    1MUSC O03k022484   6.728   5.842   2.449
    1MUSC O03k122485   6.939   5.723   1.665
    1MUSC O03k222486   6.825   5.593   3.036
    1MUSC O03k322487   6.657   5.723   2.032
    1MUSC O03k422488   6.587   5.593   2.669
    1MUSC O03k522489   6.918   5.760   2.013
    1MUSC O03k622490   6.847   5.556   2.688
    1MUSC O03k722491   6.678   5.760   1.685
    1MUSC O03k822492   6.566   5.556   3.016
    1MUSC O03k922493   6.818   5.516   2.013
    1MUSC O03kA22494   6.947   5.800   2.688
    1MUSC O03kB22495   6.778   5.516   1.684
    1MUSC O03kC22496   6.466   5.800   3.017
    1MUSC O03kD22497   7.079   5.832   1.454
    1MUSC O03kE22498   6.685   5.484   3.247
    1MUSC O03kF22499   6.516   5.832   2.243
    1MUSC O03kG22500   6.728   5.484   2.458
    1MUSC K00EX22501   6.629   7.152   0.845
    1MUSC K00EY22502   6.889   6.699   0.845
    1MUSC Al0cj22503   6.808   6.863   0.343
    1MUSC Al0ck22504   6.802   7.168   0.344
    1MUSC Al0cl22505   7.153   6.863   3.355
    1MUSC Al0cm22506   6.977   7.168   1.346
    1MUSC Al0cn22507   7.068   6.411   0.343
    1MUSC Al0co22508   7.062   6.716   0.344
    1MUSC Al0cp22509   6.893   6.411   3.355
    1MUSC Al0cq22510   6.717   6.716   1.346
    1MUSC Si1FR22511   6.984   7.178   3.621
    1MUSC Si1FS22512   6.626   6.853   1.080
    1MUSC Si1FT22513   6.978   7.178   0.077
    1MUSC Si1FU22514   7.153   6.853   0.610
    1MUSC Si1FV22515   6.724   7.023   0.077
    1MUSC Si1FW22516   6.885   7.009   0.610
    1MUSC Si1FX22517   7.237   7.023   3.620
    1MUSC Si1FY22518   6.893   7.009   1.081
    1MUSC Si1FZ22519   7.244   6.726   3.621
    1MUSC Si1Fa22520   6.886   6.401   1.080
    1MUSC Si1Fb22521   6.718   6.726   0.077
    1MUSC Si1Fc22522   6.892   6.401   0.610
    1MUSC Si1Fd22523   6.985   6.570   0.077
    1MUSC Si1Fe22524   7.146   6.556   0.610
    1MUSC Si1Ff22525   6.977   6.570   3.620
    1MUSC Si1Fg22526   6.633   6.556   1.081
    1MUSC O03kH22527   6.747   7.012   0.236
    1MUSC O03kI22528   6.863   7.020   0.451
    1MUSC O03kJ22529   7.215   7.012   3.461
    1MUSC O03kK22530   6.915   7.020   1.240
    1MUSC O03kL22531   7.002   6.832   3.453
    1MUSC O03kM22532   6.608   7.200   1.248
    1MUSC O03kN22533   6.960   6.832   0.245
    1MUSC O03kO22534   7.171   7.200   0.442
    1MUSC O03kP22535   6.862   7.080   3.672
    1MUSC O03kQ22536   6.748   6.951   1.029
    1MUSC O03kR22537   7.100   7.080   0.025
    1MUSC O03kS22538   7.031   6.951   0.662
    1MUSC O03kT22539   6.840   7.117   0.006
    1MUSC O03kU22540   6.769   6.914   0.681
    1MUSC O03kV22541   7.121   7.117   3.692
    1MUSC O03kW22542   7.009   6.914   1.009
    1MUSC O03kX22543   6.741   6.874   0.006
    1MUSC O03kY22544   6.869   7.158   0.681
    1MUSC O03kZ22545   7.221   6.874   3.691
    1MUSC O03ka22546   6.909   7.158   1.010
    1MUSC O03kb22547   7.002   7.190   3.461
    1MUSC O03kc22548   6.608   6.842   1.240
    1MUSC O03kd22549   6.960   7.190   0.236
    1MUSC O03ke22550   7.171   6.842   0.451
    1MUSC O03kf22551   7.007   6.559   0.236
    1MUSC O03kg22552   7.124   6.567   0.451
    1MUSC O03kh22553   6.955   6.559   3.461
    1MUSC O03ki22554   6.655   6.567   1.240
    1MUSC O03kj22555   7.262   6.379   3.453
    1MUSC O03kk22556   6.868   6.747   1.248
    1MUSC O03kl22557   6.699   6.379   0.245
    1MUSC O03km22558   6.911   6.747   0.442
    1MUSC O03kn22559   7.122   6.628   3.672
    1MUSC O03ko22560   7.008   6.499   1.029
    1MUSC O03kp22561   6.840   6.628   0.025
    1MUSC O03kq22562   6.770   6.499   0.662
    1MUSC O03kr22563   7.101   6.665   0.006
    1MUSC O03ks22564   7.030   6.462   0.681
    1MUSC O03kt22565   6.861   6.665   3.692
    1MUSC O03ku22566   6.749   6.462   1.009
    1MUSC O03kv22567   7.001   6.421   0.006
    1MUSC O03kw22568   7.130   6.705   0.681
    1MUSC O03kx22569   6.961   6.421   3.691
    1MUSC O03ky22570   6.649   6.705   1.010
    1MUSC O03kz22571   7.262   6.737   3.461
    1MUSC O03l022572   6.868   6.389   1.240
    1MUSC O03l122573   6.699   6.737   0.236
    1MUSC O03l222574   6.911   6.389   0.451
    1MUSC K00EZ22575   6.798   6.880   1.849
    1MUSC K00Ea22576   6.446   7.152   2.852
    1MUSC K00Eb22577   6.538   6.427   1.849
    1MUSC K00Ec22578   6.706   6.699   2.852
    1MUSC Al0cr22579   6.625   6.863   2.350
    1MUSC Al0cs22580   6.619   7.168   2.351
    1MUSC Al0ct22581   6.970   6.863   1.348
    1MUSC Al0cu22582   6.794   7.168   3.353
    1MUSC Al0cv22583   6.885   6.411   2.350
    1MUSC Al0cw22584   6.879   6.716   2.351
    1MUSC Al0cx22585   6.710   6.411   1.348
    1MUSC Al0cy22586   6.534   6.716   3.353
    1MUSC Si1Fh22587   6.801   7.178   1.614
    1MUSC Si1Fi22588   6.443   6.853   3.087
    1MUSC Si1Fj22589   6.795   7.178   2.084
    1MUSC Si1Fk22590   6.970   6.853   2.617
    1MUSC Si1Fl22591   6.541   7.023   2.084
    1MUSC Si1Fm22592   6.702   7.009   2.617
    1MUSC Si1Fn22593   7.054   7.023   1.613
    1MUSC Si1Fo22594   6.710   7.009   3.088
    1MUSC Si1Fp22595   7.061   6.726   1.614
    1MUSC Si1Fq22596   6.703   6.401   3.087
    1MUSC Si1Fr22597   6.535   6.726   2.084
    1MUSC Si1Fs22598   6.709   6.401   2.617
    1MUSC Si1Ft22599   6.802   6.570   2.084
    1MUSC Si1Fu22600   6.963   6.556   2.617
    1MUSC Si1Fv22601   6.794   6.570   1.613
    1MUSC Si1Fw22602   6.450   6.556   3.088
    1MUSC O03l322603   6.564   7.012   2.243
    1MUSC O03l422604   6.680   7.020   2.458
    1MUSC O03l522605   7.032   7.012   1.454
    1MUSC O03l622606   6.732   7.020   3.247
    1MUSC O03l722607   6.819   6.832   1.446
    1MUSC O03l822608   6.425   7.200   3.255
    1MUSC O03l922609   6.777   6.832   2.252
    1MUSC O03lA22610   6.988   7.200   2.449
    1MUSC O03lB22611   6.679   7.080   1.665
    1MUSC O03lC22612   6.565   6.951   3.036
    1MUSC O03lD22613   6.917   7.080   2.032
    1MUSC O03lE22614   6.848   6.951   2.669
    1MUSC O03lF22615   6.657   7.117   2.013
    1MUSC O03lG22616   6.586   6.914   2.688
    1MUSC O03lH22617   6.938   7.117   1.685
    1MUSC O03lI22618   6.826   6.914   3.016
    1MUSC O03lJ22619   6.558   6.874   2.013
    1MUSC O03lK22620   6.686   7.158   2.688
    1MUSC O03lL22621   7.038   6.874   1.684
    1MUSC O03lM22622   6.726   7.158   3.017
    1MUSC O03lN22623   6.819   7.190   1.454
    1MUSC O03lO22624   6.425   6.842   3.247
    1MUSC O03lP22625   6.777   7.190   2.243
    1MUSC O03lQ22626   6.988   6.842   2.458
    1MUSC O03lR22627   6.824   6.559   2.243
    1MUSC O03lS22628   6.941   6.567   2.458
    1MUSC O03lT22629   6.772   6.559   1.454
    1MUSC O03lU22630   6.472   6.567   3.247
    1MUSC O03lV22631   7.079   6.379   1.446
    1MUSC O03lW22632   6.685   6.747   3.255
    1MUSC O03lX22633   6.516   6.379   2.252
    1MUSC O03lY22634   6.728   6.747   2.449
    1MUSC O03lZ22635   6.939   6.628   1.665
    1MUSC O03la22636   6.825   6.499   3.036
    1MUSC O03lb22637   6.657   6.628   2.032
    1MUSC O03lc22638   6.587   6.499   2.669
    1MUSC O03ld22639   6.918   6.665   2.013
    1MUSC O03le22640   6.847   6.462   2.688
    1MUSC O03lf22641   6.678   6.665   1.685
    1MUSC O03lg22642   6.566   6.462   3.016
    1MUSC O03lh22643   6.818   6.421   2.013
    1MUSC O03li22644   6.947   6.705   2.688
    1MUSC O03lj22645   6.778   6.421   1.684
    1MUSC O03lk22646   6.466   6.705   3.017
    1MUSC O03ll22647   7.079   6.737   1.454
    1MUSC O03lm22648   6.685   6.389   3.247
    1MUSC O03ln22649   6.516   6.737   2.243
    1MUSC O03lo22650   6.728   6.389   2.458
    1MUSC K00Ed22651   6.629   8.057   0.845
    1MUSC K00Ee22652   6.889   7.605   0.845
    1MUSC Al0cz22653   6.808   7.769   0.343
    1MUSC Al0d022654   6.802   8.074   0.344
    1MUSC Al0d122655   7.153   7.769   3.355
    1MUSC Al0d222656   6.977   8.074   1.346
    1MUSC Al0d322657   7.068   7.316   0.343
    1MUSC Al0d422658   7.062   7.621   0.344
    1MUSC Al0d522659   6.893   7.316   3.355
    1MUSC Al0d622660   6.717   7.621   1.346
    1MUSC Si1Fx22661   6.984   8.084   3.621
    1MUSC Si1Fy22662   6.626   7.759   1.080
    1MUSC Si1Fz22663   6.978   8.084   0.077
    1MUSC Si1G022664   7.153   7.759   0.610
    1MUSC Si1G122665   6.724   7.928   0.077
    1MUSC Si1G222666   6.885   7.914   0.610
    1MUSC Si1G322667   7.237   7.928   3.620
    1MUSC Si1G422668   6.893   7.914   1.081
    1MUSC Si1G522669   7.244   7.631   3.621
    1MUSC Si1G622670   6.886   7.306   1.080
    1MUSC Si1G722671   6.718   7.631   0.077
    1MUSC Si1G822672   6.892   7.306   0.610
    1MUSC Si1G922673   6.985   7.476   0.077
    1MUSC Si1GA22674   7.146   7.461   0.610
    1MUSC Si1GB22675   6.977   7.476   3.620
    1MUSC Si1GC22676   6.633   7.461   1.081
    1MUSC O03lp22677   6.747   7.917   0.236
    1MUSC O03lq22678   6.863   7.925   0.451
    1MUSC O03lr22679   7.215   7.917   3.461
    1MUSC O03ls22680   6.915   7.925   1.240
    1MUSC O03lt22681   7.002   7.737   3.453
    1MUSC O03lu22682   6.608   8.105   1.248
    1MUSC O03lv22683   6.960   7.737   0.245
    1MUSC O03lw22684   7.171   8.105   0.442
    1MUSC O03lx22685   6.862   7.986   3.672
    1MUSC O03ly22686   6.748   7.856   1.029
    1MUSC O03lz22687   7.100   7.986   0.025
    1MUSC O03m022688   7.031   7.856   0.662
    1MUSC O03m122689   6.840   8.023   0.006
    1MUSC O03m222690   6.769   7.819   0.681
    1MUSC O03m322691   7.121   8.023   3.692
    1MUSC O03m422692   7.009   7.819   1.009
    1MUSC O03m522693   6.741   7.779   0.006
    1MUSC O03m622694   6.869   8.063   0.681
    1MUSC O03m722695   7.221   7.779   3.691
    1MUSC O03m822696   6.909   8.063   1.010
    1MUSC O03m922697   7.002   8.095   3.461
    1MUSC O03mA22698   6.608   7.747   1.240
    1MUSC O03mB22699   6.960   8.095   0.236
    1MUSC O03mC22700   7.171   7.747   0.451
    1MUSC O03mD22701   7.007   7.464   0.236
    1MUSC O03mE22702   7.124   7.473   0.451
    1MUSC O03mF22703   6.955   7.464   3.461
    1MUSC O03mG22704   6.655   7.473   1.240
    1MUSC O03mH22705   7.262   7.284   3.453
    1MUSC O03mI22706   6.868   7.653   1.248
    1MUSC O03mJ22707   6.699   7.284   0.245
    1MUSC O03mK22708   6.911   7.653   0.442
    1MUSC O03mL22709   7.122   7.533   3.672
    1MUSC O03mM22710   7.008   7.404   1.029
    1MUSC O03mN22711   6.840   7.533   0.025
    1MUSC O03mO22712   6.770   7.404   0.662
    1MUSC O03mP22713   7.101   7.570   0.006
    1MUSC O03mQ22714   7.030   7.367   0.681
    1MUSC O03mR22715   6.861   7.570   3.692
    1MUSC O03mS22716   6.749   7.367   1.009
    1MUSC O03mT22717   7.001   7.326   0.006
    1MUSC O03mU22718   7.130   7.611   0.681
    1MUSC O03mV22719   6.961   7.326   3.691
    1MUSC O03mW22720   6.649   7.611   1.010
    1MUSC O03mX22721   7.262   7.642   3.461
    1MUSC O03mY22722   6.868   7.295   1.240
    1MUSC O03mZ22723   6.699   7.642   0.236
    1MUSC O03ma22724   6.911   7.295   0.451
    1MUSC K00Ef22725   6.798   7.785   1.849
    1MUSC K00Eg22726   6.446   8.057   2.852
    1MUSC K00Eh22727   6.538   7.332   1.849
    1MUSC K00Ei22728   6.706   7.605   2.852
    1MUSC Al0d722729   6.625   7.769   2.350
    1MUSC Al0d822730   6.619   8.074   2.351
    1MUSC Al0d922731   6.970   7.769   1.348
    1MUSC Al0dA22732   6.794   8.074   3.353
    1MUSC Al0dB22733   6.885   7.316   2.350
    1MUSC Al0dC22734   6.879   7.621   2.351
    1MUSC Al0dD22735   6.710   7.316   1.348
    1MUSC Al0dE22736   6.534   7.621   3.353
    1MUSC Si1GD22737   6.801   8.084   1.614
    1MUSC Si1GE22738   6.443   7.759   3.087
    1MUSC Si1GF22739   6.795   8.084   2.084
    1MUSC Si1GG22740   6.970   7.759   2.617
    1MUSC Si1GH22741   6.541   7.928   2.084
    1MUSC Si1GI22742   6.702   7.914   2.617
    1MUSC Si1GJ22743   7.054   7.928   1.613
    1MUSC Si1GK22744   6.710   7.914   3.088
    1MUSC Si1GL22745   7.061   7.631   1.614
    1MUSC Si1GM22746   6.703   7.306   3.087
    1MUSC Si1GN22747   6.535   7.631   2.084
    1MUSC Si1GO22748   6.709   7.306   2.617
    1MUSC Si1GP22749   6.802   7.476   2.084
    1MUSC Si1GQ22750   6.963   7.461   2.617
    1MUSC Si1GR22751   6.794   7.476   1.613
    1MUSC Si1GS22752   6.450   7.461   3.088
    1MUSC O03mb22753   6.564   7.917   2.243
    1MUSC O03mc22754   6.680   7.925   2.458
    1MUSC O03md22755   7.032   7.917   1.454
    1MUSC O03me22756   6.732   7.925   3.247
    1MUSC O03mf22757   6.819   7.737   1.446
    1MUSC O03mg22758   6.425   8.105   3.255
    1MUSC O03mh22759   6.777   7.737   2.252
    1MUSC O03mi22760   6.988   8.105   2.449
    1MUSC O03mj22761   6.679   7.986   1.665
    1MUSC O03mk22762   6.565   7.856   3.036
    1MUSC O03ml22763   6.917   7.986   2.032
    1MUSC O03mm22764   6.848   7.856   2.669
    1MUSC O03mn22765   6.657   8.023   2.013
    1MUSC O03mo22766   6.586   7.819   2.688
    1MUSC O03mp22767   6.938   8.023   1.685
    1MUSC O03mq22768   6.826   7.819   3.016
    1MUSC O03mr22769   6.558   7.779   2.013
    1MUSC O03ms22770   6.686   8.063   2.688
    1MUSC O03mt22771   7.038   7.779   1.684
    1MUSC O03mu22772   6.726   8.063   3.017
    1MUSC O03mv22773   6.819   8.095   1.454
    1MUSC O03mw22774   6.425   7.747   3.247
    1MUSC O03mx22775   6.777   8.095   2.243
    1MUSC O03my22776   6.988   7.747   2.458
    1MUSC O03mz22777   6.824   7.464   2.243
    1MUSC O03n022778   6.941   7.473   2.458
    1MUSC O03n122779   6.772   7.464   1.454
    1MUSC O03n222780   6.472   7.473   3.247
    1MUSC O03n322781   7.079   7.284   1.446
    1MUSC O03n422782   6.685   7.653   3.255
    1MUSC O03n522783   6.516   7.284   2.252
    1MUSC O03n622784   6.728   7.653   2.449
    1MUSC O03n722785   6.939   7.533   1.665
    1MUSC O03n822786   6.825   7.404   3.036
    1MUSC O03n922787   6.657   7.533   2.032
    1MUSC O03nA22788   6.587   7.404   2.669
    1MUSC O03nB22789   6.918   7.570   2.013
    1MUSC O03nC22790   6.847   7.367   2.688
    1MUSC O03nD22791   6.678   7.570   1.685
    1MUSC O03nE22792   6.566   7.367   3.016
    1MUSC O03nF22793   6.818   7.326   2.013
    1MUSC O03nG22794   6.947   7.611   2.688
    1MUSC O03nH22795   6.778   7.326   1.684
    1MUSC O03nI22796   6.466   7.611   3.017
    1MUSC O03nJ22797   7.079   7.642   1.454
    1MUSC O03nK22798   6.685   7.295   3.247
    1MUSC O03nL22799   6.516   7.642   2.243
    1MUSC O03nM22800   6.728   7.295   2.458
    1MUSC K00Ej22801   6.629   8.962   0.845
    1MUSC K00Ek22802   6.889   8.510   0.845
    1MUSC Al0dF22803   6.808   8.674   0.343
    1MUSC Al0dG22804   6.802   8.979   0.344
    1MUSC Al0dH22805   7.153   8.674   3.355
    1MUSC Al0dI22806   6.977   8.979   1.346
    1MUSC Al0dJ22807   7.068   8.221   0.343
    1MUSC Al0dK22808   7.062   8.526   0.344
    1MUSC Al0dL22809   6.893   8.221   3.355
    1MUSC Al0dM22810   6.717   8.526   1.346
    1MUSC Si1GT22811   6.984   8.989   3.621
    1MUSC Si1GU22812   6.626   8.664   1.080
    1MUSC Si1GV22813   6.978   8.989   0.077
    1MUSC Si1GW22814   7.153   8.664   0.610
    1MUSC Si1GX22815   6.724   8.834   0.077
    1MUSC Si1GY22816   6.885   8.819   0.610
    1MUSC Si1GZ22817   7.237   8.834   3.620
    1MUSC Si1Ga22818   6.893   8.819   1.081
    1MUSC Si1Gb22819   7.244   8.536   3.621
    1MUSC Si1Gc22820   6.886   8.211   1.080
    1MUSC Si1Gd22821   6.718   8.536   0.077
    1MUSC Si1Ge22822   6.892   8.211   0.610
    1MUSC Si1Gf22823   6.985   8.381   0.077
    1MUSC Si1Gg22824   7.146   8.367   0.610
    1MUSC Si1Gh22825   6.977   8.381   3.620
    1MUSC Si1Gi22826   6.633   8.367   1.081
    1MUSC O03nN22827   6.747   8.822   0.236
    1MUSC O03nO22828   6.863   8.831   0.451
    1MUSC O03nP22829   7.215   8.822   3.461
    1MUSC O03nQ22830   6.915   8.831   1.240
    1MUSC O03nR22831   7.002   8.642   3.453
    1MUSC O03nS22832   6.608   9.010   1.248
    1MUSC O03nT22833   6.960   8.642   0.245
    1MUSC O03nU22834   7.171   9.010   0.442
    1MUSC O03nV22835   6.862   8.891   3.672
    1MUSC O03nW22836   6.748   8.762   1.029
    1MUSC O03nX22837   7.100   8.891   0.025
    1MUSC O03nY22838   7.031   8.762   0.662
    1MUSC O03nZ22839   6.840   8.928   0.006
    1MUSC O03na22840   6.769   8.725   0.681
    1MUSC O03nb22841   7.121   8.928   3.692
    1MUSC O03nc22842   7.009   8.725   1.009
    1MUSC O03nd22843   6.741   8.684   0.006
    1MUSC O03ne22844   6.869   8.968   0.681
    1MUSC O03nf22845   7.221   8.684   3.691
    1MUSC O03ng22846   6.909   8.968   1.010
    1MUSC O03nh22847   7.002   9.000   3.461
    1MUSC O03ni22848   6.608   8.652   1.240
    1MUSC O03nj22849   6.960   9.000   0.236
    1MUSC O03nk22850   7.171   8.652   0.451
    1MUSC O03nl22851   7.007   8.370   0.236
    1MUSC O03nm22852   7.124   8.378   0.451
    1MUSC O03nn22853   6.955   8.370   3.461
    1MUSC O03no22854   6.655   8.378   1.240
    1MUSC O03np22855   7.262   8.190   3.453
    1MUSC O03nq22856   6.868   8.558   1.248
    1MUSC O03nr22857   6.699   8.190   0.245
    1MUSC O03ns22858   6.911   8.558   0.442
    1MUSC O03nt22859   7.122   8.438   3.672
    1MUSC O03nu22860   7.008   8.309   1.029
    1MUSC O03nv22861   6.840   8.438   0.025
    1MUSC O03nw22862   6.770   8.309   0.662
    1MUSC O03nx22863   7.101   8.475   0.006
    1MUSC O03ny22864   7.030   8.272   0.681
    1MUSC O03nz22865   6.861   8.475   3.692
    1MUSC O03o022866   6.749   8.272   1.009
    1MUSC O03o122867   7.001   8.232   0.006
    1MUSC O03o222868   7.130   8.516   0.681
    1MUSC O03o322869   6.961   8.232   3.691
    1MUSC O03o422870   6.649   8.516   1.010
    1MUSC O03o522871   7.262   8.548   3.461
    1MUSC O03o622872   6.868   8.200   1.240
    1MUSC O03o722873   6.699   8.548   0.236
    1MUSC O03o822874   6.911   8.200   0.451
    1MUSC K00El22875   6.798   8.690   1.849
    1MUSC K00Em22876   6.446   8.962   2.852
    1MUSC K00En22877   6.538   8.238   1.849
    1MUSC K00Eo22878   6.706   8.510   2.852
    1MUSC Al0dN22879   6.625   8.674   2.350
    1MUSC Al0dO22880   6.619   8.979   2.351
    1MUSC Al0dP22881   6.970   8.674   1.348
    1MUSC Al0dQ22882   6.794   8.979   3.353
    1MUSC Al0dR22883   6.885   8.221   2.350
    1MUSC Al0dS22884   6.879   8.526   2.351
    1MUSC Al0dT22885   6.710   8.221   1.348
    1MUSC Al0dU22886   6.534   8.526   3.353
    1MUSC Si1Gj22887   6.801   8.989   1.614
    1MUSC Si1Gk22888   6.443   8.664   3.087
    1MUSC Si1Gl22889   6.795   8.989   2.084
    1MUSC Si1Gm22890   6.970   8.664   2.617
    1MUSC Si1Gn22891   6.541   8.834   2.084
    1MUSC Si1Go22892   6.702   8.819   2.617
    1MUSC Si1Gp22893   7.054   8.834   1.613
    1MUSC Si1Gq22894   6.710   8.819   3.088
    1MUSC Si1Gr22895   7.061   8.536   1.614
    1MUSC Si1Gs22896   6.703   8.211   3.087
    1MUSC Si1Gt22897   6.535   8.536   2.084
    1MUSC Si1Gu22898   6.709   8.211   2.617
    1MUSC Si1Gv22899   6.802   8.381   2.084
    1MUSC Si1Gw22900   6.963   8.367   2.617
    1MUSC Si1Gx22901   6.794   8.381   1.613
    1MUSC Si1Gy22902   6.450   8.367   3.088
    1MUSC O03o922903   6.564   8.822   2.243
    1MUSC O03oA22904   6.680   8.831   2.458
    1MUSC O03oB22905   7.032   8.822   1.454
    1MUSC O03oC22906   6.732   8.831   3.247
    1MUSC O03oD22907   6.819   8.642   1.446
    1MUSC O03oE22908   6.425   9.010   3.255
    1MUSC O03oF22909   6.777   8.642   2.252
    1MUSC O03oG22910   6.988   9.010   2.449
    1MUSC O03oH22911   6.679   8.891   1.665
    1MUSC O03oI22912   6.565   8.762   3.036
    1MUSC O03oJ22913   6.917   8.891   2.032
    1MUSC O03oK22914   6.848   8.762   2.669
    1MUSC O03oL22915   6.657   8.928   2.013
    1MUSC O03oM22916   6.586   8.725   2.688
    1MUSC O03oN22917   6.938   8.928   1.685
    1MUSC O03oO22918   6.826   8.725   3.016
    1MUSC O03oP22919   6.558   8.684   2.013
    1MUSC O03oQ22920   6.686   8.968   2.688
    1MUSC O03oR22921   7.038   8.684   1.684
    1MUSC O03oS22922   6.726   8.968   3.017
    1MUSC O03oT22923   6.819   9.000   1.454
    1MUSC O03oU22924   6.425   8.652   3.247
    1MUSC O03oV22925   6.777   9.000   2.243
    1MUSC O03oW22926   6.988   8.652   2.458
    1MUSC O03oX22927   6.824   8.370   2.243
    1MUSC O03oY22928   6.941   8.378   2.458
    1MUSC O03oZ22929   6.772   8.370   1.454
    1MUSC O03oa22930   6.472   8.378   3.247
    1MUSC O03ob22931   7.079   8.190   1.446
    1MUSC O03oc22932   6.685   8.558   3.255
    1MUSC O03od22933   6.516   8.190   2.252
    1MUSC O03oe22934   6.728   8.558   2.449
    1MUSC O03of22935   6.939   8.438   1.665
    1MUSC O03og22936   6.825   8.309   3.036
    1MUSC O03oh22937   6.657   8.438   2.032
    1MUSC O03oi22938   6.587   8.309   2.669
    1MUSC O03oj22939   6.918   8.475   2.013
    1MUSC O03ok22940   6.847   8.272   2.688
    1MUSC O03ol22941   6.678   8.475   1.685
    1MUSC O03om22942   6.566   8.272   3.016
    1MUSC O03on22943   6.818   8.232   2.013
    1MUSC O03oo22944   6.947   8.516   2.688
    1MUSC O03op22945   6.778   8.232   1.684
    1MUSC O03oq22946   6.466   8.516   3.017
    1MUSC O03or22947   7.079   8.548   1.454
    1MUSC O03os22948   6.685   8.200   3.247
    1MUSC O03ot22949   6.516   8.548   2.243
    1MUSC O03ou22950   6.728   8.200   2.458
    1MUSC K00Ep22951   6.629   9.868   0.845
    1MUSC K00Eq22952   6.889   9.415   0.845
    1MUSC Al0dV22953   6.808   9.579   0.343
    1MUSC Al0dW22954   6.802   9.884   0.344
    1MUSC Al0dX22955   7.153   9.579   3.355
    1MUSC Al0dY22956   6.977   9.884   1.346
    1MUSC Al0dZ22957   7.068   9.126   0.343
    1MUSC Al0da22958   7.062   9.432   0.344
    1MUSC Al0db22959   6.893   9.126   3.355
    1MUSC Al0dc22960   6.717   9.432   1.346
    1MUSC Si1Gz22961   6.984   9.894   3.621
    1MUSC Si1H022962   6.626   9.569   1.080
    1MUSC Si1H122963   6.978   9.894   0.077
    1MUSC Si1H222964   7.153   9.569   0.610
    1MUSC Si1H322965   6.724   9.739   0.077
    1MUSC Si1H422966   6.885   9.724   0.610
    1MUSC Si1H522967   7.237   9.739   3.620
    1MUSC Si1H622968   6.893   9.724   1.081
    1MUSC Si1H722969   7.244   9.441   3.621
    1MUSC Si1H822970   6.886   9.117   1.080
    1MUSC Si1H922971   6.718   9.441   0.077
    1MUSC Si1HA22972   6.892   9.117   0.610
    1MUSC Si1HB22973   6.985   9.286   0.077
    1MUSC Si1HC22974   7.146   9.272   0.610
    1MUSC Si1HD22975   6.977   9.286   3.620
    1MUSC Si1HE22976   6.633   9.272   1.081
    1MUSC O03ov22977   6.747   9.728   0.236
    1MUSC O03ow22978   6.863   9.736   0.451
    1MUSC O03ox22979   7.215   9.728   3.461
    1MUSC O03oy22980   6.915   9.736   1.240
    1MUSC O03oz22981   7.002   9.548   3.453
    1MUSC O03p022982   6.608   9.916   1.248
    1MUSC O03p122983   6.960   9.548   0.245
    1MUSC O03p222984   7.171   9.916   0.442
    1MUSC O03p322985   6.862   9.796   3.672
    1MUSC O03p422986   6.748   9.667   1.029
    1MUSC O03p522987   7.100   9.796   0.025
    1MUSC O03p622988   7.031   9.667   0.662
    1MUSC O03p722989   6.840   9.833   0.006
    1MUSC O03p822990   6.769   9.630   0.681
    1MUSC O03p922991   7.121   9.833   3.692
    1MUSC O03pA22992   7.009   9.630   1.009
    1MUSC O03pB22993   6.741   9.590   0.006
    1MUSC O03pC22994   6.869   9.874   0.681
    1MUSC O03pD22995   7.221   9.590   3.691
    1MUSC O03pE22996   6.909   9.874   1.010
    1MUSC O03pF22997   7.002   9.906   3.461
    1MUSC O03pG22998   6.608   9.558   1.240
    1MUSC O03pH22999   6.960   9.906   0.236
    1MUSC O03pI23000   7.171   9.558   0.451
    1MUSC O03pJ23001   7.007   9.275   0.236
    1MUSC O03pK23002   7.124   9.283   0.451
    1MUSC O03pL23003   6.955   9.275   3.461
    1MUSC O03pM23004   6.655   9.283   1.240
    1MUSC O03pN23005   7.262   9.095   3.453
    1MUSC O03pO23006   6.868   9.463   1.248
    1MUSC O03pP23007   6.699   9.095   0.245
    1MUSC O03pQ23008   6.911   9.463   0.442
    1MUSC O03pR23009   7.122   9.344   3.672
    1MUSC O03pS23010   7.008   9.214   1.029
    1MUSC O03pT23011   6.840   9.344   0.025
    1MUSC O03pU23012   6.770   9.214   0.662
    1MUSC O03pV23013   7.101   9.381   0.006
    1MUSC O03pW23014   7.030   9.177   0.681
    1MUSC O03pX23015   6.861   9.381   3.692
    1MUSC O03pY23016   6.749   9.177   1.009
    1MUSC O03pZ23017   7.001   9.137   0.006
    1MUSC O03pa23018   7.130   9.421   0.681
    1MUSC O03pb23019   6.961   9.137   3.691
    1MUSC O03pc23020   6.649   9.421   1.010
    1MUSC O03pd23021   7.262   9.453   3.461
    1MUSC O03pe23022   6.868   9.105   1.240
    1MUSC O03pf23023   6.699   9.453   0.236
    1MUSC O03pg23024   6.911   9.105   0.451
    1MUSC K00Er23025   6.798   9.596   1.849
    1MUSC K00Es23026   6.446   9.868   2.852
    1MUSC K00Et23027   6.538   9.143   1.849
    1MUSC K00Eu23028   6.706   9.415   2.852
    1MUSC Al0dd23029   6.625   9.579   2.350
    1MUSC Al0de23030   6.619   9.884   2.351
    1MUSC Al0df23031   6.970   9.579   1.348
    1MUSC Al0dg23032   6.794   9.884   3.353
    1MUSC Al0dh23033   6.885   9.126   2.350
    1MUSC Al0di23034   6.879   9.432   2.351
    1MUSC Al0dj23035   6.710   9.126   1.348
    1MUSC Al0dk23036   6.534   9.432   3.353
    1MUSC Si1HF23037   6.801   9.894   1.614
    1MUSC Si1HG23038   6.443   9.569   3.087
    1MUSC Si1HH23039   6.795   9.894   2.084
    1MUSC Si1HI23040   6.970   9.569   2.617
    1MUSC Si1HJ23041   6.541   9.739   2.084
    1MUSC Si1HK23042   6.702   9.724   2.617
    1MUSC Si1HL23043   7.054   9.739   1.613
    1MUSC Si1HM23044   6.710   9.724   3.088
    1MUSC Si1HN23045   7.061   9.441   1.614
    1MUSC Si1HO23046   6.703   9.117   3.087
    1MUSC Si1HP23047   6.535   9.441   2.084
    1MUSC Si1HQ23048   6.709   9.117   2.617
    1MUSC Si1HR23049   6.802   9.286   2.084
    1MUSC Si1HS23050   6.963   9.272   2.617
    1MUSC Si1HT23051   6.794   9.286   1.613
    1MUSC Si1HU23052   6.450   9.272   3.088
    1MUSC O03ph23053   6.564   9.728   2.243
    1MUSC O03pi23054   6.680   9.736   2.458
    1MUSC O03pj23055   7.032   9.728   1.454
    1MUSC O03pk23056   6.732   9.736   3.247
    1MUSC O03pl23057   6.819   9.548   1.446
    1MUSC O03pm23058   6.425   9.916   3.255
    1MUSC O03pn23059   6.777   9.548   2.252
    1MUSC O03po23060   6.988   9.916   2.449
    1MUSC O03pp23061   6.679   9.796   1.665
    1MUSC O03pq23062   6.565   9.667   3.036
    1MUSC O03pr23063   6.917   9.796   2.032
    1MUSC O03ps23064   6.848   9.667   2.669
    1MUSC O03pt23065   6.657   9.833   2.013
    1MUSC O03pu23066   6.586   9.630   2.688
    1MUSC O03pv23067   6.938   9.833   1.685
    1MUSC O03pw23068   6.826   9.630   3.016
    1MUSC O03px23069   6.558   9.590   2.013
    1MUSC O03py23070   6.686   9.874   2.688
    1MUSC O03pz23071   7.038   9.590   1.684
    1MUSC O03q023072   6.726   9.874   3.017
    1MUSC O03q123073   6.819   9.906   1.454
    1MUSC O03q223074   6.425   9.558   3.247
    1MUSC O03q323075   6.777   9.906   2.243
    1MUSC O03q423076   6.988   9.558   2.458
    1MUSC O03q523077   6.824   9.275   2.243
    1MUSC O03q623078   6.941   9.283   2.458
    1MUSC O03q723079   6.772   9.275   1.454
    1MUSC O03q823080   6.472   9.283   3.247
    1MUSC O03q923081   7.079   9.095   1.446
    1MUSC O03qA23082   6.685   9.463   3.255
    1MUSC O03qB23083   6.516   9.095   2.252
    1MUSC O03qC23084   6.728   9.463   2.449
    1MUSC O03qD23085   6.939   9.344   1.665
    1MUSC O03qE23086   6.825   9.214   3.036
    1MUSC O03qF23087   6.657   9.344   2.032
    1MUSC O03qG23088   6.587   9.214   2.669
    1MUSC O03qH23089   6.918   9.381   2.013
    1MUSC O03qI23090   6.847   9.177   2.688
    1MUSC O03qJ23091   6.678   9.381   1.685
    1MUSC O03qK23092   6.566   9.177   3.016
    1MUSC O03qL23093   6.818   9.137   2.013
    1MUSC O03qM23094   6.947   9.421   2.688
    1MUSC O03qN23095   6.778   9.137   1.684
    1MUSC O03qO23096   6.466   9.421   3.017
    1MUSC O03qP23097   7.079   9.453   1.454
    1MUSC O03qQ23098   6.685   9.105   3.247
    1MUSC O03qR23099   6.516   9.453   2.243
    1MUSC O03qS23100   6.728   9.105   2.458
    1MUSC K00Ev23101   7.150   0.815   0.845
    1MUSC K00Ew23102   7.410   0.362   0.845
    1MUSC Al0dl23103   7.329   0.526   0.343
    1MUSC Al0dm23104   7.322   0.831   0.344
    1MUSC Al0dn23105   7.674   0.526   3.355
    1MUSC Al0do23106   7.497   0.831   1.346
    1MUSC Al0dp23107   7.589   0.074   0.343
    1MUSC Al0dq23108   7.582   0.379   0.344
    1MUSC Al0dr23109   7.414   0.074   3.355
    1MUSC Al0ds23110   7.237   0.379   1.346
    1MUSC Si1HV23111   7.504   0.841   3.621
    1MUSC Si1HW23112   7.147   0.517   1.080
    1MUSC Si1HX23113   7.498   0.841   0.077
    1MUSC Si1HY23114   7.673   0.517   0.610
    1MUSC Si1HZ23115   7.245   0.686   0.077
    1MUSC Si1Ha23116   7.406   0.672   0.610
    1MUSC Si1Hb23117   7.758   0.686   3.620
    1MUSC Si1Hc23118   7.414   0.672   1.081
    1MUSC Si1Hd23119   7.765   0.389   3.621
    1MUSC Si1He23120   7.407   0.064   1.080
    1MUSC Si1Hf23121   7.238   0.389   0.077
    1MUSC Si1Hg23122   7.413   0.064   0.610
    1MUSC Si1Hh23123   7.505   0.233   0.077
    1MUSC Si1Hi23124   7.666   0.219   0.610
    1MUSC Si1Hj23125   7.497   0.233   3.620
    1MUSC Si1Hk23126   7.153   0.219   1.081
    1MUSC O03qT23127   7.267   0.675   0.236
    1MUSC O03qU23128   7.384   0.683   0.451
    1MUSC O03qV23129   7.736   0.675   3.461
    1MUSC O03qW23130   7.436   0.683   1.240
    1MUSC O03qX23131   7.523   0.495   3.453
    1MUSC O03qY23132   7.128   0.863   1.248
    1MUSC O03qZ23133   7.480   0.495   0.245
    1MUSC O03qa23134   7.691   0.863   0.442
    1MUSC O03qb23135   7.382   0.744   3.672
    1MUSC O03qc23136   7.269   0.614   1.029
    1MUSC O03qd23137   7.620   0.744   0.025
    1MUSC O03qe23138   7.551   0.614   0.662
    1MUSC O03qf23139   7.361   0.781   0.006
    1MUSC O03qg23140   7.290   0.577   0.681
    1MUSC O03qh23141   7.642   0.781   3.692
    1MUSC O03qi23142   7.530   0.577   1.009
    1MUSC O03qj23143   7.261   0.537   0.006
    1MUSC O03qk23144   7.390   0.821   0.681
    1MUSC O03ql23145   7.742   0.537   3.691
    1MUSC O03qm23146   7.430   0.821   1.010
    1MUSC O03qn23147   7.523   0.853   3.461
    1MUSC O03qo23148   7.128   0.505   1.240
    1MUSC O03qp23149   7.480   0.853   0.236
    1MUSC O03qq23150   7.691   0.505   0.451
    1MUSC O03qr23151   7.527   0.222   0.236
    1MUSC O03qs23152   7.644   0.230   0.451
    1MUSC O03qt23153   7.475   0.222   3.461
    1MUSC O03qu23154   7.176   0.230   1.240
    1MUSC O03qv23155   7.783   0.042   3.453
    1MUSC O03qw23156   7.389   0.410   1.248
    1MUSC O03qx23157   7.220   0.042   0.245
    1MUSC O03qy23158   7.431   0.410   0.442
    1MUSC O03qz23159   7.643   0.291   3.672
    1MUSC O03r023160   7.529   0.162   1.029
    1MUSC O03r123161   7.360   0.291   0.025
    1MUSC O03r223162   7.291   0.162   0.662
    1MUSC O03r323163   7.621   0.328   0.006
    1MUSC O03r423164   7.550   0.125   0.681
    1MUSC O03r523165   7.381   0.328   3.692
    1MUSC O03r623166   7.269   0.125   1.009
    1MUSC O03r723167   7.521   0.084   0.006
    1MUSC O03r823168   7.650   0.368   0.681
    1MUSC O03r923169   7.481   0.084   3.691
    1MUSC O03rA23170   7.170   0.368   1.010
    1MUSC O03rB23171   7.783   0.400   3.461
    1MUSC O03rC23172   7.389   0.052   1.240
    1MUSC O03rD23173   7.220   0.400   0.236
    1MUSC O03rE23174   7.431   0.052   0.451
    1MUSC K00Ex23175   7.318   0.543   1.849
    1MUSC K00Ey23176   6.967   0.815   2.852
    1MUSC K00Ez23177   7.058   0.090   1.849
    1MUSC K00F023178   7.227   0.362   2.852
    1MUSC Al0dt23179   7.146   0.526   2.350
    1MUSC Al0du23180   7.139   0.831   2.351
    1MUSC Al0dv23181   7.491   0.526   1.348
    1MUSC Al0dw23182   7.314   0.831   3.353
    1MUSC Al0dx23183   7.406   0.074   2.350
    1MUSC Al0dy23184   7.399   0.379   2.351
    1MUSC Al0dz23185   7.231   0.074   1.348
    1MUSC Al0e023186   7.054   0.379   3.353
    1MUSC Si1Hl23187   7.321   0.841   1.614
    1MUSC Si1Hm23188   6.964   0.517   3.087
    1MUSC Si1Hn23189   7.315   0.841   2.084
    1MUSC Si1Ho23190   7.490   0.517   2.617
    1MUSC Si1Hp23191   7.062   0.686   2.084
    1MUSC Si1Hq23192   7.223   0.672   2.617
    1MUSC Si1Hr23193   7.575   0.686   1.613
    1MUSC Si1Hs23194   7.231   0.672   3.088
    1MUSC Si1Ht23195   7.582   0.389   1.614
    1MUSC Si1Hu23196   7.224   0.064   3.087
    1MUSC Si1Hv23197   7.055   0.389   2.084
    1MUSC Si1Hw23198   7.230   0.064   2.617
    1MUSC Si1Hx23199   7.322   0.233   2.084
    1MUSC Si1Hy23200   7.483   0.219   2.617
    1MUSC Si1Hz23201   7.314   0.233   1.613
    1MUSC Si1I023202   6.970   0.219   3.088
    1MUSC O03rF23203   7.084   0.675   2.243
    1MUSC O03rG23204   7.201   0.683   2.458
    1MUSC O03rH23205   7.553   0.675   1.454
    1MUSC O03rI23206   7.253   0.683   3.247
    1MUSC O03rJ23207   7.340   0.495   1.446
    1MUSC O03rK23208   6.945   0.863   3.255
    1MUSC O03rL23209   7.297   0.495   2.252
    1MUSC O03rM23210   7.508   0.863   2.449
    1MUSC O03rN23211   7.199   0.744   1.665
    1MUSC O03rO23212   7.086   0.614   3.036
    1MUSC O03rP23213   7.437   0.744   2.032
    1MUSC O03rQ23214   7.368   0.614   2.669
    1MUSC O03rR23215   7.178   0.781   2.013
    1MUSC O03rS23216   7.107   0.577   2.688
    1MUSC O03rT23217   7.459   0.781   1.685
    1MUSC O03rU23218   7.347   0.577   3.016
    1MUSC O03rV23219   7.078   0.537   2.013
    1MUSC O03rW23220   7.207   0.821   2.688
    1MUSC O03rX23221   7.559   0.537   1.684
    1MUSC O03rY23222   7.247   0.821   3.017
    1MUSC O03rZ23223   7.340   0.853   1.454
    1MUSC O03ra23224   6.945   0.505   3.247
    1MUSC O03rb23225   7.297   0.853   2.243
    1MUSC O03rc23226   7.508   0.505   2.458
    1MUSC O03rd23227   7.344   0.222   2.243
    1MUSC O03re23228   7.461   0.230   2.458
    1MUSC O03rf23229   7.292   0.222   1.454
    1MUSC O03rg23230   6.993   0.230   3.247
    1MUSC O03rh23231   7.600   0.042   1.446
    1MUSC O03ri23232   7.206   0.410   3.255
    1MUSC O03rj23233   7.037   0.042   2.252
    1MUSC O03rk23234   7.248   0.410   2.449
    1MUSC O03rl23235   7.460   0.291   1.665
    1MUSC O03rm23236   7.346   0.162   3.036
    1MUSC O03rn23237   7.177   0.291   2.032
    1MUSC O03ro23238   7.108   0.162   2.669
    1MUSC O03rp23239   7.438   0.328   2.013
    1MUSC O03rq23240   7.367   0.125   2.688
    1MUSC O03rr23241   7.198   0.328   1.685
    1MUSC O03rs23242   7.086   0.125   3.016
    1MUSC O03rt23243   7.338   0.084   2.013
    1MUSC O03ru23244   7.467   0.368   2.688
    1MUSC O03rv23245   7.298   0.084   1.684
    1MUSC O03rw23246   6.987   0.368   3.017
    1MUSC O03rx23247   7.600   0.400   1.454
    1MUSC O03ry23248   7.206   0.052   3.247
    1MUSC O03rz23249   7.037   0.400   2.243
    1MUSC O03s023250   7.248   0.052   2.458
    1MUSC K00F123251   7.150   1.720   0.845
    1MUSC K00F223252   7.410   1.268   0.845
    1MUSC Al0e123253   7.329   1.432   0.343
    1MUSC Al0e223254   7.322   1.737   0.344
    1MUSC Al0e323255   7.674   1.432   3.355
    1MUSC Al0e423256   7.497   1.737   1.346
    1MUSC Al0e523257   7.589   0.979   0.343
    1MUSC Al0e623258   7.582   1.284   0.344
    1MUSC Al0e723259   7.414   0.979   3.355
    1MUSC Al0e823260   7.237   1.284   1.346
    1MUSC Si1I123261   7.504   1.747   3.621
    1MUSC Si1I223262   7.147   1.422   1.080
    1MUSC Si1I323263   7.498   1.747   0.077
    1MUSC Si1I423264   7.673   1.422   0.610
    1MUSC Si1I523265   7.245   1.591   0.077
    1MUSC Si1I623266   7.406   1.577   0.610
    1MUSC Si1I723267   7.758   1.591   3.620
    1MUSC Si1I823268   7.414   1.577   1.081
    1MUSC Si1I923269   7.765   1.294   3.621
    1MUSC Si1IA23270   7.407   0.969   1.080
    1MUSC Si1IB23271   7.238   1.294   0.077
    1MUSC Si1IC23272   7.413   0.969   0.610
    1MUSC Si1ID23273   7.505   1.139   0.077
    1MUSC Si1IE23274   7.666   1.124   0.610
    1MUSC Si1IF23275   7.497   1.139   3.620
    1MUSC Si1IG23276   7.153   1.124   1.081
    1MUSC O03s123277   7.267   1.580   0.236
    1MUSC O03s223278   7.384   1.588   0.451
    1MUSC O03s323279   7.736   1.580   3.461
    1MUSC O03s423280   7.436   1.588   1.240
    1MUSC O03s523281   7.523   1.400   3.453
    1MUSC O03s623282   7.128   1.768   1.248
    1MUSC O03s723283   7.480   1.400   0.245
    1MUSC O03s823284   7.691   1.768   0.442
    1MUSC O03s923285   7.382   1.649   3.672
    1MUSC O03sA23286   7.269   1.520   1.029
    1MUSC O03sB23287   7.620   1.649   0.025
    1MUSC O03sC23288   7.551   1.520   0.662
    1MUSC O03sD23289   7.361   1.686   0.006
    1MUSC O03sE23290   7.290   1.483   0.681
    1MUSC O03sF23291   7.642   1.686   3.692
    1MUSC O03sG23292   7.530   1.483   1.009
    1MUSC O03sH23293   7.261   1.442   0.006
    1MUSC O03sI23294   7.390   1.726   0.681
    1MUSC O03sJ23295   7.742   1.442   3.691
    1MUSC O03sK23296   7.430   1.726   1.010
    1MUSC O03sL23297   7.523   1.758   3.461
    1MUSC O03sM23298   7.128   1.410   1.240
    1MUSC O03sN23299   7.480   1.758   0.236
    1MUSC O03sO23300   7.691   1.410   0.451
    1MUSC O03sP23301   7.527   1.127   0.236
    1MUSC O03sQ23302   7.644   1.136   0.451
    1MUSC O03sR23303   7.475   1.127   3.461
    1MUSC O03sS23304   7.176   1.136   1.240
    1MUSC O03sT23305   7.783   0.948   3.453
    1MUSC O03sU23306   7.389   1.316   1.248
    1MUSC O03sV23307   7.220   0.948   0.245
    1MUSC O03sW23308   7.431   1.316   0.442
    1MUSC O03sX23309   7.643   1.196   3.672
    1MUSC O03sY23310   7.529   1.067   1.029
    1MUSC O03sZ23311   7.360   1.196   0.025
    1MUSC O03sa23312   7.291   1.067   0.662
    1MUSC O03sb23313   7.621   1.233   0.006
    1MUSC O03sc23314   7.550   1.030   0.681
    1MUSC O03sd23315   7.381   1.233   3.692
    1MUSC O03se23316   7.269   1.030   1.009
    1MUSC O03sf23317   7.521   0.990   0.006
    1MUSC O03sg23318   7.650   1.274   0.681
    1MUSC O03sh23319   7.481   0.990   3.691
    1MUSC O03si23320   7.170   1.274   1.010
    1MUSC O03sj23321   7.783   1.306   3.461
    1MUSC O03sk23322   7.389   0.958   1.240
    1MUSC O03sl23323   7.220   1.306   0.236
    1MUSC O03sm23324   7.431   0.958   0.451
    1MUSC K00F323325   7.318   1.448   1.849
    1MUSC K00F423326   6.967   1.720   2.852
    1MUSC K00F523327   7.058   0.996   1.849
    1MUSC K00F623328   7.227   1.268   2.852
    1MUSC Al0e923329   7.146   1.432   2.350
    1MUSC Al0eA23330   7.139   1.737   2.351
    1MUSC Al0eB23331   7.491   1.432   1.348
    1MUSC Al0eC23332   7.314   1.737   3.353
    1MUSC Al0eD23333   7.406   0.979   2.350
    1MUSC Al0eE23334   7.399   1.284   2.351
    1MUSC Al0eF23335   7.231   0.979   1.348
    1MUSC Al0eG23336   7.054   1.284   3.353
    1MUSC Si1IH23337   7.321   1.747   1.614
    1MUSC Si1II23338   6.964   1.422   3.087
    1MUSC Si1IJ23339   7.315   1.747   2.084
    1MUSC Si1IK23340   7.490   1.422   2.617
    1MUSC Si1IL23341   7.062   1.591   2.084
    1MUSC Si1IM23342   7.223   1.577   2.617
    1MUSC Si1IN23343   7.575   1.591   1.613
    1MUSC Si1IO23344   7.231   1.577   3.088
    1MUSC Si1IP23345   7.582   1.294   1.614
    1MUSC Si1IQ23346   7.224   0.969   3.087
    1MUSC Si1IR23347   7.055   1.294   2.084
    1MUSC Si1IS23348   7.230   0.969   2.617
    1MUSC Si1IT23349   7.322   1.139   2.084
    1MUSC Si1IU23350   7.483   1.124   2.617
    1MUSC Si1IV23351   7.314   1.139   1.613
    1MUSC Si1IW23352   6.970   1.124   3.088
    1MUSC O03sn23353   7.084   1.580   2.243
    1MUSC O03so23354   7.201   1.588   2.458
    1MUSC O03sp23355   7.553   1.580   1.454
    1MUSC O03sq23356   7.253   1.588   3.247
    1MUSC O03sr23357   7.340   1.400   1.446
    1MUSC O03ss23358   6.945   1.768   3.255
    1MUSC O03st23359   7.297   1.400   2.252
    1MUSC O03su23360   7.508   1.768   2.449
    1MUSC O03sv23361   7.199   1.649   1.665
    1MUSC O03sw23362   7.086   1.520   3.036
    1MUSC O03sx23363   7.437   1.649   2.032
    1MUSC O03sy23364   7.368   1.520   2.669
    1MUSC O03sz23365   7.178   1.686   2.013
    1MUSC O03t023366   7.107   1.483   2.688
    1MUSC O03t123367   7.459   1.686   1.685
    1MUSC O03t223368   7.347   1.483   3.016
    1MUSC O03t323369   7.078   1.442   2.013
    1MUSC O03t423370   7.207   1.726   2.688
    1MUSC O03t523371   7.559   1.442   1.684
    1MUSC O03t623372   7.247   1.726   3.017
    1MUSC O03t723373   7.340   1.758   1.454
    1MUSC O03t823374   6.945   1.410   3.247
    1MUSC O03t923375   7.297   1.758   2.243
    1MUSC O03tA23376   7.508   1.410   2.458
    1MUSC O03tB23377   7.344   1.127   2.243
    1MUSC O03tC23378   7.461   1.136   2.458
    1MUSC O03tD23379   7.292   1.127   1.454
    1MUSC O03tE23380   6.993   1.136   3.247
    1MUSC O03tF23381   7.600   0.948   1.446
    1MUSC O03tG23382   7.206   1.316   3.255
    1MUSC O03tH23383   7.037   0.948   2.252
    1MUSC O03tI23384   7.248   1.316   2.449
    1MUSC O03tJ23385   7.460   1.196   1.665
    1MUSC O03tK23386   7.346   1.067   3.036
    1MUSC O03tL23387   7.177   1.196   2.032
    1MUSC O03tM23388   7.108   1.067   2.669
    1MUSC O03tN23389   7.438   1.233   2.013
    1MUSC O03tO23390   7.367   1.030   2.688
    1MUSC O03tP23391   7.198   1.233   1.685
    1MUSC O03tQ23392   7.086   1.030   3.016
    1MUSC O03tR23393   7.338   0.990   2.013
    1MUSC O03tS23394   7.467   1.274   2.688
    1MUSC O03tT23395   7.298   0.990   1.684
    1MUSC O03tU23396   6.987   1.274   3.017
    1MUSC O03tV23397   7.600   1.306   1.454
    1MUSC O03tW23398   7.206   0.958   3.247
    1MUSC O03tX23399   7.037   1.306   2.243
    1MUSC O03tY23400   7.248   0.958   2.458
    1MUSC K00F723401   7.150   2.626   0.845
    1MUSC K00F823402   7.410   2.173   0.845
    1MUSC Al0eH23403   7.329   2.337   0.343
    1MUSC Al0eI23404   7.322   2.642   0.344
    1MUSC Al0eJ23405   7.674   2.337   3.355
    1MUSC Al0eK23406   7.497   2.642   1.346
    1MUSC Al0eL23407   7.589   1.884   0.343
    1MUSC Al0eM23408   7.582   2.189   0.344
    1MUSC Al0eN23409   7.414   1.884   3.355
    1MUSC Al0eO23410   7.237   2.189   1.346
    1MUSC Si1IX23411   7.504   2.652   3.621
    1MUSC Si1IY23412   7.147   2.327   1.080
    1MUSC Si1IZ23413   7.498   2.652   0.077
    1MUSC Si1Ia23414   7.673   2.327   0.610
    1MUSC Si1Ib23415   7.245   2.497   0.077
    1MUSC Si1Ic23416   7.406   2.482   0.610
    1MUSC Si1Id23417   7.758   2.497   3.620
    1MUSC Si1Ie23418   7.414   2.482   1.081
    1MUSC Si1If23419   7.765   2.199   3.621
    1MUSC Si1Ig23420   7.407   1.874   1.080
    1MUSC Si1Ih23421   7.238   2.199   0.077
    1MUSC Si1Ii23422   7.413   1.874   0.610
    1MUSC Si1Ij23423   7.505   2.044   0.077
    1MUSC Si1Ik23424   7.666   2.030   0.610
    1MUSC Si1Il23425   7.497   2.044   3.620
    1MUSC Si1Im23426   7.153   2.030   1.081
    1MUSC O03tZ23427   7.267   2.485   0.236
    1MUSC O03ta23428   7.384   2.494   0.451
    1MUSC O03tb23429   7.736   2.485   3.461
    1MUSC O03tc23430   7.436   2.494   1.240
    1MUSC O03td23431   7.523   2.305   3.453
    1MUSC O03te23432   7.128   2.674   1.248
    1MUSC O03tf23433   7.480   2.305   0.245
    1MUSC O03tg23434   7.691   2.674   0.442
    1MUSC O03th23435   7.382   2.554   3.672
    1MUSC O03ti23436   7.269   2.425   1.029
    1MUSC O03tj23437   7.620   2.554   0.025
    1MUSC O03tk23438   7.551   2.425   0.662
    1MUSC O03tl23439   7.361   2.591   0.006
    1MUSC O03tm23440   7.290   2.388   0.681
    1MUSC O03tn23441   7.642   2.591   3.692
    1MUSC O03to23442   7.530   2.388   1.009
    1MUSC O03tp23443   7.261   2.347   0.006
    1MUSC O03tq23444   7.390   2.632   0.681
    1MUSC O03tr23445   7.742   2.347   3.691
    1MUSC O03ts23446   7.430   2.632   1.010
    1MUSC O03tt23447   7.523   2.663   3.461
    1MUSC O03tu23448   7.128   2.316   1.240
    1MUSC O03tv23449   7.480   2.663   0.236
    1MUSC O03tw23450   7.691   2.316   0.451
    1MUSC O03tx23451   7.527   2.033   0.236
    1MUSC O03ty23452   7.644   2.041   0.451
    1MUSC O03tz23453   7.475   2.033   3.461
    1MUSC O03u023454   7.176   2.041   1.240
    1MUSC O03u123455   7.783   1.853   3.453
    1MUSC O03u223456   7.389   2.221   1.248
    1MUSC O03u323457   7.220   1.853   0.245
    1MUSC O03u423458   7.431   2.221   0.442
    1MUSC O03u523459   7.643   2.101   3.672
    1MUSC O03u623460   7.529   1.972   1.029
    1MUSC O03u723461   7.360   2.101   0.025
    1MUSC O03u823462   7.291   1.972   0.662
    1MUSC O03u923463   7.621   2.139   0.006
    1MUSC O03uA23464   7.550   1.935   0.681
    1MUSC O03uB23465   7.381   2.139   3.692
    1MUSC O03uC23466   7.269   1.935   1.009
    1MUSC O03uD23467   7.521   1.895   0.006
    1MUSC O03uE23468   7.650   2.179   0.681
    1MUSC O03uF23469   7.481   1.895   3.691
    1MUSC O03uG23470   7.170   2.179   1.010
    1MUSC O03uH23471   7.783   2.211   3.461
    1MUSC O03uI23472   7.389   1.863   1.240
    1MUSC O03uJ23473   7.220   2.211   0.236
    1MUSC O03uK23474   7.431   1.863   0.451
    1MUSC K00F923475   7.318   2.353   1.849
    1MUSC K00FA23476   6.967   2.626   2.852
    1MUSC K00FB23477   7.058   1.901   1.849
    1MUSC K00FC23478   7.227   2.173   2.852
    1MUSC Al0eP23479   7.146   2.337   2.350
    1MUSC Al0eQ23480   7.139   2.642   2.351
    1MUSC Al0eR23481   7.491   2.337   1.348
    1MUSC Al0eS23482   7.314   2.642   3.353
    1MUSC Al0eT23483   7.406   1.884   2.350
    1MUSC Al0eU23484   7.399   2.189   2.351
    1MUSC Al0eV23485   7.231   1.884   1.348
    1MUSC Al0eW23486   7.054   2.189   3.353
    1MUSC Si1In23487   7.321   2.652   1.614
    1MUSC Si1Io23488   6.964   2.327   3.087
    1MUSC Si1Ip23489   7.315   2.652   2.084
    1MUSC Si1Iq23490   7.490   2.327   2.617
    1MUSC Si1Ir23491   7.062   2.497   2.084
    1MUSC Si1Is23492   7.223   2.482   2.617
    1MUSC Si1It23493   7.575   2.497   1.613
    1MUSC Si1Iu23494   7.231   2.482   3.088
    1MUSC Si1Iv23495   7.582   2.199   1.614
    1MUSC Si1Iw23496   7.224   1.874   3.087
    1MUSC Si1Ix23497   7.055   2.199   2.084
    1MUSC Si1Iy23498   7.230   1.874   2.617
    1MUSC Si1Iz23499   7.322   2.044   2.084
    1MUSC Si1J023500   7.483   2.030   2.617
    1MUSC Si1J123501   7.314   2.044   1.613
    1MUSC Si1J223502   6.970   2.030   3.088
    1MUSC O03uL23503   7.084   2.485   2.243
    1MUSC O03uM23504   7.201   2.494   2.458
    1MUSC O03uN23505   7.553   2.485   1.454
    1MUSC O03uO23506   7.253   2.494   3.247
    1MUSC O03uP23507   7.340   2.305   1.446
    1MUSC O03uQ23508   6.945   2.674   3.255
    1MUSC O03uR23509   7.297   2.305   2.252
    1MUSC O03uS23510   7.508   2.674   2.449
    1MUSC O03uT23511   7.199   2.554   1.665
    1MUSC O03uU23512   7.086   2.425   3.036
    1MUSC O03uV23513   7.437   2.554   2.032
    1MUSC O03uW23514   7.368   2.425   2.669
    1MUSC O03uX23515   7.178   2.591   2.013
    1MUSC O03uY23516   7.107   2.388   2.688
    1MUSC O03uZ23517   7.459   2.591   1.685
    1MUSC O03ua23518   7.347   2.388   3.016
    1MUSC O03ub23519   7.078   2.347   2.013
    1MUSC O03uc23520   7.207   2.632   2.688
    1MUSC O03ud23521   7.559   2.347   1.684
    1MUSC O03ue23522   7.247   2.632   3.017
    1MUSC O03uf23523   7.340   2.663   1.454
    1MUSC O03ug23524   6.945   2.316   3.247
    1MUSC O03uh23525   7.297   2.663   2.243
    1MUSC O03ui23526   7.508   2.316   2.458
    1MUSC O03uj23527   7.344   2.033   2.243
    1MUSC O03uk23528   7.461   2.041   2.458
    1MUSC O03ul23529   7.292   2.033   1.454
    1MUSC O03um23530   6.993   2.041   3.247
    1MUSC O03un23531   7.600   1.853   1.446
    1MUSC O03uo23532   7.206   2.221   3.255
    1MUSC O03up23533   7.037   1.853   2.252
    1MUSC O03uq23534   7.248   2.221   2.449
    1MUSC O03ur23535   7.460   2.101   1.665
    1MUSC O03us23536   7.346   1.972   3.036
    1MUSC O03ut23537   7.177   2.101   2.032
    1MUSC O03uu23538   7.108   1.972   2.669
    1MUSC O03uv23539   7.438   2.139   2.013
    1MUSC O03uw23540   7.367   1.935   2.688
    1MUSC O03ux23541   7.198   2.139   1.685
    1MUSC O03uy23542   7.086   1.935   3.016
    1MUSC O03uz23543   7.338   1.895   2.013
    1MUSC O03v023544   7.467   2.179   2.688
    1MUSC O03v123545   7.298   1.895   1.684
    1MUSC O03v223546   6.987   2.179   3.017
    1MUSC O03v323547   7.600   2.211   1.454
    1MUSC O03v423548   7.206   1.863   3.247
    1MUSC O03v523549   7.037   2.211   2.243
    1MUSC O03v623550   7.248   1.863   2.458
    1MUSC K00FD23551   7.150   3.531   0.845
    1MUSC K00FE23552   7.410   3.078   0.845
    1MUSC Al0eX23553   7.329   3.242   0.343
    1MUSC Al0eY23554   7.322   3.547   0.344
    1MUSC Al0eZ23555   7.674   3.242   3.355
    1MUSC Al0ea23556   7.497   3.547   1.346
    1MUSC Al0eb23557   7.589   2.790   0.343
    1MUSC Al0ec23558   7.582   3.095   0.344
    1MUSC Al0ed23559   7.414   2.790   3.355
    1MUSC Al0ee23560   7.237   3.095   1.346
    1MUSC Si1J323561   7.504   3.557   3.621
    1MUSC Si1J423562   7.147   3.232   1.080
    1MUSC Si1J523563   7.498   3.557   0.077
    1MUSC Si1J623564   7.673   3.232   0.610
    1MUSC Si1J723565   7.245   3.402   0.077
    1MUSC Si1J823566   7.406   3.388   0.610
    1MUSC Si1J923567   7.758   3.402   3.620
    1MUSC Si1JA23568   7.414   3.388   1.081
    1MUSC Si1JB23569   7.765   3.105   3.621
    1MUSC Si1JC23570   7.407   2.780   1.080
    1MUSC Si1JD23571   7.238   3.105   0.077
    1MUSC Si1JE23572   7.413   2.780   0.610
    1MUSC Si1JF23573   7.505   2.949   0.077
    1MUSC Si1JG23574   7.666   2.935   0.610
    1MUSC Si1JH23575   7.497   2.949   3.620
    1MUSC Si1JI23576   7.153   2.935   1.081
    1MUSC O03v723577   7.267   3.391   0.236
    1MUSC O03v823578   7.384   3.399   0.451
    1MUSC O03v923579   7.736   3.391   3.461
    1MUSC O03vA23580   7.436   3.399   1.240
    1MUSC O03vB23581   7.523   3.211   3.453
    1MUSC O03vC23582   7.128   3.579   1.248
    1MUSC O03vD23583   7.480   3.211   0.245
    1MUSC O03vE23584   7.691   3.579   0.442
    1MUSC O03vF23585   7.382   3.459   3.672
    1MUSC O03vG23586   7.269   3.330   1.029
    1MUSC O03vH23587   7.620   3.459   0.025
    1MUSC O03vI23588   7.551   3.330   0.662
    1MUSC O03vJ23589   7.361   3.496   0.006
    1MUSC O03vK23590   7.290   3.293   0.681
    1MUSC O03vL23591   7.642   3.496   3.692
    1MUSC O03vM23592   7.530   3.293   1.009
    1MUSC O03vN23593   7.261   3.253   0.006
    1MUSC O03vO23594   7.390   3.537   0.681
    1MUSC O03vP23595   7.742   3.253   3.691
    1MUSC O03vQ23596   7.430   3.537   1.010
    1MUSC O03vR23597   7.523   3.569   3.461
    1MUSC O03vS23598   7.128   3.221   1.240
    1MUSC O03vT23599   7.480   3.569   0.236
    1MUSC O03vU23600   7.691   3.221   0.451
    1MUSC O03vV23601   7.527   2.938   0.236
    1MUSC O03vW23602   7.644   2.946   0.451
    1MUSC O03vX23603   7.475   2.938   3.461
    1MUSC O03vY23604   7.176   2.946   1.240
    1MUSC O03vZ23605   7.783   2.758   3.453
    1MUSC O03va23606   7.389   3.126   1.248
    1MUSC O03vb23607   7.220   2.758   0.245
    1MUSC O03vc23608   7.431   3.126   0.442
    1MUSC O03vd23609   7.643   3.007   3.672
    1MUSC O03ve23610   7.529   2.877   1.029
    1MUSC O03vf23611   7.360   3.007   0.025
    1MUSC O03vg23612   7.291   2.877   0.662
    1MUSC O03vh23613   7.621   3.044   0.006
    1MUSC O03vi23614   7.550   2.840   0.681
    1MUSC O03vj23615   7.381   3.044   3.692
    1MUSC O03vk23616   7.269   2.840   1.009
    1MUSC O03vl23617   7.521   2.800   0.006
    1MUSC O03vm23618   7.650   3.084   0.681
    1MUSC O03vn23619   7.481   2.800   3.691
    1MUSC O03vo23620   7.170   3.084   1.010
    1MUSC O03vp23621   7.783   3.116   3.461
    1MUSC O03vq23622   7.389   2.768   1.240
    1MUSC O03vr23623   7.220   3.116   0.236
    1MUSC O03vs23624   7.431   2.768   0.451
    1MUSC K00FF23625   7.318   3.259   1.849
    1MUSC K00FG23626   6.967   3.531   2.852
    1MUSC K00FH23627   7.058   2.806   1.849
    1MUSC K00FI23628   7.227   3.078   2.852
    1MUSC Al0ef23629   7.146   3.242   2.350
    1MUSC Al0eg23630   7.139   3.547   2.351
    1MUSC Al0eh23631   7.491   3.242   1.348
    1MUSC Al0ei23632   7.314   3.547   3.353
    1MUSC Al0ej23633   7.406   2.790   2.350
    1MUSC Al0ek23634   7.399   3.095   2.351
    1MUSC Al0el23635   7.231   2.790   1.348
    1MUSC Al0em23636   7.054   3.095   3.353
    1MUSC Si1JJ23637   7.321   3.557   1.614
    1MUSC Si1JK23638   6.964   3.232   3.087
    1MUSC Si1JL23639   7.315   3.557   2.084
    1MUSC Si1JM23640   7.490   3.232   2.617
    1MUSC Si1JN23641   7.062   3.402   2.084
    1MUSC Si1JO23642   7.223   3.388   2.617
    1MUSC Si1JP23643   7.575   3.402   1.613
    1MUSC Si1JQ23644   7.231   3.388   3.088
    1MUSC Si1JR23645   7.582   3.105   1.614
    1MUSC Si1JS23646   7.224   2.780   3.087
    1MUSC Si1JT23647   7.055   3.105   2.084
    1MUSC Si1JU23648   7.230   2.780   2.617
    1MUSC Si1JV23649   7.322   2.949   2.084
    1MUSC Si1JW23650   7.483   2.935   2.617
    1MUSC Si1JX23651   7.314   2.949   1.613
    1MUSC Si1JY23652   6.970   2.935   3.088
    1MUSC O03vt23653   7.084   3.391   2.243
    1MUSC O03vu23654   7.201   3.399   2.458
    1MUSC O03vv23655   7.553   3.391   1.454
    1MUSC O03vw23656   7.253   3.399   3.247
    1MUSC O03vx23657   7.340   3.211   1.446
    1MUSC O03vy23658   6.945   3.579   3.255
    1MUSC O03vz23659   7.297   3.211   2.252
    1MUSC O03w023660   7.508   3.579   2.449
    1MUSC O03w123661   7.199   3.459   1.665
    1MUSC O03w223662   7.086   3.330   3.036
    1MUSC O03w323663   7.437   3.459   2.032
    1MUSC O03w423664   7.368   3.330   2.669
    1MUSC O03w523665   7.178   3.496   2.013
    1MUSC O03w623666   7.107   3.293   2.688
    1MUSC O03w723667   7.459   3.496   1.685
    1MUSC O03w823668   7.347   3.293   3.016
    1MUSC O03w923669   7.078   3.253   2.013
    1MUSC O03wA23670   7.207   3.537   2.688
    1MUSC O03wB23671   7.559   3.253   1.684
    1MUSC O03wC23672   7.247   3.537   3.017
    1MUSC O03wD23673   7.340   3.569   1.454
    1MUSC O03wE23674   6.945   3.221   3.247
    1MUSC O03wF23675   7.297   3.569   2.243
    1MUSC O03wG23676   7.508   3.221   2.458
    1MUSC O03wH23677   7.344   2.938   2.243
    1MUSC O03wI23678   7.461   2.946   2.458
    1MUSC O03wJ23679   7.292   2.938   1.454
    1MUSC O03wK23680   6.993   2.946   3.247
    1MUSC O03wL23681   7.600   2.758   1.446
    1MUSC O03wM23682   7.206   3.126   3.255
    1MUSC O03wN23683   7.037   2.758   2.252
    1MUSC O03wO23684   7.248   3.126   2.449
    1MUSC O03wP23685   7.460   3.007   1.665
    1MUSC O03wQ23686   7.346   2.877   3.036
    1MUSC O03wR23687   7.177   3.007   2.032
    1MUSC O03wS23688   7.108   2.877   2.669
    1MUSC O03wT23689   7.438   3.044   2.013
    1MUSC O03wU23690   7.367   2.840   2.688
    1MUSC O03wV23691   7.198   3.044   1.685
    1MUSC O03wW23692   7.086   2.840   3.016
    1MUSC O03wX23693   7.338   2.800   2.013
    1MUSC O03wY23694   7.467   3.084   2.688
    1MUSC O03wZ23695   7.298   2.800   1.684
    1MUSC O03wa23696   6.987   3.084   3.017
    1MUSC O03wb23697   7.600   3.116   1.454
    1MUSC O03wc23698   7.206   2.768   3.247
    1MUSC O03wd23699   7.037   3.116   2.243
    1MUSC O03we23700   7.248   2.768   2.458
    1MUSC K00FJ23701   7.150   4.436   0.845
    1MUSC K00FK23702   7.410   3.983   0.845
    1MUSC Al0en23703   7.329   4.147   0.343
    1MUSC Al0eo23704   7.322   4.453   0.344
    1MUSC Al0ep23705   7.674   4.147   3.355
    1MUSC Al0eq23706   7.497   4.453   1.346
    1MUSC Al0er23707   7.589   3.695   0.343
    1MUSC Al0es23708   7.582   4.000   0.344
    1MUSC Al0et23709   7.414   3.695   3.355
    1MUSC Al0eu23710   7.237   4.000   1.346
    1MUSC Si1JZ23711   7.504   4.462   3.621
    1MUSC Si1Ja23712   7.147   4.138   1.080
    1MUSC Si1Jb23713   7.498   4.462   0.077
    1MUSC Si1Jc23714   7.673   4.138   0.610
    1MUSC Si1Jd23715   7.245   4.307   0.077
    1MUSC Si1Je23716   7.406   4.293   0.610
    1MUSC Si1Jf23717   7.758   4.307   3.620
    1MUSC Si1Jg23718   7.414   4.293   1.081
    1MUSC Si1Jh23719   7.765   4.010   3.621
    1MUSC Si1Ji23720   7.407   3.685   1.080
    1MUSC Si1Jj23721   7.238   4.010   0.077
    1MUSC Si1Jk23722   7.413   3.685   0.610
    1MUSC Si1Jl23723   7.505   3.855   0.077
    1MUSC Si1Jm23724   7.666   3.840   0.610
    1MUSC Si1Jn23725   7.497   3.855   3.620
    1MUSC Si1Jo23726   7.153   3.840   1.081
    1MUSC O03wf23727   7.267   4.296   0.236
    1MUSC O03wg23728   7.384   4.304   0.451
    1MUSC O03wh23729   7.736   4.296   3.461
    1MUSC O03wi23730   7.436   4.304   1.240
    1MUSC O03wj23731   7.523   4.116   3.453
    1MUSC O03wk23732   7.128   4.484   1.248
    1MUSC O03wl23733   7.480   4.116   0.245
    1MUSC O03wm23734   7.691   4.484   0.442
    1MUSC O03wn23735   7.382   4.365   3.672
    1MUSC O03wo23736   7.269   4.235   1.029
    1MUSC O03wp23737   7.620   4.365   0.025
    1MUSC O03wq23738   7.551   4.235   0.662
    1MUSC O03wr23739   7.361   4.402   0.006
    1MUSC O03ws23740   7.290   4.198   0.681
    1MUSC O03wt23741   7.642   4.402   3.692
    1MUSC O03wu23742   7.530   4.198   1.009
    1MUSC O03wv23743   7.261   4.158   0.006
    1MUSC O03ww23744   7.390   4.442   0.681
    1MUSC O03wx23745   7.742   4.158   3.691
    1MUSC O03wy23746   7.430   4.442   1.010
    1MUSC O03wz23747   7.523   4.474   3.461
    1MUSC O03x023748   7.128   4.126   1.240
    1MUSC O03x123749   7.480   4.474   0.236
    1MUSC O03x223750   7.691   4.126   0.451
    1MUSC O03x323751   7.527   3.843   0.236
    1MUSC O03x423752   7.644   3.852   0.451
    1MUSC O03x523753   7.475   3.843   3.461
    1MUSC O03x623754   7.176   3.852   1.240
    1MUSC O03x723755   7.783   3.663   3.453
    1MUSC O03x823756   7.389   4.031   1.248
    1MUSC O03x923757   7.220   3.663   0.245
    1MUSC O03xA23758   7.431   4.031   0.442
    1MUSC O03xB23759   7.643   3.912   3.672
    1MUSC O03xC23760   7.529   3.783   1.029
    1MUSC O03xD23761   7.360   3.912   0.025
    1MUSC O03xE23762   7.291   3.783   0.662
    1MUSC O03xF23763   7.621   3.949   0.006
    1MUSC O03xG23764   7.550   3.746   0.681
    1MUSC O03xH23765   7.381   3.949   3.692
    1MUSC O03xI23766   7.269   3.746   1.009
    1MUSC O03xJ23767   7.521   3.705   0.006
    1MUSC O03xK23768   7.650   3.989   0.681
    1MUSC O03xL23769   7.481   3.705   3.691
    1MUSC O03xM23770   7.170   3.989   1.010
    1MUSC O03xN23771   7.783   4.021   3.461
    1MUSC O03xO23772   7.389   3.673   1.240
    1MUSC O03xP23773   7.220   4.021   0.236
    1MUSC O03xQ23774   7.431   3.673   0.451
    1MUSC K00FL23775   7.318   4.164   1.849
    1MUSC K00FM23776   6.967   4.436   2.852
    1MUSC K00FN23777   7.058   3.711   1.849
    1MUSC K00FO23778   7.227   3.983   2.852
    1MUSC Al0ev23779   7.146   4.147   2.350
    1MUSC Al0ew23780   7.139   4.453   2.351
    1MUSC Al0ex23781   7.491   4.147   1.348
    1MUSC Al0ey23782   7.314   4.453   3.353
    1MUSC Al0ez23783   7.406   3.695   2.350
    1MUSC Al0f023784   7.399   4.000   2.351
    1MUSC Al0f123785   7.231   3.695   1.348
    1MUSC Al0f223786   7.054   4.000   3.353
    1MUSC Si1Jp23787   7.321   4.462   1.614
    1MUSC Si1Jq23788   6.964   4.138   3.087
    1MUSC Si1Jr23789   7.315   4.462   2.084
    1MUSC Si1Js23790   7.490   4.138   2.617
    1MUSC Si1Jt23791   7.062   4.307   2.084
    1MUSC Si1Ju23792   7.223   4.293   2.617
    1MUSC Si1Jv23793   7.575   4.307   1.613
    1MUSC Si1Jw23794   7.231   4.293   3.088
    1MUSC Si1Jx23795   7.582   4.010   1.614
    1MUSC Si1Jy23796   7.224   3.685   3.087
    1MUSC Si1Jz23797   7.055   4.010   2.084
    1MUSC Si1K023798   7.230   3.685   2.617
    1MUSC Si1K123799   7.322   3.855   2.084
    1MUSC Si1K223800   7.483   3.840   2.617
    1MUSC Si1K323801   7.314   3.855   1.613
    1MUSC Si1K423802   6.970   3.840   3.088
    1MUSC O03xR23803   7.084   4.296   2.243
    1MUSC O03xS23804   7.201   4.304   2.458
    1MUSC O03xT23805   7.553   4.296   1.454
    1MUSC O03xU23806   7.253   4.304   3.247
    1MUSC O03xV23807   7.340   4.116   1.446
    1MUSC O03xW23808   6.945   4.484   3.255
    1MUSC O03xX23809   7.297   4.116   2.252
    1MUSC O03xY23810   7.508   4.484   2.449
    1MUSC O03xZ23811   7.199   4.365   1.665
    1MUSC O03xa23812   7.086   4.235   3.036
    1MUSC O03xb23813   7.437   4.365   2.032
    1MUSC O03xc23814   7.368   4.235   2.669
    1MUSC O03xd23815   7.178   4.402   2.013
    1MUSC O03xe23816   7.107   4.198   2.688
    1MUSC O03xf23817   7.459   4.402   1.685
    1MUSC O03xg23818   7.347   4.198   3.016
    1MUSC O03xh23819   7.078   4.158   2.013
    1MUSC O03xi23820   7.207   4.442   2.688
    1MUSC O03xj23821   7.559   4.158   1.684
    1MUSC O03xk23822   7.247   4.442   3.017
    1MUSC O03xl23823   7.340   4.474   1.454
    1MUSC O03xm23824   6.945   4.126   3.247
    1MUSC O03xn23825   7.297   4.474   2.243
    1MUSC O03xo23826   7.508   4.126   2.458
    1MUSC O03xp23827   7.344   3.843   2.243
    1MUSC O03xq23828   7.461   3.852   2.458
    1MUSC O03xr23829   7.292   3.843   1.454
    1MUSC O03xs23830   6.993   3.852   3.247
    1MUSC O03xt23831   7.600   3.663   1.446
    1MUSC O03xu23832   7.206   4.031   3.255
    1MUSC O03xv23833   7.037   3.663   2.252
    1MUSC O03xw23834   7.248   4.031   2.449
    1MUSC O03xx23835   7.460   3.912   1.665
    1MUSC O03xy23836   7.346   3.783   3.036
    1MUSC O03xz23837   7.177   3.912   2.032
    1MUSC O03y023838   7.108   3.783   2.669
    1MUSC O03y123839   7.438   3.949   2.013
    1MUSC O03y223840   7.367   3.746   2.688
    1MUSC O03y323841   7.198   3.949   1.685
    1MUSC O03y423842   7.086   3.746   3.016
    1MUSC O03y523843   7.338   3.705   2.013
    1MUSC O03y623844   7.467   3.989   2.688
    1MUSC O03y723845   7.298   3.705   1.684
    1MUSC O03y823846   6.987   3.989   3.017
    1MUSC O03y923847   7.600   4.021   1.454
    1MUSC O03yA23848   7.206   3.673   3.247
    1MUSC O03yB23849   7.037   4.021   2.243
    1MUSC O03yC23850   7.248   3.673   2.458
    1MUSC K00FP23851   7.150   5.341   0.845
    1MUSC K00FQ23852   7.410   4.889   0.845
    1MUSC Al0f323853   7.329   5.053   0.343
    1MUSC Al0f423854   7.322   5.358   0.344
    1MUSC Al0f523855   7.674   5.053   3.355
    1MUSC Al0f623856   7.497   5.358   1.346
    1MUSC Al0f723857   7.589   4.600   0.343
    1MUSC Al0f823858   7.582   4.905   0.344
    1MUSC Al0f923859   7.414   4.600   3.355
    1MUSC Al0fA23860   7.237   4.905   1.346
    1MUSC Si1K523861   7.504   5.368   3.621
    1MUSC Si1K623862   7.147   5.043   1.080
    1MUSC Si1K723863   7.498   5.368   0.077
    1MUSC Si1K823864   7.673   5.043   0.610
    1MUSC Si1K923865   7.245   5.212   0.077
    1MUSC Si1KA23866   7.406   5.198   0.610
    1MUSC Si1KB23867   7.758   5.212   3.620
    1MUSC Si1KC23868   7.414   5.198   1.081
    1MUSC Si1KD23869   7.765   4.915   3.621
    1MUSC Si1KE23870   7.407   4.590   1.080
    1MUSC Si1KF23871   7.238   4.915   0.077
    1MUSC Si1KG23872   7.413   4.590   0.610
    1MUSC Si1KH23873   7.505   4.760   0.077
    1MUSC Si1KI23874   7.666   4.746   0.610
    1MUSC Si1KJ23875   7.497   4.760   3.620
    1MUSC Si1KK23876   7.153   4.746   1.081
    1MUSC O03yD23877   7.267   5.201   0.236
    1MUSC O03yE23878   7.384   5.209   0.451
    1MUSC O03yF23879   7.736   5.201   3.461
    1MUSC O03yG23880   7.436   5.209   1.240
    1MUSC O03yH23881   7.523   5.021   3.453
    1MUSC O03yI23882   7.128   5.389   1.248
    1MUSC O03yJ23883   7.480   5.021   0.245
    1MUSC O03yK23884   7.691   5.389   0.442
    1MUSC O03yL23885   7.382   5.270   3.672
    1MUSC O03yM23886   7.269   5.141   1.029
    1MUSC O03yN23887   7.620   5.270   0.025
    1MUSC O03yO23888   7.551   5.141   0.662
    1MUSC O03yP23889   7.361   5.307   0.006
    1MUSC O03yQ23890   7.290   5.104   0.681
    1MUSC O03yR23891   7.642   5.307   3.692
    1MUSC O03yS23892   7.530   5.104   1.009
    1MUSC O03yT23893   7.261   5.063   0.006
    1MUSC O03yU23894   7.390   5.347   0.681
    1MUSC O03yV23895   7.742   5.063   3.691
    1MUSC O03yW23896   7.430   5.347   1.010
    1MUSC O03yX23897   7.523   5.379   3.461
    1MUSC O03yY23898   7.128   5.031   1.240
    1MUSC O03yZ23899   7.480   5.379   0.236
    1MUSC O03ya23900   7.691   5.031   0.451
    1MUSC O03yb23901   7.527   4.749   0.236
    1MUSC O03yc23902   7.644   4.757   0.451
    1MUSC O03yd23903   7.475   4.749   3.461
    1MUSC O03ye23904   7.176   4.757   1.240
    1MUSC O03yf23905   7.783   4.569   3.453
    1MUSC O03yg23906   7.389   4.937   1.248
    1MUSC O03yh23907   7.220   4.569   0.245
    1MUSC O03yi23908   7.431   4.937   0.442
    1MUSC O03yj23909   7.643   4.817   3.672
    1MUSC O03yk23910   7.529   4.688   1.029
    1MUSC O03yl23911   7.360   4.817   0.025
    1MUSC O03ym23912   7.291   4.688   0.662
    1MUSC O03yn23913   7.621   4.854   0.006
    1MUSC O03yo23914   7.550   4.651   0.681
    1MUSC O03yp23915   7.381   4.854   3.692
    1MUSC O03yq23916   7.269   4.651   1.009
    1MUSC O03yr23917   7.521   4.611   0.006
    1MUSC O03ys23918   7.650   4.895   0.681
    1MUSC O03yt23919   7.481   4.611   3.691
    1MUSC O03yu23920   7.170   4.895   1.010
    1MUSC O03yv23921   7.783   4.927   3.461
    1MUSC O03yw23922   7.389   4.579   1.240
    1MUSC O03yx23923   7.220   4.927   0.236
    1MUSC O03yy23924   7.431   4.579   0.451
    1MUSC K00FR23925   7.318   5.069   1.849
    1MUSC K00FS23926   6.967   5.341   2.852
    1MUSC K00FT23927   7.058   4.617   1.849
    1MUSC K00FU23928   7.227   4.889   2.852
    1MUSC Al0fB23929   7.146   5.053   2.350
    1MUSC Al0fC23930   7.139   5.358   2.351
    1MUSC Al0fD23931   7.491   5.053   1.348
    1MUSC Al0fE23932   7.314   5.358   3.353
    1MUSC Al0fF23933   7.406   4.600   2.350
    1MUSC Al0fG23934   7.399   4.905   2.351
    1MUSC Al0fH23935   7.231   4.600   1.348
    1MUSC Al0fI23936   7.054   4.905   3.353
    1MUSC Si1KL23937   7.321   5.368   1.614
    1MUSC Si1KM23938   6.964   5.043   3.087
    1MUSC Si1KN23939   7.315   5.368   2.084
    1MUSC Si1KO23940   7.490   5.043   2.617
    1MUSC Si1KP23941   7.062   5.212   2.084
    1MUSC Si1KQ23942   7.223   5.198   2.617
    1MUSC Si1KR23943   7.575   5.212   1.613
    1MUSC Si1KS23944   7.231   5.198   3.088
    1MUSC Si1KT23945   7.582   4.915   1.614
    1MUSC Si1KU23946   7.224   4.590   3.087
    1MUSC Si1KV23947   7.055   4.915   2.084
    1MUSC Si1KW23948   7.230   4.590   2.617
    1MUSC Si1KX23949   7.322   4.760   2.084
    1MUSC Si1KY23950   7.483   4.746   2.617
    1MUSC Si1KZ23951   7.314   4.760   1.613
    1MUSC Si1Ka23952   6.970   4.746   3.088
    1MUSC O03yz23953   7.084   5.201   2.243
    1MUSC O03z023954   7.201   5.209   2.458
    1MUSC O03z123955   7.553   5.201   1.454
    1MUSC O03z223956   7.253   5.209   3.247
    1MUSC O03z323957   7.340   5.021   1.446
    1MUSC O03z423958   6.945   5.389   3.255
    1MUSC O03z523959   7.297   5.021   2.252
    1MUSC O03z623960   7.508   5.389   2.449
    1MUSC O03z723961   7.199   5.270   1.665
    1MUSC O03z823962   7.086   5.141   3.036
    1MUSC O03z923963   7.437   5.270   2.032
    1MUSC O03zA23964   7.368   5.141   2.669
    1MUSC O03zB23965   7.178   5.307   2.013
    1MUSC O03zC23966   7.107   5.104   2.688
    1MUSC O03zD23967   7.459   5.307   1.685
    1MUSC O03zE23968   7.347   5.104   3.016
    1MUSC O03zF23969   7.078   5.063   2.013
    1MUSC O03zG23970   7.207   5.347   2.688
    1MUSC O03zH23971   7.559   5.063   1.684
    1MUSC O03zI23972   7.247   5.347   3.017
    1MUSC O03zJ23973   7.340   5.379   1.454
    1MUSC O03zK23974   6.945   5.031   3.247
    1MUSC O03zL23975   7.297   5.379   2.243
    1MUSC O03zM23976   7.508   5.031   2.458
    1MUSC O03zN23977   7.344   4.749   2.243
    1MUSC O03zO23978   7.461   4.757   2.458
    1MUSC O03zP23979   7.292   4.749   1.454
    1MUSC O03zQ23980   6.993   4.757   3.247
    1MUSC O03zR23981   7.600   4.569   1.446
    1MUSC O03zS23982   7.206   4.937   3.255
    1MUSC O03zT23983   7.037   4.569   2.252
    1MUSC O03zU23984   7.248   4.937   2.449
    1MUSC O03zV23985   7.460   4.817   1.665
    1MUSC O03zW23986   7.346   4.688   3.036
    1MUSC O03zX23987   7.177   4.817   2.032
    1MUSC O03zY23988   7.108   4.688   2.669
    1MUSC O03zZ23989   7.438   4.854   2.013
    1MUSC O03za23990   7.367   4.651   2.688
    1MUSC O03zb23991   7.198   4.854   1.685
    1MUSC O03zc23992   7.086   4.651   3.016
    1MUSC O03zd23993   7.338   4.611   2.013
    1MUSC O03ze23994   7.467   4.895   2.688
    1MUSC O03zf23995   7.298   4.611   1.684
    1MUSC O03zg23996   6.987   4.895   3.017
    1MUSC O03zh23997   7.600   4.927   1.454
    1MUSC O03zi23998   7.206   4.579   3.247
    1MUSC O03zj23999   7.037   4.927   2.243
    1MUSC O03zk24000   7.248   4.579   2.458
    1MUSC K00FV24001   7.150   6.247   0.845
    1MUSC K00FW24002   7.410   5.794   0.845
    1MUSC Al0fJ24003   7.329   5.958   0.343
    1MUSC Al0fK24004   7.322   6.263   0.344
    1MUSC Al0fL24005   7.674   5.958   3.355
    1MUSC Al0fM24006   7.497   6.263   1.346
    1MUSC Al0fN24007   7.589   5.505   0.343
    1MUSC Al0fO24008   7.582   5.810   0.344
    1MUSC Al0fP24009   7.414   5.505   3.355
    1MUSC Al0fQ24010   7.237   5.810   1.346
    1MUSC Si1Kb24011   7.504   6.273   3.621
    1MUSC Si1Kc24012   7.147   5.948   1.080
    1MUSC Si1Kd24013   7.498   6.273   0.077
    1MUSC Si1Ke24014   7.673   5.948   0.610
    1MUSC Si1Kf24015   7.245   6.118   0.077
    1MUSC Si1Kg24016   7.406   6.103   0.610
    1MUSC Si1Kh24017   7.758   6.118   3.620
    1MUSC Si1Ki24018   7.414   6.103   1.081
    1MUSC Si1Kj24019   7.765   5.820   3.621
    1MUSC Si1Kk24020   7.407   5.495   1.080
    1MUSC Si1Kl24021   7.238   5.820   0.077
    1MUSC Si1Km24022   7.413   5.495   0.610
    1MUSC Si1Kn24023   7.505   5.665   0.077
    1MUSC Si1Ko24024   7.666   5.651   0.610
    1MUSC Si1Kp24025   7.497   5.665   3.620
    1MUSC Si1Kq24026   7.153   5.651   1.081
    1MUSC O03zl24027   7.267   6.106   0.236
    1MUSC O03zm24028   7.384   6.115   0.451
    1MUSC O03zn24029   7.736   6.106   3.461
    1MUSC O03zo24030   7.436   6.115   1.240
    1MUSC O03zp24031   7.523   5.927   3.453
    1MUSC O03zq24032   7.128   6.295   1.248
    1MUSC O03zr24033   7.480   5.927   0.245
    1MUSC O03zs24034   7.691   6.295   0.442
    1MUSC O03zt24035   7.382   6.175   3.672
    1MUSC O03zu24036   7.269   6.046   1.029
    1MUSC O03zv24037   7.620   6.175   0.025
    1MUSC O03zw24038   7.551   6.046   0.662
    1MUSC O03zx24039   7.361   6.212   0.006
    1MUSC O03zy24040   7.290   6.009   0.681
    1MUSC O03zz24041   7.642   6.212   3.692
    1MUSC O040024042   7.530   6.009   1.009
    1MUSC O040124043   7.261   5.969   0.006
    1MUSC O040224044   7.390   6.253   0.681
    1MUSC O040324045   7.742   5.969   3.691
    1MUSC O040424046   7.430   6.253   1.010
    1MUSC O040524047   7.523   6.285   3.461
    1MUSC O040624048   7.128   5.937   1.240
    1MUSC O040724049   7.480   6.285   0.236
    1MUSC O040824050   7.691   5.937   0.451
    1MUSC O040924051   7.527   5.654   0.236
    1MUSC O040A24052   7.644   5.662   0.451
    1MUSC O040B24053   7.475   5.654   3.461
    1MUSC O040C24054   7.176   5.662   1.240
    1MUSC O040D24055   7.783   5.474   3.453
    1MUSC O040E24056   7.389   5.842   1.248
    1MUSC O040F24057   7.220   5.474   0.245
    1MUSC O040G24058   7.431   5.842   0.442
    1MUSC O040H24059   7.643   5.723   3.672
    1MUSC O040I24060   7.529   5.593   1.029
    1MUSC O040J24061   7.360   5.723   0.025
    1MUSC O040K24062   7.291   5.593   0.662
    1MUSC O040L24063   7.621   5.760   0.006
    1MUSC O040M24064   7.550   5.556   0.681
    1MUSC O040N24065   7.381   5.760   3.692
    1MUSC O040O24066   7.269   5.556   1.009
    1MUSC O040P24067   7.521   5.516   0.006
    1MUSC O040Q24068   7.650   5.800   0.681
    1MUSC O040R24069   7.481   5.516   3.691
    1MUSC O040S24070   7.170   5.800   1.010
    1MUSC O040T24071   7.783   5.832   3.461
    1MUSC O040U24072   7.389   5.484   1.240
    1MUSC O040V24073   7.220   5.832   0.236
    1MUSC O040W24074   7.431   5.484   0.451
    1MUSC K00FX24075   7.318   5.975   1.849
    1MUSC K00FY24076   6.967   6.247   2.852
    1MUSC K00FZ24077   7.058   5.522   1.849
    1MUSC K00Fa24078   7.227   5.794   2.852
    1MUSC Al0fR24079   7.146   5.958   2.350
    1MUSC Al0fS24080   7.139   6.263   2.351
    1MUSC Al0fT24081   7.491   5.958   1.348
    1MUSC Al0fU24082   7.314   6.263   3.353
    1MUSC Al0fV24083   7.406   5.505   2.350
    1MUSC Al0fW24084   7.399   5.810   2.351
    1MUSC Al0fX24085   7.231   5.505   1.348
    1MUSC Al0fY24086   7.054   5.810   3.353
    1MUSC Si1Kr24087   7.321   6.273   1.614
    1MUSC Si1Ks24088   6.964   5.948   3.087
    1MUSC Si1Kt24089   7.315   6.273   2.084
    1MUSC Si1Ku24090   7.490   5.948   2.617
    1MUSC Si1Kv24091   7.062   6.118   2.084
    1MUSC Si1Kw24092   7.223   6.103   2.617
    1MUSC Si1Kx24093   7.575   6.118   1.613
    1MUSC Si1Ky24094   7.231   6.103   3.088
    1MUSC Si1Kz24095   7.582   5.820   1.614
    1MUSC Si1L024096   7.224   5.495   3.087
    1MUSC Si1L124097   7.055   5.820   2.084
    1MUSC Si1L224098   7.230   5.495   2.617
    1MUSC Si1L324099   7.322   5.665   2.084
    1MUSC Si1L424100   7.483   5.651   2.617
    1MUSC Si1L524101   7.314   5.665   1.613
    1MUSC Si1L624102   6.970   5.651   3.088
    1MUSC O040X24103   7.084   6.106   2.243
    1MUSC O040Y24104   7.201   6.115   2.458
    1MUSC O040Z24105   7.553   6.106   1.454
    1MUSC O040a24106   7.253   6.115   3.247
    1MUSC O040b24107   7.340   5.927   1.446
    1MUSC O040c24108   6.945   6.295   3.255
    1MUSC O040d24109   7.297   5.927   2.252
    1MUSC O040e24110   7.508   6.295   2.449
    1MUSC O040f24111   7.199   6.175   1.665
    1MUSC O040g24112   7.086   6.046   3.036
    1MUSC O040h24113   7.437   6.175   2.032
    1MUSC O040i24114   7.368   6.046   2.669
    1MUSC O040j24115   7.178   6.212   2.013
    1MUSC O040k24116   7.107   6.009   2.688
    1MUSC O040l24117   7.459   6.212   1.685
    1MUSC O040m24118   7.347   6.009   3.016
    1MUSC O040n24119   7.078   5.969   2.013
    1MUSC O040o24120   7.207   6.253   2.688
    1MUSC O040p24121   7.559   5.969   1.684
    1MUSC O040q24122   7.247   6.253   3.017
    1MUSC O040r24123   7.340   6.285   1.454
    1MUSC O040s24124   6.945   5.937   3.247
    1MUSC O040t24125   7.297   6.285   2.243
    1MUSC O040u24126   7.508   5.937   2.458
    1MUSC O040v24127   7.344   5.654   2.243
    1MUSC O040w24128   7.461   5.662   2.458
    1MUSC O040x24129   7.292   5.654   1.454
    1MUSC O040y24130   6.993   5.662   3.247
    1MUSC O040z24131   7.600   5.474   1.446
    1MUSC O041024132   7.206   5.842   3.255
    1MUSC O041124133   7.037   5.474   2.252
    1MUSC O041224134   7.248   5.842   2.449
    1MUSC O041324135   7.460   5.723   1.665
    1MUSC O041424136   7.346   5.593   3.036
    1MUSC O041524137   7.177   5.723   2.032
    1MUSC O041624138   7.108   5.593   2.669
    1MUSC O041724139   7.438   5.760   2.013
    1MUSC O041824140   7.367   5.556   2.688
    1MUSC O041924141   7.198   5.760   1.685
    1MUSC O041A24142   7.086   5.556   3.016
    1MUSC O041B24143   7.338   5.516   2.013
    1MUSC O041C24144   7.467   5.800   2.688
    1MUSC O041D24145   7.298   5.516   1.684
    1MUSC O041E24146   6.987   5.800   3.017
    1MUSC O041F24147   7.600   5.832   1.454
    1MUSC O041G24148   7.206   5.484   3.247
    1MUSC O041H24149   7.037   5.832   2.243
    1MUSC O041I24150   7.248   5.484   2.458
    1MUSC K00Fb24151   7.150   7.152   0.845
    1MUSC K00Fc24152   7.410   6.699   0.845
    1MUSC Al0fZ24153   7.329   6.863   0.343
    1MUSC Al0fa24154   7.322   7.168   0.344
    1MUSC Al0fb24155   7.674   6.863   3.355
    1MUSC Al0fc24156   7.497   7.168   1.346
    1MUSC Al0fd24157   7.589   6.411   0.343
    1MUSC Al0fe24158   7.582   6.716   0.344
    1MUSC Al0ff24159   7.414   6.411   3.355
    1MUSC Al0fg24160   7.237   6.716   1.346
    1MUSC Si1L724161   7.504   7.178   3.621
    1MUSC Si1L824162   7.147   6.853   1.080
    1MUSC Si1L924163   7.498   7.178   0.077
    1MUSC Si1LA24164   7.673   6.853   0.610
    1MUSC Si1LB24165   7.245   7.023   0.077
    1MUSC Si1LC24166   7.406   7.009   0.610
    1MUSC Si1LD24167   7.758   7.023   3.620
    1MUSC Si1LE24168   7.414   7.009   1.081
    1MUSC Si1LF24169   7.765   6.726   3.621
    1MUSC Si1LG24170   7.407   6.401   1.080
    1MUSC Si1LH24171   7.238   6.726   0.077
    1MUSC Si1LI24172   7.413   6.401   0.610
    1MUSC Si1LJ24173   7.505   6.570   0.077
    1MUSC Si1LK24174   7.666   6.556   0.610
    1MUSC Si1LL24175   7.497   6.570   3.620
    1MUSC Si1LM24176   7.153   6.556   1.081
    1MUSC O041J24177   7.267   7.012   0.236
    1MUSC O041K24178   7.384   7.020   0.451
    1MUSC O041L24179   7.736   7.012   3.461
    1MUSC O041M24180   7.436   7.020   1.240
    1MUSC O041N24181   7.523   6.832   3.453
    1MUSC O041O24182   7.128   7.200   1.248
    1MUSC O041P24183   7.480   6.832   0.245
    1MUSC O041Q24184   7.691   7.200   0.442
    1MUSC O041R24185   7.382   7.080   3.672
    1MUSC O041S24186   7.269   6.951   1.029
    1MUSC O041T24187   7.620   7.080   0.025
    1MUSC O041U24188   7.551   6.951   0.662
    1MUSC O041V24189   7.361   7.117   0.006
    1MUSC O041W24190   7.290   6.914   0.681
    1MUSC O041X24191   7.642   7.117   3.692
    1MUSC O041Y24192   7.530   6.914   1.009
    1MUSC O041Z24193   7.261   6.874   0.006
    1MUSC O041a24194   7.390   7.158   0.681
    1MUSC O041b24195   7.742   6.874   3.691
    1MUSC O041c24196   7.430   7.158   1.010
    1MUSC O041d24197   7.523   7.190   3.461
    1MUSC O041e24198   7.128   6.842   1.240
    1MUSC O041f24199   7.480   7.190   0.236
    1MUSC O041g24200   7.691   6.842   0.451
    1MUSC O041h24201   7.527   6.559   0.236
    1MUSC O041i24202   7.644   6.567   0.451
    1MUSC O041j24203   7.475   6.559   3.461
    1MUSC O041k24204   7.176   6.567   1.240
    1MUSC O041l24205   7.783   6.379   3.453
    1MUSC O041m24206   7.389   6.747   1.248
    1MUSC O041n24207   7.220   6.379   0.245
    1MUSC O041o24208   7.431   6.747   0.442
    1MUSC O041p24209   7.643   6.628   3.672
    1MUSC O041q24210   7.529   6.499   1.029
    1MUSC O041r24211   7.360   6.628   0.025
    1MUSC O041s24212   7.291   6.499   0.662
    1MUSC O041t24213   7.621   6.665   0.006
    1MUSC O041u24214   7.550   6.462   0.681
    1MUSC O041v24215   7.381   6.665   3.692
    1MUSC O041w24216   7.269   6.462   1.009
    1MUSC O041x24217   7.521   6.421   0.006
    1MUSC O041y24218   7.650   6.705   0.681
    1MUSC O041z24219   7.481   6.421   3.691
    1MUSC O042024220   7.170   6.705   1.010
    1MUSC O042124221   7.783   6.737   3.461
    1MUSC O042224222   7.389   6.389   1.240
    1MUSC O042324223   7.220   6.737   0.236
    1MUSC O042424224   7.431   6.389   0.451
    1MUSC K00Fd24225   7.318   6.880   1.849
    1MUSC K00Fe24226   6.967   7.152   2.852
    1MUSC K00Ff24227   7.058   6.427   1.849
    1MUSC K00Fg24228   7.227   6.699   2.852
    1MUSC Al0fh24229   7.146   6.863   2.350
    1MUSC Al0fi24230   7.139   7.168   2.351
    1MUSC Al0fj24231   7.491   6.863   1.348
    1MUSC Al0fk24232   7.314   7.168   3.353
    1MUSC Al0fl24233   7.406   6.411   2.350
    1MUSC Al0fm24234   7.399   6.716   2.351
    1MUSC Al0fn24235   7.231   6.411   1.348
    1MUSC Al0fo24236   7.054   6.716   3.353
    1MUSC Si1LN24237   7.321   7.178   1.614
    1MUSC Si1LO24238   6.964   6.853   3.087
    1MUSC Si1LP24239   7.315   7.178   2.084
    1MUSC Si1LQ24240   7.490   6.853   2.617
    1MUSC Si1LR24241   7.062   7.023   2.084
    1MUSC Si1LS24242   7.223   7.009   2.617
    1MUSC Si1LT24243   7.575   7.023   1.613
    1MUSC Si1LU24244   7.231   7.009   3.088
    1MUSC Si1LV24245   7.582   6.726   1.614
    1MUSC Si1LW24246   7.224   6.401   3.087
    1MUSC Si1LX24247   7.055   6.726   2.084
    1MUSC Si1LY24248   7.230   6.401   2.617
    1MUSC Si1LZ24249   7.322   6.570   2.084
    1MUSC Si1La24250   7.483   6.556   2.617
    1MUSC Si1Lb24251   7.314   6.570   1.613
    1MUSC Si1Lc24252   6.970   6.556   3.088
    1MUSC O042524253   7.084   7.012   2.243
    1MUSC O042624254   7.201   7.020   2.458
    1MUSC O042724255   7.553   7.012   1.454
    1MUSC O042824256   7.253   7.020   3.247
    1MUSC O042924257   7.340   6.832   1.446
    1MUSC O042A24258   6.945   7.200   3.255
    1MUSC O042B24259   7.297   6.832   2.252
    1MUSC O042C24260   7.508   7.200   2.449
    1MUSC O042D24261   7.199   7.080   1.665
    1MUSC O042E24262   7.086   6.951   3.036
    1MUSC O042F24263   7.437   7.080   2.032
    1MUSC O042G24264   7.368   6.951   2.669
    1MUSC O042H24265   7.178   7.117   2.013
    1MUSC O042I24266   7.107   6.914   2.688
    1MUSC O042J24267   7.459   7.117   1.685
    1MUSC O042K24268   7.347   6.914   3.016
    1MUSC O042L24269   7.078   6.874   2.013
    1MUSC O042M24270   7.207   7.158   2.688
    1MUSC O042N24271   7.559   6.874   1.684
    1MUSC O042O24272   7.247   7.158   3.017
    1MUSC O042P24273   7.340   7.190   1.454
    1MUSC O042Q24274   6.945   6.842   3.247
    1MUSC O042R24275   7.297   7.190   2.243
    1MUSC O042S24276   7.508   6.842   2.458
    1MUSC O042T24277   7.344   6.559   2.243
    1MUSC O042U24278   7.461   6.567   2.458
    1MUSC O042V24279   7.292   6.559   1.454
    1MUSC O042W24280   6.993   6.567   3.247
    1MUSC O042X24281   7.600   6.379   1.446
    1MUSC O042Y24282   7.206   6.747   3.255
    1MUSC O042Z24283   7.037   6.379   2.252
    1MUSC O042a24284   7.248   6.747   2.449
    1MUSC O042b24285   7.460   6.628   1.665
    1MUSC O042c24286   7.346   6.499   3.036
    1MUSC O042d24287   7.177   6.628   2.032
    1MUSC O042e24288   7.108   6.499   2.669
    1MUSC O042f24289   7.438   6.665   2.013
    1MUSC O042g24290   7.367   6.462   2.688
    1MUSC O042h24291   7.198   6.665   1.685
    1MUSC O042i24292   7.086   6.462   3.016
    1MUSC O042j24293   7.338   6.421   2.013
    1MUSC O042k24294   7.467   6.705   2.688
    1MUSC O042l24295   7.298   6.421   1.684
    1MUSC O042m24296   6.987   6.705   3.017
    1MUSC O042n24297   7.600   6.737   1.454
    1MUSC O042o24298   7.206   6.389   3.247
    1MUSC O042p24299   7.037   6.737   2.243
    1MUSC O042q24300   7.248   6.389   2.458
    1MUSC K00Fh24301   7.150   8.057   0.845
    1MUSC K00Fi24302   7.410   7.605   0.845
    1MUSC Al0fp24303   7.329   7.769   0.343
    1MUSC Al0fq24304   7.322   8.074   0.344
    1MUSC Al0fr24305   7.674   7.769   3.355
    1MUSC Al0fs24306   7.497   8.074   1.346
    1MUSC Al0ft24307   7.589   7.316   0.343
    1MUSC Al0fu24308   7.582   7.621   0.344
    1MUSC Al0fv24309   7.414   7.316   3.355
    1MUSC Al0fw24310   7.237   7.621   1.346
    1MUSC Si1Ld24311   7.504   8.084   3.621
    1MUSC Si1Le24312   7.147   7.759   1.080
    1MUSC Si1Lf24313   7.498   8.084   0.077
    1MUSC Si1Lg24314   7.673   7.759   0.610
    1MUSC Si1Lh24315   7.245   7.928   0.077
    1MUSC Si1Li24316   7.406   7.914   0.610
    1MUSC Si1Lj24317   7.758   7.928   3.620
    1MUSC Si1Lk24318   7.414   7.914   1.081
    1MUSC Si1Ll24319   7.765   7.631   3.621
    1MUSC Si1Lm24320   7.407   7.306   1.080
    1MUSC Si1Ln24321   7.238   7.631   0.077
    1MUSC Si1Lo24322   7.413   7.306   0.610
    1MUSC Si1Lp24323   7.505   7.476   0.077
    1MUSC Si1Lq24324   7.666   7.461   0.610
    1MUSC Si1Lr24325   7.497   7.476   3.620
    1MUSC Si1Ls24326   7.153   7.461   1.081
    1MUSC O042r24327   7.267   7.917   0.236
    1MUSC O042s24328   7.384   7.925   0.451
    1MUSC O042t24329   7.736   7.917   3.461
    1MUSC O042u24330   7.436   7.925   1.240
    1MUSC O042v24331   7.523   7.737   3.453
    1MUSC O042w24332   7.128   8.105   1.248
    1MUSC O042x24333   7.480   7.737   0.245
    1MUSC O042y24334   7.691   8.105   0.442
    1MUSC O042z24335   7.382   7.986   3.672
    1MUSC O043024336   7.269   7.856   1.029
    1MUSC O043124337   7.620   7.986   0.025
    1MUSC O043224338   7.551   7.856   0.662
    1MUSC O043324339   7.361   8.023   0.006
    1MUSC O043424340   7.290   7.819   0.681
    1MUSC O043524341   7.642   8.023   3.692
    1MUSC O043624342   7.530   7.819   1.009
    1MUSC O043724343   7.261   7.779   0.006
    1MUSC O043824344   7.390   8.063   0.681
    1MUSC O043924345   7.742   7.779   3.691
    1MUSC O043A24346   7.430   8.063   1.010
    1MUSC O043B24347   7.523   8.095   3.461
    1MUSC O043C24348   7.128   7.747   1.240
    1MUSC O043D24349   7.480   8.095   0.236
    1MUSC O043E24350   7.691   7.747   0.451
    1MUSC O043F24351   7.527   7.464   0.236
    1MUSC O043G24352   7.644   7.473   0.451
    1MUSC O043H24353   7.475   7.464   3.461
    1MUSC O043I24354   7.176   7.473   1.240
    1MUSC O043J24355   7.783   7.284   3.453
    1MUSC O043K24356   7.389   7.653   1.248
    1MUSC O043L24357   7.220   7.284   0.245
    1MUSC O043M24358   7.431   7.653   0.442
    1MUSC O043N24359   7.643   7.533   3.672
    1MUSC O043O24360   7.529   7.404   1.029
    1MUSC O043P24361   7.360   7.533   0.025
    1MUSC O043Q24362   7.291   7.404   0.662
    1MUSC O043R24363   7.621   7.570   0.006
    1MUSC O043S24364   7.550   7.367   0.681
    1MUSC O043T24365   7.381   7.570   3.692
    1MUSC O043U24366   7.269   7.367   1.009
    1MUSC O043V24367   7.521   7.326   0.006
    1MUSC O043W24368   7.650   7.611   0.681
    1MUSC O043X24369   7.481   7.326   3.691
    1MUSC O043Y24370   7.170   7.611   1.010
    1MUSC O043Z24371   7.783   7.642   3.461
    1MUSC O043a24372   7.389   7.295   1.240
    1MUSC O043b24373   7.220   7.642   0.236
    1MUSC O043c24374   7.431   7.295   0.451
    1MUSC K00Fj24375   7.318   7.785   1.849
    1MUSC K00Fk24376   6.967   8.057   2.852
    1MUSC K00Fl24377   7.058   7.332   1.849
    1MUSC K00Fm24378   7.227   7.605   2.852
    1MUSC Al0fx24379   7.146   7.769   2.350
    1MUSC Al0fy24380   7.139   8.074   2.351
    1MUSC Al0fz24381   7.491   7.769   1.348
    1MUSC Al0g024382   7.314   8.074   3.353
    1MUSC Al0g124383   7.406   7.316   2.350
    1MUSC Al0g224384   7.399   7.621   2.351
    1MUSC Al0g324385   7.231   7.316   1.348
    1MUSC Al0g424386   7.054   7.621   3.353
    1MUSC Si1Lt24387   7.321   8.084   1.614
    1MUSC Si1Lu24388   6.964   7.759   3.087
    1MUSC Si1Lv24389   7.315   8.084   2.084
    1MUSC Si1Lw24390   7.490   7.759   2.617
    1MUSC Si1Lx24391   7.062   7.928   2.084
    1MUSC Si1Ly24392   7.223   7.914   2.617
    1MUSC Si1Lz24393   7.575   7.928   1.613
    1MUSC Si1M024394   7.231   7.914   3.088
    1MUSC Si1M124395   7.582   7.631   1.614
    1MUSC Si1M224396   7.224   7.306   3.087
    1MUSC Si1M324397   7.055   7.631   2.084
    1MUSC Si1M424398   7.230   7.306   2.617
    1MUSC Si1M524399   7.322   7.476   2.084
    1MUSC Si1M624400   7.483   7.461   2.617
    1MUSC Si1M724401   7.314   7.476   1.613
    1MUSC Si1M824402   6.970   7.461   3.088
    1MUSC O043d24403   7.084   7.917   2.243
    1MUSC O043e24404   7.201   7.925   2.458
    1MUSC O043f24405   7.553   7.917   1.454
    1MUSC O043g24406   7.253   7.925   3.247
    1MUSC O043h24407   7.340   7.737   1.446
    1MUSC O043i24408   6.945   8.105   3.255
    1MUSC O043j24409   7.297   7.737   2.252
    1MUSC O043k24410   7.508   8.105   2.449
    1MUSC O043l24411   7.199   7.986   1.665
    1MUSC O043m24412   7.086   7.856   3.036
    1MUSC O043n24413   7.437   7.986   2.032
    1MUSC O043o24414   7.368   7.856   2.669
    1MUSC O043p24415   7.178   8.023   2.013
    1MUSC O043q24416   7.107   7.819   2.688
    1MUSC O043r24417   7.459   8.023   1.685
    1MUSC O043s24418   7.347   7.819   3.016
    1MUSC O043t24419   7.078   7.779   2.013
    1MUSC O043u24420   7.207   8.063   2.688
    1MUSC O043v24421   7.559   7.779   1.684
    1MUSC O043w24422   7.247   8.063   3.017
    1MUSC O043x24423   7.340   8.095   1.454
    1MUSC O043y24424   6.945   7.747   3.247
    1MUSC O043z24425   7.297   8.095   2.243
    1MUSC O044024426   7.508   7.747   2.458
    1MUSC O044124427   7.344   7.464   2.243
    1MUSC O044224428   7.461   7.473   2.458
    1MUSC O044324429   7.292   7.464   1.454
    1MUSC O044424430   6.993   7.473   3.247
    1MUSC O044524431   7.600   7.284   1.446
    1MUSC O044624432   7.206   7.653   3.255
    1MUSC O044724433   7.037   7.284   2.252
    1MUSC O044824434   7.248   7.653   2.449
    1MUSC O044924435   7.460   7.533   1.665
    1MUSC O044A24436   7.346   7.404   3.036
    1MUSC O044B24437   7.177   7.533   2.032
    1MUSC O044C24438   7.108   7.404   2.669
    1MUSC O044D24439   7.438   7.570   2.013
    1MUSC O044E24440   7.367   7.367   2.688
    1MUSC O044F24441   7.198   7.570   1.685
    1MUSC O044G24442   7.086   7.367   3.016
    1MUSC O044H24443   7.338   7.326   2.013
    1MUSC O044I24444   7.467   7.611   2.688
    1MUSC O044J24445   7.298   7.326   1.684
    1MUSC O044K24446   6.987   7.611   3.017
    1MUSC O044L24447   7.600   7.642   1.454
    1MUSC O044M24448   7.206   7.295   3.247
    1MUSC O044N24449   7.037   7.642   2.243
    1MUSC O044O24450   7.248   7.295   2.458
    1MUSC K00Fn24451   7.150   8.962   0.845
    1MUSC K00Fo24452   7.410   8.510   0.845
    1MUSC Al0g524453   7.329   8.674   0.343
    1MUSC Al0g624454   7.322   8.979   0.344
    1MUSC Al0g724455   7.674   8.674   3.355
    1MUSC Al0g824456   7.497   8.979   1.346
    1MUSC Al0g924457   7.589   8.221   0.343
    1MUSC Al0gA24458   7.582   8.526   0.344
    1MUSC Al0gB24459   7.414   8.221   3.355
    1MUSC Al0gC24460   7.237   8.526   1.346
    1MUSC Si1M924461   7.504   8.989   3.621
    1MUSC Si1MA24462   7.147   8.664   1.080
    1MUSC Si1MB24463   7.498   8.989   0.077
    1MUSC Si1MC24464   7.673   8.664   0.610
    1MUSC Si1MD24465   7.245   8.834   0.077
    1MUSC Si1ME24466   7.406   8.819   0.610
    1MUSC Si1MF24467   7.758   8.834   3.620
    1MUSC Si1MG24468   7.414   8.819   1.081
    1MUSC Si1MH24469   7.765   8.536   3.621
    1MUSC Si1MI24470   7.407   8.211   1.080
    1MUSC Si1MJ24471   7.238   8.536   0.077
    1MUSC Si1MK24472   7.413   8.211   0.610
    1MUSC Si1ML24473   7.505   8.381   0.077
    1MUSC Si1MM24474   7.666   8.367   0.610
    1MUSC Si1MN24475   7.497   8.381   3.620
    1MUSC Si1MO24476   7.153   8.367   1.081
    1MUSC O044P24477   7.267   8.822   0.236
    1MUSC O044Q24478   7.384   8.831   0.451
    1MUSC O044R24479   7.736   8.822   3.461
    1MUSC O044S24480   7.436   8.831   1.240
    1MUSC O044T24481   7.523   8.642   3.453
    1MUSC O044U24482   7.128   9.010   1.248
    1MUSC O044V24483   7.480   8.642   0.245
    1MUSC O044W24484   7.691   9.010   0.442
    1MUSC O044X24485   7.382   8.891   3.672
    1MUSC O044Y24486   7.269   8.762   1.029
    1MUSC O044Z24487   7.620   8.891   0.025
    1MUSC O044a24488   7.551   8.762   0.662
    1MUSC O044b24489   7.361   8.928   0.006
    1MUSC O044c24490   7.290   8.725   0.681
    1MUSC O044d24491   7.642   8.928   3.692
    1MUSC O044e24492   7.530   8.725   1.009
    1MUSC O044f24493   7.261   8.684   0.006
    1MUSC O044g24494   7.390   8.968   0.681
    1MUSC O044h24495   7.742   8.684   3.691
    1MUSC O044i24496   7.430   8.968   1.010
    1MUSC O044j24497   7.523   9.000   3.461
    1MUSC O044k24498   7.128   8.652   1.240
    1MUSC O044l24499   7.480   9.000   0.236
    1MUSC O044m24500   7.691   8.652   0.451
    1MUSC O044n24501   7.527   8.370   0.236
    1MUSC O044o24502   7.644   8.378   0.451
    1MUSC O044p24503   7.475   8.370   3.461
    1MUSC O044q24504   7.176   8.378   1.240
    1MUSC O044r24505   7.783   8.190   3.453
    1MUSC O044s24506   7.389   8.558   1.248
    1MUSC O044t24507   7.220   8.190   0.245
    1MUSC O044u24508   7.431   8.558   0.442
    1MUSC O044v24509   7.643   8.438   3.672
    1MUSC O044w24510   7.529   8.309   1.029
    1MUSC O044x24511   7.360   8.438   0.025
    1MUSC O044y24512   7.291   8.309   0.662
    1MUSC O044z24513   7.621   8.475   0.006
    1MUSC O045024514   7.550   8.272   0.681
    1MUSC O045124515   7.381   8.475   3.692
    1MUSC O045224516   7.269   8.272   1.009
    1MUSC O045324517   7.521   8.232   0.006
    1MUSC O045424518   7.650   8.516   0.681
    1MUSC O045524519   7.481   8.232   3.691
    1MUSC O045624520   7.170   8.516   1.010
    1MUSC O045724521   7.783   8.548   3.461
    1MUSC O045824522   7.389   8.200   1.240
    1MUSC O045924523   7.220   8.548   0.236
    1MUSC O045A24524   7.431   8.200   0.451
    1MUSC K00Fp24525   7.318   8.690   1.849
    1MUSC K00Fq24526   6.967   8.962   2.852
    1MUSC K00Fr24527   7.058   8.238   1.849
    1MUSC K00Fs24528   7.227   8.510   2.852
    1MUSC Al0gD24529   7.146   8.674   2.350
    1MUSC Al0gE24530   7.139   8.979   2.351
    1MUSC Al0gF24531   7.491   8.674   1.348
    1MUSC Al0gG24532   7.314   8.979   3.353
    1MUSC Al0gH24533   7.406   8.221   2.350
    1MUSC Al0gI24534   7.399   8.526   2.351
    1MUSC Al0gJ24535   7.231   8.221   1.348
    1MUSC Al0gK24536   7.054   8.526   3.353
    1MUSC Si1MP24537   7.321   8.989   1.614
    1MUSC Si1MQ24538   6.964   8.664   3.087
    1MUSC Si1MR24539   7.315   8.989   2.084
    1MUSC Si1MS24540   7.490   8.664   2.617
    1MUSC Si1MT24541   7.062   8.834   2.084
    1MUSC Si1MU24542   7.223   8.819   2.617
    1MUSC Si1MV24543   7.575   8.834   1.613
    1MUSC Si1MW24544   7.231   8.819   3.088
    1MUSC Si1MX24545   7.582   8.536   1.614
    1MUSC Si1MY24546   7.224   8.211   3.087
    1MUSC Si1MZ24547   7.055   8.536   2.084
    1MUSC Si1Ma24548   7.230   8.211   2.617
    1MUSC Si1Mb24549   7.322   8.381   2.084
    1MUSC Si1Mc24550   7.483   8.367   2.617
    1MUSC Si1Md24551   7.314   8.381   1.613
    1MUSC Si1Me24552   6.970   8.367   3.088
    1MUSC O045B24553   7.084   8.822   2.243
    1MUSC O045C24554   7.201   8.831   2.458
    1MUSC O045D24555   7.553   8.822   1.454
    1MUSC O045E24556   7.253   8.831   3.247
    1MUSC O045F24557   7.340   8.642   1.446
    1MUSC O045G24558   6.945   9.010   3.255
    1MUSC O045H24559   7.297   8.642   2.252
    1MUSC O045I24560   7.508   9.010   2.449
    1MUSC O045J24561   7.199   8.891   1.665
    1MUSC O045K24562   7.086   8.762   3.036
    1MUSC O045L24563   7.437   8.891   2.032
    1MUSC O045M24564   7.368   8.762   2.669
    1MUSC O045N24565   7.178   8.928   2.013
    1MUSC O045O24566   7.107   8.725   2.688
    1MUSC O045P24567   7.459   8.928   1.685
    1MUSC O045Q24568   7.347   8.725   3.016
    1MUSC O045R24569   7.078   8.684   2.013
    1MUSC O045S24570   7.207   8.968   2.688
    1MUSC O045T24571   7.559   8.684   1.684
    1MUSC O045U24572   7.247   8.968   3.017
    1MUSC O045V24573   7.340   9.000   1.454
    1MUSC O045W24574   6.945   8.652   3.247
    1MUSC O045X24575   7.297   9.000   2.243
    1MUSC O045Y24576   7.508   8.652   2.458
    1MUSC O045Z24577   7.344   8.370   2.243
    1MUSC O045a24578   7.461   8.378   2.458
    1MUSC O045b24579   7.292   8.370   1.454
    1MUSC O045c24580   6.993   8.378   3.247
    1MUSC O045d24581   7.600   8.190   1.446
    1MUSC O045e24582   7.206   8.558   3.255
    1MUSC O045f24583   7.037   8.190   2.252
    1MUSC O045g24584   7.248   8.558   2.449
    1MUSC O045h24585   7.460   8.438   1.665
    1MUSC O045i24586   7.346   8.309   3.036
    1MUSC O045j24587   7.177   8.438   2.032
    1MUSC O045k24588   7.108   8.309   2.669
    1MUSC O045l24589   7.438   8.475   2.013
    1MUSC O045m24590   7.367   8.272   2.688
    1MUSC O045n24591   7.198   8.475   1.685
    1MUSC O045o24592   7.086   8.272   3.016
    1MUSC O045p24593   7.338   8.232   2.013
    1MUSC O045q24594   7.467   8.516   2.688
    1MUSC O045r24595   7.298   8.232   1.684
    1MUSC O045s24596   6.987   8.516   3.017
    1MUSC O045t24597   7.600   8.548   1.454
    1MUSC O045u24598   7.206   8.200   3.247
    1MUSC O045v24599   7.037   8.548   2.243
    1MUSC O045w24600   7.248   8.200   2.458
    1MUSC K00Ft24601   7.150   9.868   0.845
    1MUSC K00Fu24602   7.410   9.415   0.845
    1MUSC Al0gL24603   7.329   9.579   0.343
    1MUSC Al0gM24604   7.322   9.884   0.344
    1MUSC Al0gN24605   7.674   9.579   3.355
    1MUSC Al0gO24606   7.497   9.884   1.346
    1MUSC Al0gP24607   7.589   9.126   0.343
    1MUSC Al0gQ24608   7.582   9.432   0.344
    1MUSC Al0gR24609   7.414   9.126   3.355
    1MUSC Al0gS24610   7.237   9.432   1.346
    1MUSC Si1Mf24611   7.504   9.894   3.621
    1MUSC Si1Mg24612   7.147   9.569   1.080
    1MUSC Si1Mh24613   7.498   9.894   0.077
    1MUSC Si1Mi24614   7.673   9.569   0.610
    1MUSC Si1Mj24615   7.245   9.739   0.077
    1MUSC Si1Mk24616   7.406   9.724   0.610
    1MUSC Si1Ml24617   7.758   9.739   3.620
    1MUSC Si1Mm24618   7.414   9.724   1.081
    1MUSC Si1Mn24619   7.765   9.441   3.621
    1MUSC Si1Mo24620   7.407   9.117   1.080
    1MUSC Si1Mp24621   7.238   9.441   0.077
    1MUSC Si1Mq24622   7.413   9.117   0.610
    1MUSC Si1Mr24623   7.505   9.286   0.077
    1MUSC Si1Ms24624   7.666   9.272   0.610
    1MUSC Si1Mt24625   7.497   9.286   3.620
    1MUSC Si1Mu24626   7.153   9.272   1.081
    1MUSC O045x24627   7.267   9.728   0.236
    1MUSC O045y24628   7.384   9.736   0.451
    1MUSC O045z24629   7.736   9.728   3.461
    1MUSC O046024630   7.436   9.736   1.240
    1MUSC O046124631   7.523   9.548   3.453
    1MUSC O046224632   7.128   9.916   1.248
    1MUSC O046324633   7.480   9.548   0.245
    1MUSC O046424634   7.691   9.916   0.442
    1MUSC O046524635   7.382   9.796   3.672
    1MUSC O046624636   7.269   9.667   1.029
    1MUSC O046724637   7.620   9.796   0.025
    1MUSC O046824638   7.551   9.667   0.662
    1MUSC O046924639   7.361   9.833   0.006
    1MUSC O046A24640   7.290   9.630   0.681
    1MUSC O046B24641   7.642   9.833   3.692
    1MUSC O046C24642   7.530   9.630   1.009
    1MUSC O046D24643   7.261   9.590   0.006
    1MUSC O046E24644   7.390   9.874   0.681
    1MUSC O046F24645   7.742   9.590   3.691
    1MUSC O046G24646   7.430   9.874   1.010
    1MUSC O046H24647   7.523   9.906   3.461
    1MUSC O046I24648   7.128   9.558   1.240
    1MUSC O046J24649   7.480   9.906   0.236
    1MUSC O046K24650   7.691   9.558   0.451
    1MUSC O046L24651   7.527   9.275   0.236
    1MUSC O046M24652   7.644   9.283   0.451
    1MUSC O046N24653   7.475   9.275   3.461
    1MUSC O046O24654   7.176   9.283   1.240
    1MUSC O046P24655   7.783   9.095   3.453
    1MUSC O046Q24656   7.389   9.463   1.248
    1MUSC O046R24657   7.220   9.095   0.245
    1MUSC O046S24658   7.431   9.463   0.442
    1MUSC O046T24659   7.643   9.344   3.672
    1MUSC O046U24660   7.529   9.214   1.029
    1MUSC O046V24661   7.360   9.344   0.025
    1MUSC O046W24662   7.291   9.214   0.662
    1MUSC O046X24663   7.621   9.381   0.006
    1MUSC O046Y24664   7.550   9.177   0.681
    1MUSC O046Z24665   7.381   9.381   3.692
    1MUSC O046a24666   7.269   9.177   1.009
    1MUSC O046b24667   7.521   9.137   0.006
    1MUSC O046c24668   7.650   9.421   0.681
    1MUSC O046d24669   7.481   9.137   3.691
    1MUSC O046e24670   7.170   9.421   1.010
    1MUSC O046f24671   7.783   9.453   3.461
    1MUSC O046g24672   7.389   9.105   1.240
    1MUSC O046h24673   7.220   9.453   0.236
    1MUSC O046i24674   7.431   9.105   0.451
    1MUSC K00Fv24675   7.318   9.596   1.849
    1MUSC K00Fw24676   6.967   9.868   2.852
    1MUSC K00Fx24677   7.058   9.143   1.849
    1MUSC K00Fy24678   7.227   9.415   2.852
    1MUSC Al0gT24679   7.146   9.579   2.350
    1MUSC Al0gU24680   7.139   9.884   2.351
    1MUSC Al0gV24681   7.491   9.579   1.348
    1MUSC Al0gW24682   7.314   9.884   3.353
    1MUSC Al0gX24683   7.406   9.126   2.350
    1MUSC Al0gY24684   7.399   9.432   2.351
    1MUSC Al0gZ24685   7.231   9.126   1.348
    1MUSC Al0ga24686   7.054   9.432   3.353
    1MUSC Si1Mv24687   7.321   9.894   1.614
    1MUSC Si1Mw24688   6.964   9.569   3.087
    1MUSC Si1Mx24689   7.315   9.894   2.084
    1MUSC Si1My24690   7.490   9.569   2.617
    1MUSC Si1Mz24691   7.062   9.739   2.084
    1MUSC Si1N024692   7.223   9.724   2.617
    1MUSC Si1N124693   7.575   9.739   1.613
    1MUSC Si1N224694   7.231   9.724   3.088
    1MUSC Si1N324695   7.582   9.441   1.614
    1MUSC Si1N424696   7.224   9.117   3.087
    1MUSC Si1N524697   7.055   9.441   2.084
    1MUSC Si1N624698   7.230   9.117   2.617
    1MUSC Si1N724699   7.322   9.286   2.084
    1MUSC Si1N824700   7.483   9.272   2.617
    1MUSC Si1N924701   7.314   9.286   1.613
    1MUSC Si1NA24702   6.970   9.272   3.088
    1MUSC O046j24703   7.084   9.728   2.243
    1MUSC O046k24704   7.201   9.736   2.458
    1MUSC O046l24705   7.553   9.728   1.454
    1MUSC O046m24706   7.253   9.736   3.247
    1MUSC O046n24707   7.340   9.548   1.446
    1MUSC O046o24708   6.945   9.916   3.255
    1MUSC O046p24709   7.297   9.548   2.252
    1MUSC O046q24710   7.508   9.916   2.449
    1MUSC O046r24711   7.199   9.796   1.665
    1MUSC O046s24712   7.086   9.667   3.036
    1MUSC O046t24713   7.437   9.796   2.032
    1MUSC O046u24714   7.368   9.667   2.669
    1MUSC O046v24715   7.178   9.833   2.013
    1MUSC O046w24716   7.107   9.630   2.688
    1MUSC O046x24717   7.459   9.833   1.685
    1MUSC O046y24718   7.347   9.630   3.016
    1MUSC O046z24719   7.078   9.590   2.013
    1MUSC O047024720   7.207   9.874   2.688
    1MUSC O047124721   7.559   9.590   1.684
    1MUSC O047224722   7.247   9.874   3.017
    1MUSC O047324723   7.340   9.906   1.454
    1MUSC O047424724   6.945   9.558   3.247
    1MUSC O047524725   7.297   9.906   2.243
    1MUSC O047624726   7.508   9.558   2.458
    1MUSC O047724727   7.344   9.275   2.243
    1MUSC O047824728   7.461   9.283   2.458
    1MUSC O047924729   7.292   9.275   1.454
    1MUSC O047A24730   6.993   9.283   3.247
    1MUSC O047B24731   7.600   9.095   1.446
    1MUSC O047C24732   7.206   9.463   3.255
    1MUSC O047D24733   7.037   9.095   2.252
    1MUSC O047E24734   7.248   9.463   2.449
    1MUSC O047F24735   7.460   9.344   1.665
    1MUSC O047G24736   7.346   9.214   3.036
    1MUSC O047H24737   7.177   9.344   2.032
    1MUSC O047I24738   7.108   9.214   2.669
    1MUSC O047J24739   7.438   9.381   2.013
    1MUSC O047K24740   7.367   9.177   2.688
    1MUSC O047L24741   7.198   9.381   1.685
    1MUSC O047M24742   7.086   9.177   3.016
    1MUSC O047N24743   7.338   9.137   2.013
    1MUSC O047O24744   7.467   9.421   2.688
    1MUSC O047P24745   7.298   9.137   1.684
    1MUSC O047Q24746   6.987   9.421   3.017
    1MUSC O047R24747   7.600   9.453   1.454
    1MUSC O047S24748   7.206   9.105   3.247
    1MUSC O047T24749   7.037   9.453   2.243
    1MUSC O047U24750   7.248   9.105   2.458
    1MUSC K00Fz24751   7.670   0.815   0.845
    1MUSC K00G024752   7.930   0.362   0.845
    1MUSC Al0gb24753   7.849   0.526   0.343
    1MUSC Al0gc24754   7.843   0.831   0.344
    1MUSC Al0gd24755   8.194   0.526   3.355
    1MUSC Al0ge24756   8.018   0.831   1.346
    1MUSC Al0gf24757   8.109   0.074   0.343
    1MUSC Al0gg24758   8.103   0.379   0.344
    1MUSC Al0gh24759   7.934   0.074   3.355
    1MUSC Al0gi24760   7.758   0.379   1.346
    1MUSC Si1NB24761   8.025   0.841   3.621
    1MUSC Si1NC24762   7.667   0.517   1.080
    1MUSC Si1ND24763   8.019   0.841   0.077
    1MUSC Si1NE24764   8.194   0.517   0.610
    1MUSC Si1NF24765   7.765   0.686   0.077
    1MUSC Si1NG24766   7.926   0.672   0.610
    1MUSC Si1NH24767   8.278   0.686   3.620
    1MUSC Si1NI24768   7.934   0.672   1.081
    1MUSC Si1NJ24769   8.285   0.389   3.621
    1MUSC Si1NK24770   7.927   0.064   1.080
    1MUSC Si1NL24771   7.759   0.389   0.077
    1MUSC Si1NM24772   7.933   0.064   0.610
    1MUSC Si1NN24773   8.026   0.233   0.077
    1MUSC Si1NO24774   8.187   0.219   0.610
    1MUSC Si1NP24775   8.018   0.233   3.620
    1MUSC Si1NQ24776   7.674   0.219   1.081
    1MUSC O047V24777   7.788   0.675   0.236
    1MUSC O047W24778   7.904   0.683   0.451
    1MUSC O047X24779   8.256   0.675   3.461
    1MUSC O047Y24780   7.956   0.683   1.240
    1MUSC O047Z24781   8.043   0.495   3.453
    1MUSC O047a24782   7.649   0.863   1.248
    1MUSC O047b24783   8.001   0.495   0.245
    1MUSC O047c24784   8.212   0.863   0.442
    1MUSC O047d24785   7.903   0.744   3.672
    1MUSC O047e24786   7.789   0.614   1.029
    1MUSC O047f24787   8.141   0.744   0.025
    1MUSC O047g24788   8.072   0.614   0.662
    1MUSC O047h24789   7.881   0.781   0.006
    1MUSC O047i24790   7.810   0.577   0.681
    1MUSC O047j24791   8.162   0.781   3.692
    1MUSC O047k24792   8.050   0.577   1.009
    1MUSC O047l24793   7.782   0.537   0.006
    1MUSC O047m24794   7.910   0.821   0.681
    1MUSC O047n24795   8.262   0.537   3.691
    1MUSC O047o24796   7.950   0.821   1.010
    1MUSC O047p24797   8.043   0.853   3.461
    1MUSC O047q24798   7.649   0.505   1.240
    1MUSC O047r24799   8.001   0.853   0.236
    1MUSC O047s24800   8.212   0.505   0.451
    1MUSC O047t24801   8.048   0.222   0.236
    1MUSC O047u24802   8.165   0.230   0.451
    1MUSC O047v24803   7.996   0.222   3.461
    1MUSC O047w24804   7.696   0.230   1.240
    1MUSC O047x24805   8.303   0.042   3.453
    1MUSC O047y24806   7.909   0.410   1.248
    1MUSC O047z24807   7.740   0.042   0.245
    1MUSC O048024808   7.952   0.410   0.442
    1MUSC O048124809   8.163   0.291   3.672
    1MUSC O048224810   8.049   0.162   1.029
    1MUSC O048324811   7.881   0.291   0.025
    1MUSC O048424812   7.811   0.162   0.662
    1MUSC O048524813   8.142   0.328   0.006
    1MUSC O048624814   8.071   0.125   0.681
    1MUSC O048724815   7.902   0.328   3.692
    1MUSC O048824816   7.790   0.125   1.009
    1MUSC O048924817   8.042   0.084   0.006
    1MUSC O048A24818   8.171   0.368   0.681
    1MUSC O048B24819   8.002   0.084   3.691
    1MUSC O048C24820   7.690   0.368   1.010
    1MUSC O048D24821   8.303   0.400   3.461
    1MUSC O048E24822   7.909   0.052   1.240
    1MUSC O048F24823   7.740   0.400   0.236
    1MUSC O048G24824   7.952   0.052   0.451
    1MUSC K00G124825   7.839   0.543   1.849
    1MUSC K00G224826   7.487   0.815   2.852
    1MUSC K00G324827   7.579   0.090   1.849
    1MUSC K00G424828   7.747   0.362   2.852
    1MUSC Al0gj24829   7.666   0.526   2.350
    1MUSC Al0gk24830   7.660   0.831   2.351
    1MUSC Al0gl24831   8.011   0.526   1.348
    1MUSC Al0gm24832   7.835   0.831   3.353
    1MUSC Al0gn24833   7.926   0.074   2.350
    1MUSC Al0go24834   7.920   0.379   2.351
    1MUSC Al0gp24835   7.751   0.074   1.348
    1MUSC Al0gq24836   7.575   0.379   3.353
    1MUSC Si1NR24837   7.842   0.841   1.614
    1MUSC Si1NS24838   7.484   0.517   3.087
    1MUSC Si1NT24839   7.836   0.841   2.084
    1MUSC Si1NU24840   8.011   0.517   2.617
    1MUSC Si1NV24841   7.582   0.686   2.084
    1MUSC Si1NW24842   7.743   0.672   2.617
    1MUSC Si1NX24843   8.095   0.686   1.613
    1MUSC Si1NY24844   7.751   0.672   3.088
    1MUSC Si1NZ24845   8.102   0.389   1.614
    1MUSC Si1Na24846   7.744   0.064   3.087
    1MUSC Si1Nb24847   7.576   0.389   2.084
    1MUSC Si1Nc24848   7.750   0.064   2.617
    1MUSC Si1Nd24849   7.843   0.233   2.084
    1MUSC Si1Ne24850   8.004   0.219   2.617
    1MUSC Si1Nf24851   7.835   0.233   1.613
    1MUSC Si1Ng24852   7.491   0.219   3.088
    1MUSC O048H24853   7.605   0.675   2.243
    1MUSC O048I24854   7.721   0.683   2.458
    1MUSC O048J24855   8.073   0.675   1.454
    1MUSC O048K24856   7.773   0.683   3.247
    1MUSC O048L24857   7.860   0.495   1.446
    1MUSC O048M24858   7.466   0.863   3.255
    1MUSC O048N24859   7.818   0.495   2.252
    1MUSC O048O24860   8.029   0.863   2.449
    1MUSC O048P24861   7.720   0.744   1.665
    1MUSC O048Q24862   7.606   0.614   3.036
    1MUSC O048R24863   7.958   0.744   2.032
    1MUSC O048S24864   7.889   0.614   2.669
    1MUSC O048T24865   7.698   0.781   2.013
    1MUSC O048U24866   7.627   0.577   2.688
    1MUSC O048V24867   7.979   0.781   1.685
    1MUSC O048W24868   7.867   0.577   3.016
    1MUSC O048X24869   7.599   0.537   2.013
    1MUSC O048Y24870   7.727   0.821   2.688
    1MUSC O048Z24871   8.079   0.537   1.684
    1MUSC O048a24872   7.767   0.821   3.017
    1MUSC O048b24873   7.860   0.853   1.454
    1MUSC O048c24874   7.466   0.505   3.247
    1MUSC O048d24875   7.818   0.853   2.243
    1MUSC O048e24876   8.029   0.505   2.458
    1MUSC O048f24877   7.865   0.222   2.243
    1MUSC O048g24878   7.982   0.230   2.458
    1MUSC O048h24879   7.813   0.222   1.454
    1MUSC O048i24880   7.513   0.230   3.247
    1MUSC O048j24881   8.120   0.042   1.446
    1MUSC O048k24882   7.726   0.410   3.255
    1MUSC O048l24883   7.557   0.042   2.252
    1MUSC O048m24884   7.769   0.410   2.449
    1MUSC O048n24885   7.980   0.291   1.665
    1MUSC O048o24886   7.866   0.162   3.036
    1MUSC O048p24887   7.698   0.291   2.032
    1MUSC O048q24888   7.628   0.162   2.669
    1MUSC O048r24889   7.959   0.328   2.013
    1MUSC O048s24890   7.888   0.125   2.688
    1MUSC O048t24891   7.719   0.328   1.685
    1MUSC O048u24892   7.607   0.125   3.016
    1MUSC O048v24893   7.859   0.084   2.013
    1MUSC O048w24894   7.988   0.368   2.688
    1MUSC O048x24895   7.819   0.084   1.684
    1MUSC O048y24896   7.507   0.368   3.017
    1MUSC O048z24897   8.120   0.400   1.454
    1MUSC O049024898   7.726   0.052   3.247
    1MUSC O049124899   7.557   0.400   2.243
    1MUSC O049224900   7.769   0.052   2.458
    1MUSC K00G524901   7.670   1.720   0.845
    1MUSC K00G624902   7.930   1.268   0.845
    1MUSC Al0gr24903   7.849   1.432   0.343
    1MUSC Al0gs24904   7.843   1.737   0.344
    1MUSC Al0gt24905   8.194   1.432   3.355
    1MUSC Al0gu24906   8.018   1.737   1.346
    1MUSC Al0gv24907   8.109   0.979   0.343
    1MUSC Al0gw24908   8.103   1.284   0.344
    1MUSC Al0gx24909   7.934   0.979   3.355
    1MUSC Al0gy24910   7.758   1.284   1.346
    1MUSC Si1Nh24911   8.025   1.747   3.621
    1MUSC Si1Ni24912   7.667   1.422   1.080
    1MUSC Si1Nj24913   8.019   1.747   0.077
    1MUSC Si1Nk24914   8.194   1.422   0.610
    1MUSC Si1Nl24915   7.765   1.591   0.077
    1MUSC Si1Nm24916   7.926   1.577   0.610
    1MUSC Si1Nn24917   8.278   1.591   3.620
    1MUSC Si1No24918   7.934   1.577   1.081
    1MUSC Si1Np24919   8.285   1.294   3.621
    1MUSC Si1Nq24920   7.927   0.969   1.080
    1MUSC Si1Nr24921   7.759   1.294   0.077
    1MUSC Si1Ns24922   7.933   0.969   0.610
    1MUSC Si1Nt24923   8.026   1.139   0.077
    1MUSC Si1Nu24924   8.187   1.124   0.610
    1MUSC Si1Nv24925   8.018   1.139   3.620
    1MUSC Si1Nw24926   7.674   1.124   1.081
    1MUSC O049324927   7.788   1.580   0.236
    1MUSC O049424928   7.904   1.588   0.451
    1MUSC O049524929   8.256   1.580   3.461
    1MUSC O049624930   7.956   1.588   1.240
    1MUSC O049724931   8.043   1.400   3.453
    1MUSC O049824932   7.649   1.768   1.248
    1MUSC O049924933   8.001   1.400   0.245
    1MUSC O049A24934   8.212   1.768   0.442
    1MUSC O049B24935   7.903   1.649   3.672
    1MUSC O049C24936   7.789   1.520   1.029
    1MUSC O049D24937   8.141   1.649   0.025
    1MUSC O049E24938   8.072   1.520   0.662
    1MUSC O049F24939   7.881   1.686   0.006
    1MUSC O049G24940   7.810   1.483   0.681
    1MUSC O049H24941   8.162   1.686   3.692
    1MUSC O049I24942   8.050   1.483   1.009
    1MUSC O049J24943   7.782   1.442   0.006
    1MUSC O049K24944   7.910   1.726   0.681
    1MUSC O049L24945   8.262   1.442   3.691
    1MUSC O049M24946   7.950   1.726   1.010
    1MUSC O049N24947   8.043   1.758   3.461
    1MUSC O049O24948   7.649   1.410   1.240
    1MUSC O049P24949   8.001   1.758   0.236
    1MUSC O049Q24950   8.212   1.410   0.451
    1MUSC O049R24951   8.048   1.127   0.236
    1MUSC O049S24952   8.165   1.136   0.451
    1MUSC O049T24953   7.996   1.127   3.461
    1MUSC O049U24954   7.696   1.136   1.240
    1MUSC O049V24955   8.303   0.948   3.453
    1MUSC O049W24956   7.909   1.316   1.248
    1MUSC O049X24957   7.740   0.948   0.245
    1MUSC O049Y24958   7.952   1.316   0.442
    1MUSC O049Z24959   8.163   1.196   3.672
    1MUSC O049a24960   8.049   1.067   1.029
    1MUSC O049b24961   7.881   1.196   0.025
    1MUSC O049c24962   7.811   1.067   0.662
    1MUSC O049d24963   8.142   1.233   0.006
    1MUSC O049e24964   8.071   1.030   0.681
    1MUSC O049f24965   7.902   1.233   3.692
    1MUSC O049g24966   7.790   1.030   1.009
    1MUSC O049h24967   8.042   0.990   0.006
    1MUSC O049i24968   8.171   1.274   0.681
    1MUSC O049j24969   8.002   0.990   3.691
    1MUSC O049k24970   7.690   1.274   1.010
    1MUSC O049l24971   8.303   1.306   3.461
    1MUSC O049m24972   7.909   0.958   1.240
    1MUSC O049n24973   7.740   1.306   0.236
    1MUSC O049o24974   7.952   0.958   0.451
    1MUSC K00G724975   7.839   1.448   1.849
    1MUSC K00G824976   7.487   1.720   2.852
    1MUSC K00G924977   7.579   0.996   1.849
    1MUSC K00GA24978   7.747   1.268   2.852
    1MUSC Al0gz24979   7.666   1.432   2.350
    1MUSC Al0h024980   7.660   1.737   2.351
    1MUSC Al0h124981   8.011   1.432   1.348
    1MUSC Al0h224982   7.835   1.737   3.353
    1MUSC Al0h324983   7.926   0.979   2.350
    1MUSC Al0h424984   7.920   1.284   2.351
    1MUSC Al0h524985   7.751   0.979   1.348
    1MUSC Al0h624986   7.575   1.284   3.353
    1MUSC Si1Nx24987   7.842   1.747   1.614
    1MUSC Si1Ny24988   7.484   1.422   3.087
    1MUSC Si1Nz24989   7.836   1.747   2.084
    1MUSC Si1O024990   8.011   1.422   2.617
    1MUSC Si1O124991   7.582   1.591   2.084
    1MUSC Si1O224992   7.743   1.577   2.617
    1MUSC Si1O324993   8.095   1.591   1.613
    1MUSC Si1O424994   7.751   1.577   3.088
    1MUSC Si1O524995   8.102   1.294   1.614
    1MUSC Si1O624996   7.744   0.969   3.087
    1MUSC Si1O724997   7.576   1.294   2.084
    1MUSC Si1O824998   7.750   0.969   2.617
    1MUSC Si1O924999   7.843   1.139   2.084
    1MUSC Si1OA25000   8.004   1.124   2.617
    1MUSC Si1OB25001   7.835   1.139   1.613
    1MUSC Si1OC25002   7.491   1.124   3.088
    1MUSC O049p25003   7.605   1.580   2.243
    1MUSC O049q25004   7.721   1.588   2.458
    1MUSC O049r25005   8.073   1.580   1.454
    1MUSC O049s25006   7.773   1.588   3.247
    1MUSC O049t25007   7.860   1.400   1.446
    1MUSC O049u25008   7.466   1.768   3.255
    1MUSC O049v25009   7.818   1.400   2.252
    1MUSC O049w25010   8.029   1.768   2.449
    1MUSC O049x25011   7.720   1.649   1.665
    1MUSC O049y25012   7.606   1.520   3.036
    1MUSC O049z25013   7.958   1.649   2.032
    1MUSC O04A025014   7.889   1.520   2.669
    1MUSC O04A125015   7.698   1.686   2.013
    1MUSC O04A225016   7.627   1.483   2.688
    1MUSC O04A325017   7.979   1.686   1.685
    1MUSC O04A425018   7.867   1.483   3.016
    1MUSC O04A525019   7.599   1.442   2.013
    1MUSC O04A625020   7.727   1.726   2.688
    1MUSC O04A725021   8.079   1.442   1.684
    1MUSC O04A825022   7.767   1.726   3.017
    1MUSC O04A925023   7.860   1.758   1.454
    1MUSC O04AA25024   7.466   1.410   3.247
    1MUSC O04AB25025   7.818   1.758   2.243
    1MUSC O04AC25026   8.029   1.410   2.458
    1MUSC O04AD25027   7.865   1.127   2.243
    1MUSC O04AE25028   7.982   1.136   2.458
    1MUSC O04AF25029   7.813   1.127   1.454
    1MUSC O04AG25030   7.513   1.136   3.247
    1MUSC O04AH25031   8.120   0.948   1.446
    1MUSC O04AI25032   7.726   1.316   3.255
    1MUSC O04AJ25033   7.557   0.948   2.252
    1MUSC O04AK25034   7.769   1.316   2.449
    1MUSC O04AL25035   7.980   1.196   1.665
    1MUSC O04AM25036   7.866   1.067   3.036
    1MUSC O04AN25037   7.698   1.196   2.032
    1MUSC O04AO25038   7.628   1.067   2.669
    1MUSC O04AP25039   7.959   1.233   2.013
    1MUSC O04AQ25040   7.888   1.030   2.688
    1MUSC O04AR25041   7.719   1.233   1.685
    1MUSC O04AS25042   7.607   1.030   3.016
    1MUSC O04AT25043   7.859   0.990   2.013
    1MUSC O04AU25044   7.988   1.274   2.688
    1MUSC O04AV25045   7.819   0.990   1.684
    1MUSC O04AW25046   7.507   1.274   3.017
    1MUSC O04AX25047   8.120   1.306   1.454
    1MUSC O04AY25048   7.726   0.958   3.247
    1MUSC O04AZ25049   7.557   1.306   2.243
    1MUSC O04Aa25050   7.769   0.958   2.458
    1MUSC K00GB25051   7.670   2.626   0.845
    1MUSC K00GC25052   7.930   2.173   0.845
    1MUSC Al0h725053   7.849   2.337   0.343
    1MUSC Al0h825054   7.843   2.642   0.344
    1MUSC Al0h925055   8.194   2.337   3.355
    1MUSC Al0hA25056   8.018   2.642   1.346
    1MUSC Al0hB25057   8.109   1.884   0.343
    1MUSC Al0hC25058   8.103   2.189   0.344
    1MUSC Al0hD25059   7.934   1.884   3.355
    1MUSC Al0hE25060   7.758   2.189   1.346
    1MUSC Si1OD25061   8.025   2.652   3.621
    1MUSC Si1OE25062   7.667   2.327   1.080
    1MUSC Si1OF25063   8.019   2.652   0.077
    1MUSC Si1OG25064   8.194   2.327   0.610
    1MUSC Si1OH25065   7.765   2.497   0.077
    1MUSC Si1OI25066   7.926   2.482   0.610
    1MUSC Si1OJ25067   8.278   2.497   3.620
    1MUSC Si1OK25068   7.934   2.482   1.081
    1MUSC Si1OL25069   8.285   2.199   3.621
    1MUSC Si1OM25070   7.927   1.874   1.080
    1MUSC Si1ON25071   7.759   2.199   0.077
    1MUSC Si1OO25072   7.933   1.874   0.610
    1MUSC Si1OP25073   8.026   2.044   0.077
    1MUSC Si1OQ25074   8.187   2.030   0.610
    1MUSC Si1OR25075   8.018   2.044   3.620
    1MUSC Si1OS25076   7.674   2.030   1.081
    1MUSC O04Ab25077   7.788   2.485   0.236
    1MUSC O04Ac25078   7.904   2.494   0.451
    1MUSC O04Ad25079   8.256   2.485   3.461
    1MUSC O04Ae25080   7.956   2.494   1.240
    1MUSC O04Af25081   8.043   2.305   3.453
    1MUSC O04Ag25082   7.649   2.674   1.248
    1MUSC O04Ah25083   8.001   2.305   0.245
    1MUSC O04Ai25084   8.212   2.674   0.442
    1MUSC O04Aj25085   7.903   2.554   3.672
    1MUSC O04Ak25086   7.789   2.425   1.029
    1MUSC O04Al25087   8.141   2.554   0.025
    1MUSC O04Am25088   8.072   2.425   0.662
    1MUSC O04An25089   7.881   2.591   0.006
    1MUSC O04Ao25090   7.810   2.388   0.681
    1MUSC O04Ap25091   8.162   2.591   3.692
    1MUSC O04Aq25092   8.050   2.388   1.009
    1MUSC O04Ar25093   7.782   2.347   0.006
    1MUSC O04As25094   7.910   2.632   0.681
    1MUSC O04At25095   8.262   2.347   3.691
    1MUSC O04Au25096   7.950   2.632   1.010
    1MUSC O04Av25097   8.043   2.663   3.461
    1MUSC O04Aw25098   7.649   2.316   1.240
    1MUSC O04Ax25099   8.001   2.663   0.236
    1MUSC O04Ay25100   8.212   2.316   0.451
    1MUSC O04Az25101   8.048   2.033   0.236
    1MUSC O04B025102   8.165   2.041   0.451
    1MUSC O04B125103   7.996   2.033   3.461
    1MUSC O04B225104   7.696   2.041   1.240
    1MUSC O04B325105   8.303   1.853   3.453
    1MUSC O04B425106   7.909   2.221   1.248
    1MUSC O04B525107   7.740   1.853   0.245
    1MUSC O04B625108   7.952   2.221   0.442
    1MUSC O04B725109   8.163   2.101   3.672
    1MUSC O04B825110   8.049   1.972   1.029
    1MUSC O04B925111   7.881   2.101   0.025
    1MUSC O04BA25112   7.811   1.972   0.662
    1MUSC O04BB25113   8.142   2.139   0.006
    1MUSC O04BC25114   8.071   1.935   0.681
    1MUSC O04BD25115   7.902   2.139   3.692
    1MUSC O04BE25116   7.790   1.935   1.009
    1MUSC O04BF25117   8.042   1.895   0.006
    1MUSC O04BG25118   8.171   2.179   0.681
    1MUSC O04BH25119   8.002   1.895   3.691
    1MUSC O04BI25120   7.690   2.179   1.010
    1MUSC O04BJ25121   8.303   2.211   3.461
    1MUSC O04BK25122   7.909   1.863   1.240
    1MUSC O04BL25123   7.740   2.211   0.236
    1MUSC O04BM25124   7.952   1.863   0.451
    1MUSC K00GD25125   7.839   2.353   1.849
    1MUSC K00GE25126   7.487   2.626   2.852
    1MUSC K00GF25127   7.579   1.901   1.849
    1MUSC K00GG25128   7.747   2.173   2.852
    1MUSC Al0hF25129   7.666   2.337   2.350
    1MUSC Al0hG25130   7.660   2.642   2.351
    1MUSC Al0hH25131   8.011   2.337   1.348
    1MUSC Al0hI25132   7.835   2.642   3.353
    1MUSC Al0hJ25133   7.926   1.884   2.350
    1MUSC Al0hK25134   7.920   2.189   2.351
    1MUSC Al0hL25135   7.751   1.884   1.348
    1MUSC Al0hM25136   7.575   2.189   3.353
    1MUSC Si1OT25137   7.842   2.652   1.614
    1MUSC Si1OU25138   7.484   2.327   3.087
    1MUSC Si1OV25139   7.836   2.652   2.084
    1MUSC Si1OW25140   8.011   2.327   2.617
    1MUSC Si1OX25141   7.582   2.497   2.084
    1MUSC Si1OY25142   7.743   2.482   2.617
    1MUSC Si1OZ25143   8.095   2.497   1.613
    1MUSC Si1Oa25144   7.751   2.482   3.088
    1MUSC Si1Ob25145   8.102   2.199   1.614
    1MUSC Si1Oc25146   7.744   1.874   3.087
    1MUSC Si1Od25147   7.576   2.199   2.084
    1MUSC Si1Oe25148   7.750   1.874   2.617
    1MUSC Si1Of25149   7.843   2.044   2.084
    1MUSC Si1Og25150   8.004   2.030   2.617
    1MUSC Si1Oh25151   7.835   2.044   1.613
    1MUSC Si1Oi25152   7.491   2.030   3.088
    1MUSC O04BN25153   7.605   2.485   2.243
    1MUSC O04BO25154   7.721   2.494   2.458
    1MUSC O04BP25155   8.073   2.485   1.454
    1MUSC O04BQ25156   7.773   2.494   3.247
    1MUSC O04BR25157   7.860   2.305   1.446
    1MUSC O04BS25158   7.466   2.674   3.255
    1MUSC O04BT25159   7.818   2.305   2.252
    1MUSC O04BU25160   8.029   2.674   2.449
    1MUSC O04BV25161   7.720   2.554   1.665
    1MUSC O04BW25162   7.606   2.425   3.036
    1MUSC O04BX25163   7.958   2.554   2.032
    1MUSC O04BY25164   7.889   2.425   2.669
    1MUSC O04BZ25165   7.698   2.591   2.013
    1MUSC O04Ba25166   7.627   2.388   2.688
    1MUSC O04Bb25167   7.979   2.591   1.685
    1MUSC O04Bc25168   7.867   2.388   3.016
    1MUSC O04Bd25169   7.599   2.347   2.013
    1MUSC O04Be25170   7.727   2.632   2.688
    1MUSC O04Bf25171   8.079   2.347   1.684
    1MUSC O04Bg25172   7.767   2.632   3.017
    1MUSC O04Bh25173   7.860   2.663   1.454
    1MUSC O04Bi25174   7.466   2.316   3.247
    1MUSC O04Bj25175   7.818   2.663   2.243
    1MUSC O04Bk25176   8.029   2.316   2.458
    1MUSC O04Bl25177   7.865   2.033   2.243
    1MUSC O04Bm25178   7.982   2.041   2.458
    1MUSC O04Bn25179   7.813   2.033   1.454
    1MUSC O04Bo25180   7.513   2.041   3.247
    1MUSC O04Bp25181   8.120   1.853   1.446
    1MUSC O04Bq25182   7.726   2.221   3.255
    1MUSC O04Br25183   7.557   1.853   2.252
    1MUSC O04Bs25184   7.769   2.221   2.449
    1MUSC O04Bt25185   7.980   2.101   1.665
    1MUSC O04Bu25186   7.866   1.972   3.036
    1MUSC O04Bv25187   7.698   2.101   2.032
    1MUSC O04Bw25188   7.628   1.972   2.669
    1MUSC O04Bx25189   7.959   2.139   2.013
    1MUSC O04By25190   7.888   1.935   2.688
    1MUSC O04Bz25191   7.719   2.139   1.685
    1MUSC O04C025192   7.607   1.935   3.016
    1MUSC O04C125193   7.859   1.895   2.013
    1MUSC O04C225194   7.988   2.179   2.688
    1MUSC O04C325195   7.819   1.895   1.684
    1MUSC O04C425196   7.507   2.179   3.017
    1MUSC O04C525197   8.120   2.211   1.454
    1MUSC O04C625198   7.726   1.863   3.247
    1MUSC O04C725199   7.557   2.211   2.243
    1MUSC O04C825200   7.769   1.863   2.458
    1MUSC K00GH25201   7.670   3.531   0.845
    1MUSC K00GI25202   7.930   3.078   0.845
    1MUSC Al0hN25203   7.849   3.242   0.343
    1MUSC Al0hO25204   7.843   3.547   0.344
    1MUSC Al0hP25205   8.194   3.242   3.355
    1MUSC Al0hQ25206   8.018   3.547   1.346
    1MUSC Al0hR25207   8.109   2.790   0.343
    1MUSC Al0hS25208   8.103   3.095   0.344
    1MUSC Al0hT25209   7.934   2.790   3.355
    1MUSC Al0hU25210   7.758   3.095   1.346
    1MUSC Si1Oj25211   8.025   3.557   3.621
    1MUSC Si1Ok25212   7.667   3.232   1.080
    1MUSC Si1Ol25213   8.019   3.557   0.077
    1MUSC Si1Om25214   8.194   3.232   0.610
    1MUSC Si1On25215   7.765   3.402   0.077
    1MUSC Si1Oo25216   7.926   3.388   0.610
    1MUSC Si1Op25217   8.278   3.402   3.620
    1MUSC Si1Oq25218   7.934   3.388   1.081
    1MUSC Si1Or25219   8.285   3.105   3.621
    1MUSC Si1Os25220   7.927   2.780   1.080
    1MUSC Si1Ot25221   7.759   3.105   0.077
    1MUSC Si1Ou25222   7.933   2.780   0.610
    1MUSC Si1Ov25223   8.026   2.949   0.077
    1MUSC Si1Ow25224   8.187   2.935   0.610
    1MUSC Si1Ox25225   8.018   2.949   3.620
    1MUSC Si1Oy25226   7.674   2.935   1.081
    1MUSC O04C925227   7.788   3.391   0.236
    1MUSC O04CA25228   7.904   3.399   0.451
    1MUSC O04CB25229   8.256   3.391   3.461
    1MUSC O04CC25230   7.956   3.399   1.240
    1MUSC O04CD25231   8.043   3.211   3.453
    1MUSC O04CE25232   7.649   3.579   1.248
    1MUSC O04CF25233   8.001   3.211   0.245
    1MUSC O04CG25234   8.212   3.579   0.442
    1MUSC O04CH25235   7.903   3.459   3.672
    1MUSC O04CI25236   7.789   3.330   1.029
    1MUSC O04CJ25237   8.141   3.459   0.025
    1MUSC O04CK25238   8.072   3.330   0.662
    1MUSC O04CL25239   7.881   3.496   0.006
    1MUSC O04CM25240   7.810   3.293   0.681
    1MUSC O04CN25241   8.162   3.496   3.692
    1MUSC O04CO25242   8.050   3.293   1.009
    1MUSC O04CP25243   7.782   3.253   0.006
    1MUSC O04CQ25244   7.910   3.537   0.681
    1MUSC O04CR25245   8.262   3.253   3.691
    1MUSC O04CS25246   7.950   3.537   1.010
    1MUSC O04CT25247   8.043   3.569   3.461
    1MUSC O04CU25248   7.649   3.221   1.240
    1MUSC O04CV25249   8.001   3.569   0.236
    1MUSC O04CW25250   8.212   3.221   0.451
    1MUSC O04CX25251   8.048   2.938   0.236
    1MUSC O04CY25252   8.165   2.946   0.451
    1MUSC O04CZ25253   7.996   2.938   3.461
    1MUSC O04Ca25254   7.696   2.946   1.240
    1MUSC O04Cb25255   8.303   2.758   3.453
    1MUSC O04Cc25256   7.909   3.126   1.248
    1MUSC O04Cd25257   7.740   2.758   0.245
    1MUSC O04Ce25258   7.952   3.126   0.442
    1MUSC O04Cf25259   8.163   3.007   3.672
    1MUSC O04Cg25260   8.049   2.877   1.029
    1MUSC O04Ch25261   7.881   3.007   0.025
    1MUSC O04Ci25262   7.811   2.877   0.662
    1MUSC O04Cj25263   8.142   3.044   0.006
    1MUSC O04Ck25264   8.071   2.840   0.681
    1MUSC O04Cl25265   7.902   3.044   3.692
    1MUSC O04Cm25266   7.790   2.840   1.009
    1MUSC O04Cn25267   8.042   2.800   0.006
    1MUSC O04Co25268   8.171   3.084   0.681
    1MUSC O04Cp25269   8.002   2.800   3.691
    1MUSC O04Cq25270   7.690   3.084   1.010
    1MUSC O04Cr25271   8.303   3.116   3.461
    1MUSC O04Cs25272   7.909   2.768   1.240
    1MUSC O04Ct25273   7.740   3.116   0.236
    1MUSC O04Cu25274   7.952   2.768   0.451
    1MUSC K00GJ25275   7.839   3.259   1.849
    1MUSC K00GK25276   7.487   3.531   2.852
    1MUSC K00GL25277   7.579   2.806   1.849
    1MUSC K00GM25278   7.747   3.078   2.852
    1MUSC Al0hV25279   7.666   3.242   2.350
    1MUSC Al0hW25280   7.660   3.547   2.351
    1MUSC Al0hX25281   8.011   3.242   1.348
    1MUSC Al0hY25282   7.835   3.547   3.353
    1MUSC Al0hZ25283   7.926   2.790   2.350
    1MUSC Al0ha25284   7.920   3.095   2.351
    1MUSC Al0hb25285   7.751   2.790   1.348
    1MUSC Al0hc25286   7.575   3.095   3.353
    1MUSC Si1Oz25287   7.842   3.557   1.614
    1MUSC Si1P025288   7.484   3.232   3.087
    1MUSC Si1P125289   7.836   3.557   2.084
    1MUSC Si1P225290   8.011   3.232   2.617
    1MUSC Si1P325291   7.582   3.402   2.084
    1MUSC Si1P425292   7.743   3.388   2.617
    1MUSC Si1P525293   8.095   3.402   1.613
    1MUSC Si1P625294   7.751   3.388   3.088
    1MUSC Si1P725295   8.102   3.105   1.614
    1MUSC Si1P825296   7.744   2.780   3.087
    1MUSC Si1P925297   7.576   3.105   2.084
    1MUSC Si1PA25298   7.750   2.780   2.617
    1MUSC Si1PB25299   7.843   2.949   2.084
    1MUSC Si1PC25300   8.004   2.935   2.617
    1MUSC Si1PD25301   7.835   2.949   1.613
    1MUSC Si1PE25302   7.491   2.935   3.088
    1MUSC O04Cv25303   7.605   3.391   2.243
    1MUSC O04Cw25304   7.721   3.399   2.458
    1MUSC O04Cx25305   8.073   3.391   1.454
    1MUSC O04Cy25306   7.773   3.399   3.247
    1MUSC O04Cz25307   7.860   3.211   1.446
    1MUSC O04D025308   7.466   3.579   3.255
    1MUSC O04D125309   7.818   3.211   2.252
    1MUSC O04D225310   8.029   3.579   2.449
    1MUSC O04D325311   7.720   3.459   1.665
    1MUSC O04D425312   7.606   3.330   3.036
    1MUSC O04D525313   7.958   3.459   2.032
    1MUSC O04D625314   7.889   3.330   2.669
    1MUSC O04D725315   7.698   3.496   2.013
    1MUSC O04D825316   7.627   3.293   2.688
    1MUSC O04D925317   7.979   3.496   1.685
    1MUSC O04DA25318   7.867   3.293   3.016
    1MUSC O04DB25319   7.599   3.253   2.013
    1MUSC O04DC25320   7.727   3.537   2.688
    1MUSC O04DD25321   8.079   3.253   1.684
    1MUSC O04DE25322   7.767   3.537   3.017
    1MUSC O04DF25323   7.860   3.569   1.454
    1MUSC O04DG25324   7.466   3.221   3.247
    1MUSC O04DH25325   7.818   3.569   2.243
    1MUSC O04DI25326   8.029   3.221   2.458
    1MUSC O04DJ25327   7.865   2.938   2.243
    1MUSC O04DK25328   7.982   2.946   2.458
    1MUSC O04DL25329   7.813   2.938   1.454
    1MUSC O04DM25330   7.513   2.946   3.247
    1MUSC O04DN25331   8.120   2.758   1.446
    1MUSC O04DO25332   7.726   3.126   3.255
    1MUSC O04DP25333   7.557   2.758   2.252
    1MUSC O04DQ25334   7.769   3.126   2.449
    1MUSC O04DR25335   7.980   3.007   1.665
    1MUSC O04DS25336   7.866   2.877   3.036
    1MUSC O04DT25337   7.698   3.007   2.032
    1MUSC O04DU25338   7.628   2.877   2.669
    1MUSC O04DV25339   7.959   3.044   2.013
    1MUSC O04DW25340   7.888   2.840   2.688
    1MUSC O04DX25341   7.719   3.044   1.685
    1MUSC O04DY25342   7.607   2.840   3.016
    1MUSC O04DZ25343   7.859   2.800   2.013
    1MUSC O04Da25344   7.988   3.084   2.688
    1MUSC O04Db25345   7.819   2.800   1.684
    1MUSC O04Dc25346   7.507   3.084   3.017
    1MUSC O04Dd25347   8.120   3.116   1.454
    1MUSC O04De25348   7.726   2.768   3.247
    1MUSC O04Df25349   7.557   3.116   2.243
    1MUSC O04Dg25350   7.769   2.768   2.458
    1MUSC K00GN25351   7.670   4.436   0.845
    1MUSC K00GO25352   7.930   3.983   0.845
    1MUSC Al0hd25353   7.849   4.147   0.343
    1MUSC Al0he25354   7.843   4.453   0.344
    1MUSC Al0hf25355   8.194   4.147   3.355
    1MUSC Al0hg25356   8.018   4.453   1.346
    1MUSC Al0hh25357   8.109   3.695   0.343
    1MUSC Al0hi25358   8.103   4.000   0.344
    1MUSC Al0hj25359   7.934   3.695   3.355
    1MUSC Al0hk25360   7.758   4.000   1.346
    1MUSC Si1PF25361   8.025   4.462   3.621
    1MUSC Si1PG25362   7.667   4.138   1.080
    1MUSC Si1PH25363   8.019   4.462   0.077
    1MUSC Si1PI25364   8.194   4.138   0.610
    1MUSC Si1PJ25365   7.765   4.307   0.077
    1MUSC Si1PK25366   7.926   4.293   0.610
    1MUSC Si1PL25367   8.278   4.307   3.620
    1MUSC Si1PM25368   7.934   4.293   1.081
    1MUSC Si1PN25369   8.285   4.010   3.621
    1MUSC Si1PO25370   7.927   3.685   1.080
    1MUSC Si1PP25371   7.759   4.010   0.077
    1MUSC Si1PQ25372   7.933   3.685   0.610
    1MUSC Si1PR25373   8.026   3.855   0.077
    1MUSC Si1PS25374   8.187   3.840   0.610
    1MUSC Si1PT25375   8.018   3.855   3.620
    1MUSC Si1PU25376   7.674   3.840   1.081
    1MUSC O04Dh25377   7.788   4.296   0.236
    1MUSC O04Di25378   7.904   4.304   0.451
    1MUSC O04Dj25379   8.256   4.296   3.461
    1MUSC O04Dk25380   7.956   4.304   1.240
    1MUSC O04Dl25381   8.043   4.116   3.453
    1MUSC O04Dm25382   7.649   4.484   1.248
    1MUSC O04Dn25383   8.001   4.116   0.245
    1MUSC O04Do25384   8.212   4.484   0.442
    1MUSC O04Dp25385   7.903   4.365   3.672
    1MUSC O04Dq25386   7.789   4.235   1.029
    1MUSC O04Dr25387   8.141   4.365   0.025
    1MUSC O04Ds25388   8.072   4.235   0.662
    1MUSC O04Dt25389   7.881   4.402   0.006
    1MUSC O04Du25390   7.810   4.198   0.681
    1MUSC O04Dv25391   8.162   4.402   3.692
    1MUSC O04Dw25392   8.050   4.198   1.009
    1MUSC O04Dx25393   7.782   4.158   0.006
    1MUSC O04Dy25394   7.910   4.442   0.681
    1MUSC O04Dz25395   8.262   4.158   3.691
    1MUSC O04E025396   7.950   4.442   1.010
    1MUSC O04E125397   8.043   4.474   3.461
    1MUSC O04E225398   7.649   4.126   1.240
    1MUSC O04E325399   8.001   4.474   0.236
    1MUSC O04E425400   8.212   4.126   0.451
    1MUSC O04E525401   8.048   3.843   0.236
    1MUSC O04E625402   8.165   3.852   0.451
    1MUSC O04E725403   7.996   3.843   3.461
    1MUSC O04E825404   7.696   3.852   1.240
    1MUSC O04E925405   8.303   3.663   3.453
    1MUSC O04EA25406   7.909   4.031   1.248
    1MUSC O04EB25407   7.740   3.663   0.245
    1MUSC O04EC25408   7.952   4.031   0.442
    1MUSC O04ED25409   8.163   3.912   3.672
    1MUSC O04EE25410   8.049   3.783   1.029
    1MUSC O04EF25411   7.881   3.912   0.025
    1MUSC O04EG25412   7.811   3.783   0.662
    1MUSC O04EH25413   8.142   3.949   0.006
    1MUSC O04EI25414   8.071   3.746   0.681
    1MUSC O04EJ25415   7.902   3.949   3.692
    1MUSC O04EK25416   7.790   3.746   1.009
    1MUSC O04EL25417   8.042   3.705   0.006
    1MUSC O04EM25418   8.171   3.989   0.681
    1MUSC O04EN25419   8.002   3.705   3.691
    1MUSC O04EO25420   7.690   3.989   1.010
    1MUSC O04EP25421   8.303   4.021   3.461
    1MUSC O04EQ25422   7.909   3.673   1.240
    1MUSC O04ER25423   7.740   4.021   0.236
    1MUSC O04ES25424   7.952   3.673   0.451
    1MUSC K00GP25425   7.839   4.164   1.849
    1MUSC K00GQ25426   7.487   4.436   2.852
    1MUSC K00GR25427   7.579   3.711   1.849
    1MUSC K00GS25428   7.747   3.983   2.852
    1MUSC Al0hl25429   7.666   4.147   2.350
    1MUSC Al0hm25430   7.660   4.453   2.351
    1MUSC Al0hn25431   8.011   4.147   1.348
    1MUSC Al0ho25432   7.835   4.453   3.353
    1MUSC Al0hp25433   7.926   3.695   2.350
    1MUSC Al0hq25434   7.920   4.000   2.351
    1MUSC Al0hr25435   7.751   3.695   1.348
    1MUSC Al0hs25436   7.575   4.000   3.353
    1MUSC Si1PV25437   7.842   4.462   1.614
    1MUSC Si1PW25438   7.484   4.138   3.087
    1MUSC Si1PX25439   7.836   4.462   2.084
    1MUSC Si1PY25440   8.011   4.138   2.617
    1MUSC Si1PZ25441   7.582   4.307   2.084
    1MUSC Si1Pa25442   7.743   4.293   2.617
    1MUSC Si1Pb25443   8.095   4.307   1.613
    1MUSC Si1Pc25444   7.751   4.293   3.088
    1MUSC Si1Pd25445   8.102   4.010   1.614
    1MUSC Si1Pe25446   7.744   3.685   3.087
    1MUSC Si1Pf25447   7.576   4.010   2.084
    1MUSC Si1Pg25448   7.750   3.685   2.617
    1MUSC Si1Ph25449   7.843   3.855   2.084
    1MUSC Si1Pi25450   8.004   3.840   2.617
    1MUSC Si1Pj25451   7.835   3.855   1.613
    1MUSC Si1Pk25452   7.491   3.840   3.088
    1MUSC O04ET25453   7.605   4.296   2.243
    1MUSC O04EU25454   7.721   4.304   2.458
    1MUSC O04EV25455   8.073   4.296   1.454
    1MUSC O04EW25456   7.773   4.304   3.247
    1MUSC O04EX25457   7.860   4.116   1.446
    1MUSC O04EY25458   7.466   4.484   3.255
    1MUSC O04EZ25459   7.818   4.116   2.252
    1MUSC O04Ea25460   8.029   4.484   2.449
    1MUSC O04Eb25461   7.720   4.365   1.665
    1MUSC O04Ec25462   7.606   4.235   3.036
    1MUSC O04Ed25463   7.958   4.365   2.032
    1MUSC O04Ee25464   7.889   4.235   2.669
    1MUSC O04Ef25465   7.698   4.402   2.013
    1MUSC O04Eg25466   7.627   4.198   2.688
    1MUSC O04Eh25467   7.979   4.402   1.685
    1MUSC O04Ei25468   7.867   4.198   3.016
    1MUSC O04Ej25469   7.599   4.158   2.013
    1MUSC O04Ek25470   7.727   4.442   2.688
    1MUSC O04El25471   8.079   4.158   1.684
    1MUSC O04Em25472   7.767   4.442   3.017
    1MUSC O04En25473   7.860   4.474   1.454
    1MUSC O04Eo25474   7.466   4.126   3.247
    1MUSC O04Ep25475   7.818   4.474   2.243
    1MUSC O04Eq25476   8.029   4.126   2.458
    1MUSC O04Er25477   7.865   3.843   2.243
    1MUSC O04Es25478   7.982   3.852   2.458
    1MUSC O04Et25479   7.813   3.843   1.454
    1MUSC O04Eu25480   7.513   3.852   3.247
    1MUSC O04Ev25481   8.120   3.663   1.446
    1MUSC O04Ew25482   7.726   4.031   3.255
    1MUSC O04Ex25483   7.557   3.663   2.252
    1MUSC O04Ey25484   7.769   4.031   2.449
    1MUSC O04Ez25485   7.980   3.912   1.665
    1MUSC O04F025486   7.866   3.783   3.036
    1MUSC O04F125487   7.698   3.912   2.032
    1MUSC O04F225488   7.628   3.783   2.669
    1MUSC O04F325489   7.959   3.949   2.013
    1MUSC O04F425490   7.888   3.746   2.688
    1MUSC O04F525491   7.719   3.949   1.685
    1MUSC O04F625492   7.607   3.746   3.016
    1MUSC O04F725493   7.859   3.705   2.013
    1MUSC O04F825494   7.988   3.989   2.688
    1MUSC O04F925495   7.819   3.705   1.684
    1MUSC O04FA25496   7.507   3.989   3.017
    1MUSC O04FB25497   8.120   4.021   1.454
    1MUSC O04FC25498   7.726   3.673   3.247
    1MUSC O04FD25499   7.557   4.021   2.243
    1MUSC O04FE25500   7.769   3.673   2.458
    1MUSC K00GT25501   7.670   5.341   0.845
    1MUSC K00GU25502   7.930   4.889   0.845
    1MUSC Al0ht25503   7.849   5.053   0.343
    1MUSC Al0hu25504   7.843   5.358   0.344
    1MUSC Al0hv25505   8.194   5.053   3.355
    1MUSC Al0hw25506   8.018   5.358   1.346
    1MUSC Al0hx25507   8.109   4.600   0.343
    1MUSC Al0hy25508   8.103   4.905   0.344
    1MUSC Al0hz25509   7.934   4.600   3.355
    1MUSC Al0i025510   7.758   4.905   1.346
    1MUSC Si1Pl25511   8.025   5.368   3.621
    1MUSC Si1Pm25512   7.667   5.043   1.080
    1MUSC Si1Pn25513   8.019   5.368   0.077
    1MUSC Si1Po25514   8.194   5.043   0.610
    1MUSC Si1Pp25515   7.765   5.212   0.077
    1MUSC Si1Pq25516   7.926   5.198   0.610
    1MUSC Si1Pr25517   8.278   5.212   3.620
    1MUSC Si1Ps25518   7.934   5.198   1.081
    1MUSC Si1Pt25519   8.285   4.915   3.621
    1MUSC Si1Pu25520   7.927   4.590   1.080
    1MUSC Si1Pv25521   7.759   4.915   0.077
    1MUSC Si1Pw25522   7.933   4.590   0.610
    1MUSC Si1Px25523   8.026   4.760   0.077
    1MUSC Si1Py25524   8.187   4.746   0.610
    1MUSC Si1Pz25525   8.018   4.760   3.620
    1MUSC Si1Q025526   7.674   4.746   1.081
    1MUSC O04FF25527   7.788   5.201   0.236
    1MUSC O04FG25528   7.904   5.209   0.451
    1MUSC O04FH25529   8.256   5.201   3.461
    1MUSC O04FI25530   7.956   5.209   1.240
    1MUSC O04FJ25531   8.043   5.021   3.453
    1MUSC O04FK25532   7.649   5.389   1.248
    1MUSC O04FL25533   8.001   5.021   0.245
    1MUSC O04FM25534   8.212   5.389   0.442
    1MUSC O04FN25535   7.903   5.270   3.672
    1MUSC O04FO25536   7.789   5.141   1.029
    1MUSC O04FP25537   8.141   5.270   0.025
    1MUSC O04FQ25538   8.072   5.141   0.662
    1MUSC O04FR25539   7.881   5.307   0.006
    1MUSC O04FS25540   7.810   5.104   0.681
    1MUSC O04FT25541   8.162   5.307   3.692
    1MUSC O04FU25542   8.050   5.104   1.009
    1MUSC O04FV25543   7.782   5.063   0.006
    1MUSC O04FW25544   7.910   5.347   0.681
    1MUSC O04FX25545   8.262   5.063   3.691
    1MUSC O04FY25546   7.950   5.347   1.010
    1MUSC O04FZ25547   8.043   5.379   3.461
    1MUSC O04Fa25548   7.649   5.031   1.240
    1MUSC O04Fb25549   8.001   5.379   0.236
    1MUSC O04Fc25550   8.212   5.031   0.451
    1MUSC O04Fd25551   8.048   4.749   0.236
    1MUSC O04Fe25552   8.165   4.757   0.451
    1MUSC O04Ff25553   7.996   4.749   3.461
    1MUSC O04Fg25554   7.696   4.757   1.240
    1MUSC O04Fh25555   8.303   4.569   3.453
    1MUSC O04Fi25556   7.909   4.937   1.248
    1MUSC O04Fj25557   7.740   4.569   0.245
    1MUSC O04Fk25558   7.952   4.937   0.442
    1MUSC O04Fl25559   8.163   4.817   3.672
    1MUSC O04Fm25560   8.049   4.688   1.029
    1MUSC O04Fn25561   7.881   4.817   0.025
    1MUSC O04Fo25562   7.811   4.688   0.662
    1MUSC O04Fp25563   8.142   4.854   0.006
    1MUSC O04Fq25564   8.071   4.651   0.681
    1MUSC O04Fr25565   7.902   4.854   3.692
    1MUSC O04Fs25566   7.790   4.651   1.009
    1MUSC O04Ft25567   8.042   4.611   0.006
    1MUSC O04Fu25568   8.171   4.895   0.681
    1MUSC O04Fv25569   8.002   4.611   3.691
    1MUSC O04Fw25570   7.690   4.895   1.010
    1MUSC O04Fx25571   8.303   4.927   3.461
    1MUSC O04Fy25572   7.909   4.579   1.240
    1MUSC O04Fz25573   7.740   4.927   0.236
    1MUSC O04G025574   7.952   4.579   0.451
    1MUSC K00GV25575   7.839   5.069   1.849
    1MUSC K00GW25576   7.487   5.341   2.852
    1MUSC K00GX25577   7.579   4.617   1.849
    1MUSC K00GY25578   7.747   4.889   2.852
    1MUSC Al0i125579   7.666   5.053   2.350
    1MUSC Al0i225580   7.660   5.358   2.351
    1MUSC Al0i325581   8.011   5.053   1.348
    1MUSC Al0i425582   7.835   5.358   3.353
    1MUSC Al0i525583   7.926   4.600   2.350
    1MUSC Al0i625584   7.920   4.905   2.351
    1MUSC Al0i725585   7.751   4.600   1.348
    1MUSC Al0i825586   7.575   4.905   3.353
    1MUSC Si1Q125587   7.842   5.368   1.614
    1MUSC Si1Q225588   7.484   5.043   3.087
    1MUSC Si1Q325589   7.836   5.368   2.084
    1MUSC Si1Q425590   8.011   5.043   2.617
    1MUSC Si1Q525591   7.582   5.212   2.084
    1MUSC Si1Q625592   7.743   5.198   2.617
    1MUSC Si1Q725593   8.095   5.212   1.613
    1MUSC Si1Q825594   7.751   5.198   3.088
    1MUSC Si1Q925595   8.102   4.915   1.614
    1MUSC Si1QA25596   7.744   4.590   3.087
    1MUSC Si1QB25597   7.576   4.915   2.084
    1MUSC Si1QC25598   7.750   4.590   2.617
    1MUSC Si1QD25599   7.843   4.760   2.084
    1MUSC Si1QE25600   8.004   4.746   2.617
    1MUSC Si1QF25601   7.835   4.760   1.613
    1MUSC Si1QG25602   7.491   4.746   3.088
    1MUSC O04G125603   7.605   5.201   2.243
    1MUSC O04G225604   7.721   5.209   2.458
    1MUSC O04G325605   8.073   5.201   1.454
    1MUSC O04G425606   7.773   5.209   3.247
    1MUSC O04G525607   7.860   5.021   1.446
    1MUSC O04G625608   7.466   5.389   3.255
    1MUSC O04G725609   7.818   5.021   2.252
    1MUSC O04G825610   8.029   5.389   2.449
    1MUSC O04G925611   7.720   5.270   1.665
    1MUSC O04GA25612   7.606   5.141   3.036
    1MUSC O04GB25613   7.958   5.270   2.032
    1MUSC O04GC25614   7.889   5.141   2.669
    1MUSC O04GD25615   7.698   5.307   2.013
    1MUSC O04GE25616   7.627   5.104   2.688
    1MUSC O04GF25617   7.979   5.307   1.685
    1MUSC O04GG25618   7.867   5.104   3.016
    1MUSC O04GH25619   7.599   5.063   2.013
    1MUSC O04GI25620   7.727   5.347   2.688
    1MUSC O04GJ25621   8.079   5.063   1.684
    1MUSC O04GK25622   7.767   5.347   3.017
    1MUSC O04GL25623   7.860   5.379   1.454
    1MUSC O04GM25624   7.466   5.031   3.247
    1MUSC O04GN25625   7.818   5.379   2.243
    1MUSC O04GO25626   8.029   5.031   2.458
    1MUSC O04GP25627   7.865   4.749   2.243
    1MUSC O04GQ25628   7.982   4.757   2.458
    1MUSC O04GR25629   7.813   4.749   1.454
    1MUSC O04GS25630   7.513   4.757   3.247
    1MUSC O04GT25631   8.120   4.569   1.446
    1MUSC O04GU25632   7.726   4.937   3.255
    1MUSC O04GV25633   7.557   4.569   2.252
    1MUSC O04GW25634   7.769   4.937   2.449
    1MUSC O04GX25635   7.980   4.817   1.665
    1MUSC O04GY25636   7.866   4.688   3.036
    1MUSC O04GZ25637   7.698   4.817   2.032
    1MUSC O04Ga25638   7.628   4.688   2.669
    1MUSC O04Gb25639   7.959   4.854   2.013
    1MUSC O04Gc25640   7.888   4.651   2.688
    1MUSC O04Gd25641   7.719   4.854   1.685
    1MUSC O04Ge25642   7.607   4.651   3.016
    1MUSC O04Gf25643   7.859   4.611   2.013
    1MUSC O04Gg25644   7.988   4.895   2.688
    1MUSC O04Gh25645   7.819   4.611   1.684
    1MUSC O04Gi25646   7.507   4.895   3.017
    1MUSC O04Gj25647   8.120   4.927   1.454
    1MUSC O04Gk25648   7.726   4.579   3.247
    1MUSC O04Gl25649   7.557   4.927   2.243
    1MUSC O04Gm25650   7.769   4.579   2.458
    1MUSC K00GZ25651   7.670   6.247   0.845
    1MUSC K00Ga25652   7.930   5.794   0.845
    1MUSC Al0i925653   7.849   5.958   0.343
    1MUSC Al0iA25654   7.843   6.263   0.344
    1MUSC Al0iB25655   8.194   5.958   3.355
    1MUSC Al0iC25656   8.018   6.263   1.346
    1MUSC Al0iD25657   8.109   5.505   0.343
    1MUSC Al0iE25658   8.103   5.810   0.344
    1MUSC Al0iF25659   7.934   5.505   3.355
    1MUSC Al0iG25660   7.758   5.810   1.346
    1MUSC Si1QH25661   8.025   6.273   3.621
    1MUSC Si1QI25662   7.667   5.948   1.080
    1MUSC Si1QJ25663   8.019   6.273   0.077
    1MUSC Si1QK25664   8.194   5.948   0.610
    1MUSC Si1QL25665   7.765   6.118   0.077
    1MUSC Si1QM25666   7.926   6.103   0.610
    1MUSC Si1QN25667   8.278   6.118   3.620
    1MUSC Si1QO25668   7.934   6.103   1.081
    1MUSC Si1QP25669   8.285   5.820   3.621
    1MUSC Si1QQ25670   7.927   5.495   1.080
    1MUSC Si1QR25671   7.759   5.820   0.077
    1MUSC Si1QS25672   7.933   5.495   0.610
    1MUSC Si1QT25673   8.026   5.665   0.077
    1MUSC Si1QU25674   8.187   5.651   0.610
    1MUSC Si1QV25675   8.018   5.665   3.620
    1MUSC Si1QW25676   7.674   5.651   1.081
    1MUSC O04Gn25677   7.788   6.106   0.236
    1MUSC O04Go25678   7.904   6.115   0.451
    1MUSC O04Gp25679   8.256   6.106   3.461
    1MUSC O04Gq25680   7.956   6.115   1.240
    1MUSC O04Gr25681   8.043   5.927   3.453
    1MUSC O04Gs25682   7.649   6.295   1.248
    1MUSC O04Gt25683   8.001   5.927   0.245
    1MUSC O04Gu25684   8.212   6.295   0.442
    1MUSC O04Gv25685   7.903   6.175   3.672
    1MUSC O04Gw25686   7.789   6.046   1.029
    1MUSC O04Gx25687   8.141   6.175   0.025
    1MUSC O04Gy25688   8.072   6.046   0.662
    1MUSC O04Gz25689   7.881   6.212   0.006
    1MUSC O04H025690   7.810   6.009   0.681
    1MUSC O04H125691   8.162   6.212   3.692
    1MUSC O04H225692   8.050   6.009   1.009
    1MUSC O04H325693   7.782   5.969   0.006
    1MUSC O04H425694   7.910   6.253   0.681
    1MUSC O04H525695   8.262   5.969   3.691
    1MUSC O04H625696   7.950   6.253   1.010
    1MUSC O04H725697   8.043   6.285   3.461
    1MUSC O04H825698   7.649   5.937   1.240
    1MUSC O04H925699   8.001   6.285   0.236
    1MUSC O04HA25700   8.212   5.937   0.451
    1MUSC O04HB25701   8.048   5.654   0.236
    1MUSC O04HC25702   8.165   5.662   0.451
    1MUSC O04HD25703   7.996   5.654   3.461
    1MUSC O04HE25704   7.696   5.662   1.240
    1MUSC O04HF25705   8.303   5.474   3.453
    1MUSC O04HG25706   7.909   5.842   1.248
    1MUSC O04HH25707   7.740   5.474   0.245
    1MUSC O04HI25708   7.952   5.842   0.442
    1MUSC O04HJ25709   8.163   5.723   3.672
    1MUSC O04HK25710   8.049   5.593   1.029
    1MUSC O04HL25711   7.881   5.723   0.025
    1MUSC O04HM25712   7.811   5.593   0.662
    1MUSC O04HN25713   8.142   5.760   0.006
    1MUSC O04HO25714   8.071   5.556   0.681
    1MUSC O04HP25715   7.902   5.760   3.692
    1MUSC O04HQ25716   7.790   5.556   1.009
    1MUSC O04HR25717   8.042   5.516   0.006
    1MUSC O04HS25718   8.171   5.800   0.681
    1MUSC O04HT25719   8.002   5.516   3.691
    1MUSC O04HU25720   7.690   5.800   1.010
    1MUSC O04HV25721   8.303   5.832   3.461
    1MUSC O04HW25722   7.909   5.484   1.240
    1MUSC O04HX25723   7.740   5.832   0.236
    1MUSC O04HY25724   7.952   5.484   0.451
    1MUSC K00Gb25725   7.839   5.975   1.849
    1MUSC K00Gc25726   7.487   6.247   2.852
    1MUSC K00Gd25727   7.579   5.522   1.849
    1MUSC K00Ge25728   7.747   5.794   2.852
    1MUSC Al0iH25729   7.666   5.958   2.350
    1MUSC Al0iI25730   7.660   6.263   2.351
    1MUSC Al0iJ25731   8.011   5.958   1.348
    1MUSC Al0iK25732   7.835   6.263   3.353
    1MUSC Al0iL25733   7.926   5.505   2.350
    1MUSC Al0iM25734   7.920   5.810   2.351
    1MUSC Al0iN25735   7.751   5.505   1.348
    1MUSC Al0iO25736   7.575   5.810   3.353
    1MUSC Si1QX25737   7.842   6.273   1.614
    1MUSC Si1QY25738   7.484   5.948   3.087
    1MUSC Si1QZ25739   7.836   6.273   2.084
    1MUSC Si1Qa25740   8.011   5.948   2.617
    1MUSC Si1Qb25741   7.582   6.118   2.084
    1MUSC Si1Qc25742   7.743   6.103   2.617
    1MUSC Si1Qd25743   8.095   6.118   1.613
    1MUSC Si1Qe25744   7.751   6.103   3.088
    1MUSC Si1Qf25745   8.102   5.820   1.614
    1MUSC Si1Qg25746   7.744   5.495   3.087
    1MUSC Si1Qh25747   7.576   5.820   2.084
    1MUSC Si1Qi25748   7.750   5.495   2.617
    1MUSC Si1Qj25749   7.843   5.665   2.084
    1MUSC Si1Qk25750   8.004   5.651   2.617
    1MUSC Si1Ql25751   7.835   5.665   1.613
    1MUSC Si1Qm25752   7.491   5.651   3.088
    1MUSC O04HZ25753   7.605   6.106   2.243
    1MUSC O04Ha25754   7.721   6.115   2.458
    1MUSC O04Hb25755   8.073   6.106   1.454
    1MUSC O04Hc25756   7.773   6.115   3.247
    1MUSC O04Hd25757   7.860   5.927   1.446
    1MUSC O04He25758   7.466   6.295   3.255
    1MUSC O04Hf25759   7.818   5.927   2.252
    1MUSC O04Hg25760   8.029   6.295   2.449
    1MUSC O04Hh25761   7.720   6.175   1.665
    1MUSC O04Hi25762   7.606   6.046   3.036
    1MUSC O04Hj25763   7.958   6.175   2.032
    1MUSC O04Hk25764   7.889   6.046   2.669
    1MUSC O04Hl25765   7.698   6.212   2.013
    1MUSC O04Hm25766   7.627   6.009   2.688
    1MUSC O04Hn25767   7.979   6.212   1.685
    1MUSC O04Ho25768   7.867   6.009   3.016
    1MUSC O04Hp25769   7.599   5.969   2.013
    1MUSC O04Hq25770   7.727   6.253   2.688
    1MUSC O04Hr25771   8.079   5.969   1.684
    1MUSC O04Hs25772   7.767   6.253   3.017
    1MUSC O04Ht25773   7.860   6.285   1.454
    1MUSC O04Hu25774   7.466   5.937   3.247
    1MUSC O04Hv25775   7.818   6.285   2.243
    1MUSC O04Hw25776   8.029   5.937   2.458
    1MUSC O04Hx25777   7.865   5.654   2.243
    1MUSC O04Hy25778   7.982   5.662   2.458
    1MUSC O04Hz25779   7.813   5.654   1.454
    1MUSC O04I025780   7.513   5.662   3.247
    1MUSC O04I125781   8.120   5.474   1.446
    1MUSC O04I225782   7.726   5.842   3.255
    1MUSC O04I325783   7.557   5.474   2.252
    1MUSC O04I425784   7.769   5.842   2.449
    1MUSC O04I525785   7.980   5.723   1.665
    1MUSC O04I625786   7.866   5.593   3.036
    1MUSC O04I725787   7.698   5.723   2.032
    1MUSC O04I825788   7.628   5.593   2.669
    1MUSC O04I925789   7.959   5.760   2.013
    1MUSC O04IA25790   7.888   5.556   2.688
    1MUSC O04IB25791   7.719   5.760   1.685
    1MUSC O04IC25792   7.607   5.556   3.016
    1MUSC O04ID25793   7.859   5.516   2.013
    1MUSC O04IE25794   7.988   5.800   2.688
    1MUSC O04IF25795   7.819   5.516   1.684
    1MUSC O04IG25796   7.507   5.800   3.017
    1MUSC O04IH25797   8.120   5.832   1.454
    1MUSC O04II25798   7.726   5.484   3.247
    1MUSC O04IJ25799   7.557   5.832   2.243
    1MUSC O04IK25800   7.769   5.484   2.458
    1MUSC K00Gf25801   7.670   7.152   0.845
    1MUSC K00Gg25802   7.930   6.699   0.845
    1MUSC Al0iP25803   7.849   6.863   0.343
    1MUSC Al0iQ25804   7.843   7.168   0.344
    1MUSC Al0iR25805   8.194   6.863   3.355
    1MUSC Al0iS25806   8.018   7.168   1.346
    1MUSC Al0iT25807   8.109   6.411   0.343
    1MUSC Al0iU25808   8.103   6.716   0.344
    1MUSC Al0iV25809   7.934   6.411   3.355
    1MUSC Al0iW25810   7.758   6.716   1.346
    1MUSC Si1Qn25811   8.025   7.178   3.621
    1MUSC Si1Qo25812   7.667   6.853   1.080
    1MUSC Si1Qp25813   8.019   7.178   0.077
    1MUSC Si1Qq25814   8.194   6.853   0.610
    1MUSC Si1Qr25815   7.765   7.023   0.077
    1MUSC Si1Qs25816   7.926   7.009   0.610
    1MUSC Si1Qt25817   8.278   7.023   3.620
    1MUSC Si1Qu25818   7.934   7.009   1.081
    1MUSC Si1Qv25819   8.285   6.726   3.621
    1MUSC Si1Qw25820   7.927   6.401   1.080
    1MUSC Si1Qx25821   7.759   6.726   0.077
    1MUSC Si1Qy25822   7.933   6.401   0.610
    1MUSC Si1Qz25823   8.026   6.570   0.077
    1MUSC Si1R025824   8.187   6.556   0.610
    1MUSC Si1R125825   8.018   6.570   3.620
    1MUSC Si1R225826   7.674   6.556   1.081
    1MUSC O04IL25827   7.788   7.012   0.236
    1MUSC O04IM25828   7.904   7.020   0.451
    1MUSC O04IN25829   8.256   7.012   3.461
    1MUSC O04IO25830   7.956   7.020   1.240
    1MUSC O04IP25831   8.043   6.832   3.453
    1MUSC O04IQ25832   7.649   7.200   1.248
    1MUSC O04IR25833   8.001   6.832   0.245
    1MUSC O04IS25834   8.212   7.200   0.442
    1MUSC O04IT25835   7.903   7.080   3.672
    1MUSC O04IU25836   7.789   6.951   1.029
    1MUSC O04IV25837   8.141   7.080   0.025
    1MUSC O04IW25838   8.072   6.951   0.662
    1MUSC O04IX25839   7.881   7.117   0.006
    1MUSC O04IY25840   7.810   6.914   0.681
    1MUSC O04IZ25841   8.162   7.117   3.692
    1MUSC O04Ia25842   8.050   6.914   1.009
    1MUSC O04Ib25843   7.782   6.874   0.006
    1MUSC O04Ic25844   7.910   7.158   0.681
    1MUSC O04Id25845   8.262   6.874   3.691
    1MUSC O04Ie25846   7.950   7.158   1.010
    1MUSC O04If25847   8.043   7.190   3.461
    1MUSC O04Ig25848   7.649   6.842   1.240
    1MUSC O04Ih25849   8.001   7.190   0.236
    1MUSC O04Ii25850   8.212   6.842   0.451
    1MUSC O04Ij25851   8.048   6.559   0.236
    1MUSC O04Ik25852   8.165   6.567   0.451
    1MUSC O04Il25853   7.996   6.559   3.461
    1MUSC O04Im25854   7.696   6.567   1.240
    1MUSC O04In25855   8.303   6.379   3.453
    1MUSC O04Io25856   7.909   6.747   1.248
    1MUSC O04Ip25857   7.740   6.379   0.245
    1MUSC O04Iq25858   7.952   6.747   0.442
    1MUSC O04Ir25859   8.163   6.628   3.672
    1MUSC O04Is25860   8.049   6.499   1.029
    1MUSC O04It25861   7.881   6.628   0.025
    1MUSC O04Iu25862   7.811   6.499   0.662
    1MUSC O04Iv25863   8.142   6.665   0.006
    1MUSC O04Iw25864   8.071   6.462   0.681
    1MUSC O04Ix25865   7.902   6.665   3.692
    1MUSC O04Iy25866   7.790   6.462   1.009
    1MUSC O04Iz25867   8.042   6.421   0.006
    1MUSC O04J025868   8.171   6.705   0.681
    1MUSC O04J125869   8.002   6.421   3.691
    1MUSC O04J225870   7.690   6.705   1.010
    1MUSC O04J325871   8.303   6.737   3.461
    1MUSC O04J425872   7.909   6.389   1.240
    1MUSC O04J525873   7.740   6.737   0.236
    1MUSC O04J625874   7.952   6.389   0.451
    1MUSC K00Gh25875   7.839   6.880   1.849
    1MUSC K00Gi25876   7.487   7.152   2.852
    1MUSC K00Gj25877   7.579   6.427   1.849
    1MUSC K00Gk25878   7.747   6.699   2.852
    1MUSC Al0iX25879   7.666   6.863   2.350
    1MUSC Al0iY25880   7.660   7.168   2.351
    1MUSC Al0iZ25881   8.011   6.863   1.348
    1MUSC Al0ia25882   7.835   7.168   3.353
    1MUSC Al0ib25883   7.926   6.411   2.350
    1MUSC Al0ic25884   7.920   6.716   2.351
    1MUSC Al0id25885   7.751   6.411   1.348
    1MUSC Al0ie25886   7.575   6.716   3.353
    1MUSC Si1R325887   7.842   7.178   1.614
    1MUSC Si1R425888   7.484   6.853   3.087
    1MUSC Si1R525889   7.836   7.178   2.084
    1MUSC Si1R625890   8.011   6.853   2.617
    1MUSC Si1R725891   7.582   7.023   2.084
    1MUSC Si1R825892   7.743   7.009   2.617
    1MUSC Si1R925893   8.095   7.023   1.613
    1MUSC Si1RA25894   7.751   7.009   3.088
    1MUSC Si1RB25895   8.102   6.726   1.614
    1MUSC Si1RC25896   7.744   6.401   3.087
    1MUSC Si1RD25897   7.576   6.726   2.084
    1MUSC Si1RE25898   7.750   6.401   2.617
    1MUSC Si1RF25899   7.843   6.570   2.084
    1MUSC Si1RG25900   8.004   6.556   2.617
    1MUSC Si1RH25901   7.835   6.570   1.613
    1MUSC Si1RI25902   7.491   6.556   3.088
    1MUSC O04J725903   7.605   7.012   2.243
    1MUSC O04J825904   7.721   7.020   2.458
    1MUSC O04J925905   8.073   7.012   1.454
    1MUSC O04JA25906   7.773   7.020   3.247
    1MUSC O04JB25907   7.860   6.832   1.446
    1MUSC O04JC25908   7.466   7.200   3.255
    1MUSC O04JD25909   7.818   6.832   2.252
    1MUSC O04JE25910   8.029   7.200   2.449
    1MUSC O04JF25911   7.720   7.080   1.665
    1MUSC O04JG25912   7.606   6.951   3.036
    1MUSC O04JH25913   7.958   7.080   2.032
    1MUSC O04JI25914   7.889   6.951   2.669
    1MUSC O04JJ25915   7.698   7.117   2.013
    1MUSC O04JK25916   7.627   6.914   2.688
    1MUSC O04JL25917   7.979   7.117   1.685
    1MUSC O04JM25918   7.867   6.914   3.016
    1MUSC O04JN25919   7.599   6.874   2.013
    1MUSC O04JO25920   7.727   7.158   2.688
    1MUSC O04JP25921   8.079   6.874   1.684
    1MUSC O04JQ25922   7.767   7.158   3.017
    1MUSC O04JR25923   7.860   7.190   1.454
    1MUSC O04JS25924   7.466   6.842   3.247
    1MUSC O04JT25925   7.818   7.190   2.243
    1MUSC O04JU25926   8.029   6.842   2.458
    1MUSC O04JV25927   7.865   6.559   2.243
    1MUSC O04JW25928   7.982   6.567   2.458
    1MUSC O04JX25929   7.813   6.559   1.454
    1MUSC O04JY25930   7.513   6.567   3.247
    1MUSC O04JZ25931   8.120   6.379   1.446
    1MUSC O04Ja25932   7.726   6.747   3.255
    1MUSC O04Jb25933   7.557   6.379   2.252
    1MUSC O04Jc25934   7.769   6.747   2.449
    1MUSC O04Jd25935   7.980   6.628   1.665
    1MUSC O04Je25936   7.866   6.499   3.036
    1MUSC O04Jf25937   7.698   6.628   2.032
    1MUSC O04Jg25938   7.628   6.499   2.669
    1MUSC O04Jh25939   7.959   6.665   2.013
    1MUSC O04Ji25940   7.888   6.462   2.688
    1MUSC O04Jj25941   7.719   6.665   1.685
    1MUSC O04Jk25942   7.607   6.462   3.016
    1MUSC O04Jl25943   7.859   6.421   2.013
    1MUSC O04Jm25944   7.988   6.705   2.688
    1MUSC O04Jn25945   7.819   6.421   1.684
    1MUSC O04Jo25946   7.507   6.705   3.017
    1MUSC O04Jp25947   8.120   6.737   1.454
    1MUSC O04Jq25948   7.726   6.389   3.247
    1MUSC O04Jr25949   7.557   6.737   2.243
    1MUSC O04Js25950   7.769   6.389   2.458
    1MUSC K00Gl25951   7.670   8.057   0.845
    1MUSC K00Gm25952   7.930   7.605   0.845
    1MUSC Al0if25953   7.849   7.769   0.343
    1MUSC Al0ig25954   7.843   8.074   0.344
    1MUSC Al0ih25955   8.194   7.769   3.355
    1MUSC Al0ii25956   8.018   8.074   1.346
    1MUSC Al0ij25957   8.109   7.316   0.343
    1MUSC Al0ik25958   8.103   7.621   0.344
    1MUSC Al0il25959   7.934   7.316   3.355
    1MUSC Al0im25960   7.758   7.621   1.346
    1MUSC Si1RJ25961   8.025   8.084   3.621
    1MUSC Si1RK25962   7.667   7.759   1.080
    1MUSC Si1RL25963   8.019   8.084   0.077
    1MUSC Si1RM25964   8.194   7.759   0.610
    1MUSC Si1RN25965   7.765   7.928   0.077
    1MUSC Si1RO25966   7.926   7.914   0.610
    1MUSC Si1RP25967   8.278   7.928   3.620
    1MUSC Si1RQ25968   7.934   7.914   1.081
    1MUSC Si1RR25969   8.285   7.631   3.621
    1MUSC Si1RS25970   7.927   7.306   1.080
    1MUSC Si1RT25971   7.759   7.631   0.077
    1MUSC Si1RU25972   7.933   7.306   0.610
    1MUSC Si1RV25973   8.026   7.476   0.077
    1MUSC Si1RW25974   8.187   7.461   0.610
    1MUSC Si1RX25975   8.018   7.476   3.620
    1MUSC Si1RY25976   7.674   7.461   1.081
    1MUSC O04Jt25977   7.788   7.917   0.236
    1MUSC O04Ju25978   7.904   7.925   0.451
    1MUSC O04Jv25979   8.256   7.917   3.461
    1MUSC O04Jw25980   7.956   7.925   1.240
    1MUSC O04Jx25981   8.043   7.737   3.453
    1MUSC O04Jy25982   7.649   8.105   1.248
    1MUSC O04Jz25983   8.001   7.737   0.245
    1MUSC O04K025984   8.212   8.105   0.442
    1MUSC O04K125985   7.903   7.986   3.672
    1MUSC O04K225986   7.789   7.856   1.029
    1MUSC O04K325987   8.141   7.986   0.025
    1MUSC O04K425988   8.072   7.856   0.662
    1MUSC O04K525989   7.881   8.023   0.006
    1MUSC O04K625990   7.810   7.819   0.681
    1MUSC O04K725991   8.162   8.023   3.692
    1MUSC O04K825992   8.050   7.819   1.009
    1MUSC O04K925993   7.782   7.779   0.006
    1MUSC O04KA25994   7.910   8.063   0.681
    1MUSC O04KB25995   8.262   7.779   3.691
    1MUSC O04KC25996   7.950   8.063   1.010
    1MUSC O04KD25997   8.043   8.095   3.461
    1MUSC O04KE25998   7.649   7.747   1.240
    1MUSC O04KF25999   8.001   8.095   0.236
    1MUSC O04KG26000   8.212   7.747   0.451
    1MUSC O04KH26001   8.048   7.464   0.236
    1MUSC O04KI26002   8.165   7.473   0.451
    1MUSC O04KJ26003   7.996   7.464   3.461
    1MUSC O04KK26004   7.696   7.473   1.240
    1MUSC O04KL26005   8.303   7.284   3.453
    1MUSC O04KM26006   7.909   7.653   1.248
    1MUSC O04KN26007   7.740   7.284   0.245
    1MUSC O04KO26008   7.952   7.653   0.442
    1MUSC O04KP26009   8.163   7.533   3.672
    1MUSC O04KQ26010   8.049   7.404   1.029
    1MUSC O04KR26011   7.881   7.533   0.025
    1MUSC O04KS26012   7.811   7.404   0.662
    1MUSC O04KT26013   8.142   7.570   0.006
    1MUSC O04KU26014   8.071   7.367   0.681
    1MUSC O04KV26015   7.902   7.570   3.692
    1MUSC O04KW26016   7.790   7.367   1.009
    1MUSC O04KX26017   8.042   7.326   0.006
    1MUSC O04KY26018   8.171   7.611   0.681
    1MUSC O04KZ26019   8.002   7.326   3.691
    1MUSC O04Ka26020   7.690   7.611   1.010
    1MUSC O04Kb26021   8.303   7.642   3.461
    1MUSC O04Kc26022   7.909   7.295   1.240
    1MUSC O04Kd26023   7.740   7.642   0.236
    1MUSC O04Ke26024   7.952   7.295   0.451
    1MUSC K00Gn26025   7.839   7.785   1.849
    1MUSC K00Go26026   7.487   8.057   2.852
    1MUSC K00Gp26027   7.579   7.332   1.849
    1MUSC K00Gq26028   7.747   7.605   2.852
    1MUSC Al0in26029   7.666   7.769   2.350
    1MUSC Al0io26030   7.660   8.074   2.351
    1MUSC Al0ip26031   8.011   7.769   1.348
    1MUSC Al0iq26032   7.835   8.074   3.353
    1MUSC Al0ir26033   7.926   7.316   2.350
    1MUSC Al0is26034   7.920   7.621   2.351
    1MUSC Al0it26035   7.751   7.316   1.348
    1MUSC Al0iu26036   7.575   7.621   3.353
    1MUSC Si1RZ26037   7.842   8.084   1.614
    1MUSC Si1Ra26038   7.484   7.759   3.087
    1MUSC Si1Rb26039   7.836   8.084   2.084
    1MUSC Si1Rc26040   8.011   7.759   2.617
    1MUSC Si1Rd26041   7.582   7.928   2.084
    1MUSC Si1Re26042   7.743   7.914   2.617
    1MUSC Si1Rf26043   8.095   7.928   1.613
    1MUSC Si1Rg26044   7.751   7.914   3.088
    1MUSC Si1Rh26045   8.102   7.631   1.614
    1MUSC Si1Ri26046   7.744   7.306   3.087
    1MUSC Si1Rj26047   7.576   7.631   2.084
    1MUSC Si1Rk26048   7.750   7.306   2.617
    1MUSC Si1Rl26049   7.843   7.476   2.084
    1MUSC Si1Rm26050   8.004   7.461   2.617
    1MUSC Si1Rn26051   7.835   7.476   1.613
    1MUSC Si1Ro26052   7.491   7.461   3.088
    1MUSC O04Kf26053   7.605   7.917   2.243
    1MUSC O04Kg26054   7.721   7.925   2.458
    1MUSC O04Kh26055   8.073   7.917   1.454
    1MUSC O04Ki26056   7.773   7.925   3.247
    1MUSC O04Kj26057   7.860   7.737   1.446
    1MUSC O04Kk26058   7.466   8.105   3.255
    1MUSC O04Kl26059   7.818   7.737   2.252
    1MUSC O04Km26060   8.029   8.105   2.449
    1MUSC O04Kn26061   7.720   7.986   1.665
    1MUSC O04Ko26062   7.606   7.856   3.036
    1MUSC O04Kp26063   7.958   7.986   2.032
    1MUSC O04Kq26064   7.889   7.856   2.669
    1MUSC O04Kr26065   7.698   8.023   2.013
    1MUSC O04Ks26066   7.627   7.819   2.688
    1MUSC O04Kt26067   7.979   8.023   1.685
    1MUSC O04Ku26068   7.867   7.819   3.016
    1MUSC O04Kv26069   7.599   7.779   2.013
    1MUSC O04Kw26070   7.727   8.063   2.688
    1MUSC O04Kx26071   8.079   7.779   1.684
    1MUSC O04Ky26072   7.767   8.063   3.017
    1MUSC O04Kz26073   7.860   8.095   1.454
    1MUSC O04L026074   7.466   7.747   3.247
    1MUSC O04L126075   7.818   8.095   2.243
    1MUSC O04L226076   8.029   7.747   2.458
    1MUSC O04L326077   7.865   7.464   2.243
    1MUSC O04L426078   7.982   7.473   2.458
    1MUSC O04L526079   7.813   7.464   1.454
    1MUSC O04L626080   7.513   7.473   3.247
    1MUSC O04L726081   8.120   7.284   1.446
    1MUSC O04L826082   7.726   7.653   3.255
    1MUSC O04L926083   7.557   7.284   2.252
    1MUSC O04LA26084   7.769   7.653   2.449
    1MUSC O04LB26085   7.980   7.533   1.665
    1MUSC O04LC26086   7.866   7.404   3.036
    1MUSC O04LD26087   7.698   7.533   2.032
    1MUSC O04LE26088   7.628   7.404   2.669
    1MUSC O04LF26089   7.959   7.570   2.013
    1MUSC O04LG26090   7.888   7.367   2.688
    1MUSC O04LH26091   7.719   7.570   1.685
    1MUSC O04LI26092   7.607   7.367   3.016
    1MUSC O04LJ26093   7.859   7.326   2.013
    1MUSC O04LK26094   7.988   7.611   2.688
    1MUSC O04LL26095   7.819   7.326   1.684
    1MUSC O04LM26096   7.507   7.611   3.017
    1MUSC O04LN26097   8.120   7.642   1.454
    1MUSC O04LO26098   7.726   7.295   3.247
    1MUSC O04LP26099   7.557   7.642   2.243
    1MUSC O04LQ26100   7.769   7.295   2.458
    1MUSC K00Gr26101   7.670   8.962   0.845
    1MUSC K00Gs26102   7.930   8.510   0.845
    1MUSC Al0iv26103   7.849   8.674   0.343
    1MUSC Al0iw26104   7.843   8.979   0.344
    1MUSC Al0ix26105   8.194   8.674   3.355
    1MUSC Al0iy26106   8.018   8.979   1.346
    1MUSC Al0iz26107   8.109   8.221   0.343
    1MUSC Al0j026108   8.103   8.526   0.344
    1MUSC Al0j126109   7.934   8.221   3.355
    1MUSC Al0j226110   7.758   8.526   1.346
    1MUSC Si1Rp26111   8.025   8.989   3.621
    1MUSC Si1Rq26112   7.667   8.664   1.080
    1MUSC Si1Rr26113   8.019   8.989   0.077
    1MUSC Si1Rs26114   8.194   8.664   0.610
    1MUSC Si1Rt26115   7.765   8.834   0.077
    1MUSC Si1Ru26116   7.926   8.819   0.610
    1MUSC Si1Rv26117   8.278   8.834   3.620
    1MUSC Si1Rw26118   7.934   8.819   1.081
    1MUSC Si1Rx26119   8.285   8.536   3.621
    1MUSC Si1Ry26120   7.927   8.211   1.080
    1MUSC Si1Rz26121   7.759   8.536   0.077
    1MUSC Si1S026122   7.933   8.211   0.610
    1MUSC Si1S126123   8.026   8.381   0.077
    1MUSC Si1S226124   8.187   8.367   0.610
    1MUSC Si1S326125   8.018   8.381   3.620
    1MUSC Si1S426126   7.674   8.367   1.081
    1MUSC O04LR26127   7.788   8.822   0.236
    1MUSC O04LS26128   7.904   8.831   0.451
    1MUSC O04LT26129   8.256   8.822   3.461
    1MUSC O04LU26130   7.956   8.831   1.240
    1MUSC O04LV26131   8.043   8.642   3.453
    1MUSC O04LW26132   7.649   9.010   1.248
    1MUSC O04LX26133   8.001   8.642   0.245
    1MUSC O04LY26134   8.212   9.010   0.442
    1MUSC O04LZ26135   7.903   8.891   3.672
    1MUSC O04La26136   7.789   8.762   1.029
    1MUSC O04Lb26137   8.141   8.891   0.025
    1MUSC O04Lc26138   8.072   8.762   0.662
    1MUSC O04Ld26139   7.881   8.928   0.006
    1MUSC O04Le26140   7.810   8.725   0.681
    1MUSC O04Lf26141   8.162   8.928   3.692
    1MUSC O04Lg26142   8.050   8.725   1.009
    1MUSC O04Lh26143   7.782   8.684   0.006
    1MUSC O04Li26144   7.910   8.968   0.681
    1MUSC O04Lj26145   8.262   8.684   3.691
    1MUSC O04Lk26146   7.950   8.968   1.010
    1MUSC O04Ll26147   8.043   9.000   3.461
    1MUSC O04Lm26148   7.649   8.652   1.240
    1MUSC O04Ln26149   8.001   9.000   0.236
    1MUSC O04Lo26150   8.212   8.652   0.451
    1MUSC O04Lp26151   8.048   8.370   0.236
    1MUSC O04Lq26152   8.165   8.378   0.451
    1MUSC O04Lr26153   7.996   8.370   3.461
    1MUSC O04Ls26154   7.696   8.378   1.240
    1MUSC O04Lt26155   8.303   8.190   3.453
    1MUSC O04Lu26156   7.909   8.558   1.248
    1MUSC O04Lv26157   7.740   8.190   0.245
    1MUSC O04Lw26158   7.952   8.558   0.442
    1MUSC O04Lx26159   8.163   8.438   3.672
    1MUSC O04Ly26160   8.049   8.309   1.029
    1MUSC O04Lz26161   7.881   8.438   0.025
    1MUSC O04M026162   7.811   8.309   0.662
    1MUSC O04M126163   8.142   8.475   0.006
    1MUSC O04M226164   8.071   8.272   0.681
    1MUSC O04M326165   7.902   8.475   3.692
    1MUSC O04M426166   7.790   8.272   1.009
    1MUSC O04M526167   8.042   8.232   0.006
    1MUSC O04M626168   8.171   8.516   0.681
    1MUSC O04M726169   8.002   8.232   3.691
    1MUSC O04M826170   7.690   8.516   1.010
    1MUSC O04M926171   8.303   8.548   3.461
    1MUSC O04MA26172   7.909   8.200   1.240
    1MUSC O04MB26173   7.740   8.548   0.236
    1MUSC O04MC26174   7.952   8.200   0.451
    1MUSC K00Gt26175   7.839   8.690   1.849
    1MUSC K00Gu26176   7.487   8.962   2.852
    1MUSC K00Gv26177   7.579   8.238   1.849
    1MUSC K00Gw26178   7.747   8.510   2.852
    1MUSC Al0j326179   7.666   8.674   2.350
    1MUSC Al0j426180   7.660   8.979   2.351
    1MUSC Al0j526181   8.011   8.674   1.348
    1MUSC Al0j626182   7.835   8.979   3.353
    1MUSC Al0j726183   7.926   8.221   2.350
    1MUSC Al0j826184   7.920   8.526   2.351
    1MUSC Al0j926185   7.751   8.221   1.348
    1MUSC Al0jA26186   7.575   8.526   3.353
    1MUSC Si1S526187   7.842   8.989   1.614
    1MUSC Si1S626188   7.484   8.664   3.087
    1MUSC Si1S726189   7.836   8.989   2.084
    1MUSC Si1S826190   8.011   8.664   2.617
    1MUSC Si1S926191   7.582   8.834   2.084
    1MUSC Si1SA26192   7.743   8.819   2.617
    1MUSC Si1SB26193   8.095   8.834   1.613
    1MUSC Si1SC26194   7.751   8.819   3.088
    1MUSC Si1SD26195   8.102   8.536   1.614
    1MUSC Si1SE26196   7.744   8.211   3.087
    1MUSC Si1SF26197   7.576   8.536   2.084
    1MUSC Si1SG26198   7.750   8.211   2.617
    1MUSC Si1SH26199   7.843   8.381   2.084
    1MUSC Si1SI26200   8.004   8.367   2.617
    1MUSC Si1SJ26201   7.835   8.381   1.613
    1MUSC Si1SK26202   7.491   8.367   3.088
    1MUSC O04MD26203   7.605   8.822   2.243
    1MUSC O04ME26204   7.721   8.831   2.458
    1MUSC O04MF26205   8.073   8.822   1.454
    1MUSC O04MG26206   7.773   8.831   3.247
    1MUSC O04MH26207   7.860   8.642   1.446
    1MUSC O04MI26208   7.466   9.010   3.255
    1MUSC O04MJ26209   7.818   8.642   2.252
    1MUSC O04MK26210   8.029   9.010   2.449
    1MUSC O04ML26211   7.720   8.891   1.665
    1MUSC O04MM26212   7.606   8.762   3.036
    1MUSC O04MN26213   7.958   8.891   2.032
    1MUSC O04MO26214   7.889   8.762   2.669
    1MUSC O04MP26215   7.698   8.928   2.013
    1MUSC O04MQ26216   7.627   8.725   2.688
    1MUSC O04MR26217   7.979   8.928   1.685
    1MUSC O04MS26218   7.867   8.725   3.016
    1MUSC O04MT26219   7.599   8.684   2.013
    1MUSC O04MU26220   7.727   8.968   2.688
    1MUSC O04MV26221   8.079   8.684   1.684
    1MUSC O04MW26222   7.767   8.968   3.017
    1MUSC O04MX26223   7.860   9.000   1.454
    1MUSC O04MY26224   7.466   8.652   3.247
    1MUSC O04MZ26225   7.818   9.000   2.243
    1MUSC O04Ma26226   8.029   8.652   2.458
    1MUSC O04Mb26227   7.865   8.370   2.243
    1MUSC O04Mc26228   7.982   8.378   2.458
    1MUSC O04Md26229   7.813   8.370   1.454
    1MUSC O04Me26230   7.513   8.378   3.247
    1MUSC O04Mf26231   8.120   8.190   1.446
    1MUSC O04Mg26232   7.726   8.558   3.255
    1MUSC O04Mh26233   7.557   8.190   2.252
    1MUSC O04Mi26234   7.769   8.558   2.449
    1MUSC O04Mj26235   7.980   8.438   1.665
    1MUSC O04Mk26236   7.866   8.309   3.036
    1MUSC O04Ml26237   7.698   8.438   2.032
    1MUSC O04Mm26238   7.628   8.309   2.669
    1MUSC O04Mn26239   7.959   8.475   2.013
    1MUSC O04Mo26240   7.888   8.272   2.688
    1MUSC O04Mp26241   7.719   8.475   1.685
    1MUSC O04Mq26242   7.607   8.272   3.016
    1MUSC O04Mr26243   7.859   8.232   2.013
    1MUSC O04Ms26244   7.988   8.516   2.688
    1MUSC O04Mt26245   7.819   8.232   1.684
    1MUSC O04Mu26246   7.507   8.516   3.017
    1MUSC O04Mv26247   8.120   8.548   1.454
    1MUSC O04Mw26248   7.726   8.200   3.247
    1MUSC O04Mx26249   7.557   8.548   2.243
    1MUSC O04My26250   7.769   8.200   2.458
    1MUSC K00Gx26251   7.670   9.868   0.845
    1MUSC K00Gy26252   7.930   9.415   0.845
    1MUSC Al0jB26253   7.849   9.579   0.343
    1MUSC Al0jC26254   7.843   9.884   0.344
    1MUSC Al0jD26255   8.194   9.579   3.355
    1MUSC Al0jE26256   8.018   9.884   1.346
    1MUSC Al0jF26257   8.109   9.126   0.343
    1MUSC Al0jG26258   8.103   9.432   0.344
    1MUSC Al0jH26259   7.934   9.126   3.355
    1MUSC Al0jI26260   7.758   9.432   1.346
    1MUSC Si1SL26261   8.025   9.894   3.621
    1MUSC Si1SM26262   7.667   9.569   1.080
    1MUSC Si1SN26263   8.019   9.894   0.077
    1MUSC Si1SO26264   8.194   9.569   0.610
    1MUSC Si1SP26265   7.765   9.739   0.077
    1MUSC Si1SQ26266   7.926   9.724   0.610
    1MUSC Si1SR26267   8.278   9.739   3.620
    1MUSC Si1SS26268   7.934   9.724   1.081
    1MUSC Si1ST26269   8.285   9.441   3.621
    1MUSC Si1SU26270   7.927   9.117   1.080
    1MUSC Si1SV26271   7.759   9.441   0.077
    1MUSC Si1SW26272   7.933   9.117   0.610
    1MUSC Si1SX26273   8.026   9.286   0.077
    1MUSC Si1SY26274   8.187   9.272   0.610
    1MUSC Si1SZ26275   8.018   9.286   3.620
    1MUSC Si1Sa26276   7.674   9.272   1.081
    1MUSC O04Mz26277   7.788   9.728   0.236
    1MUSC O04N026278   7.904   9.736   0.451
    1MUSC O04N126279   8.256   9.728   3.461
    1MUSC O04N226280   7.956   9.736   1.240
    1MUSC O04N326281   8.043   9.548   3.453
    1MUSC O04N426282   7.649   9.916   1.248
    1MUSC O04N526283   8.001   9.548   0.245
    1MUSC O04N626284   8.212   9.916   0.442
    1MUSC O04N726285   7.903   9.796   3.672
    1MUSC O04N826286   7.789   9.667   1.029
    1MUSC O04N926287   8.141   9.796   0.025
    1MUSC O04NA26288   8.072   9.667   0.662
    1MUSC O04NB26289   7.881   9.833   0.006
    1MUSC O04NC26290   7.810   9.630   0.681
    1MUSC O04ND26291   8.162   9.833   3.692
    1MUSC O04NE26292   8.050   9.630   1.009
    1MUSC O04NF26293   7.782   9.590   0.006
    1MUSC O04NG26294   7.910   9.874   0.681
    1MUSC O04NH26295   8.262   9.590   3.691
    1MUSC O04NI26296   7.950   9.874   1.010
    1MUSC O04NJ26297   8.043   9.906   3.461
    1MUSC O04NK26298   7.649   9.558   1.240
    1MUSC O04NL26299   8.001   9.906   0.236
    1MUSC O04NM26300   8.212   9.558   0.451
    1MUSC O04NN26301   8.048   9.275   0.236
    1MUSC O04NO26302   8.165   9.283   0.451
    1MUSC O04NP26303   7.996   9.275   3.461
    1MUSC O04NQ26304   7.696   9.283   1.240
    1MUSC O04NR26305   8.303   9.095   3.453
    1MUSC O04NS26306   7.909   9.463   1.248
    1MUSC O04NT26307   7.740   9.095   0.245
    1MUSC O04NU26308   7.952   9.463   0.442
    1MUSC O04NV26309   8.163   9.344   3.672
    1MUSC O04NW26310   8.049   9.214   1.029
    1MUSC O04NX26311   7.881   9.344   0.025
    1MUSC O04NY26312   7.811   9.214   0.662
    1MUSC O04NZ26313   8.142   9.381   0.006
    1MUSC O04Na26314   8.071   9.177   0.681
    1MUSC O04Nb26315   7.902   9.381   3.692
    1MUSC O04Nc26316   7.790   9.177   1.009
    1MUSC O04Nd26317   8.042   9.137   0.006
    1MUSC O04Ne26318   8.171   9.421   0.681
    1MUSC O04Nf26319   8.002   9.137   3.691
    1MUSC O04Ng26320   7.690   9.421   1.010
    1MUSC O04Nh26321   8.303   9.453   3.461
    1MUSC O04Ni26322   7.909   9.105   1.240
    1MUSC O04Nj26323   7.740   9.453   0.236
    1MUSC O04Nk26324   7.952   9.105   0.451
    1MUSC K00Gz26325   7.839   9.596   1.849
    1MUSC K00H026326   7.487   9.868   2.852
    1MUSC K00H126327   7.579   9.143   1.849
    1MUSC K00H226328   7.747   9.415   2.852
    1MUSC Al0jJ26329   7.666   9.579   2.350
    1MUSC Al0jK26330   7.660   9.884   2.351
    1MUSC Al0jL26331   8.011   9.579   1.348
    1MUSC Al0jM26332   7.835   9.884   3.353
    1MUSC Al0jN26333   7.926   9.126   2.350
    1MUSC Al0jO26334   7.920   9.432   2.351
    1MUSC Al0jP26335   7.751   9.126   1.348
    1MUSC Al0jQ26336   7.575   9.432   3.353
    1MUSC Si1Sb26337   7.842   9.894   1.614
    1MUSC Si1Sc26338   7.484   9.569   3.087
    1MUSC Si1Sd26339   7.836   9.894   2.084
    1MUSC Si1Se26340   8.011   9.569   2.617
    1MUSC Si1Sf26341   7.582   9.739   2.084
    1MUSC Si1Sg26342   7.743   9.724   2.617
    1MUSC Si1Sh26343   8.095   9.739   1.613
    1MUSC Si1Si26344   7.751   9.724   3.088
    1MUSC Si1Sj26345   8.102   9.441   1.614
    1MUSC Si1Sk26346   7.744   9.117   3.087
    1MUSC Si1Sl26347   7.576   9.441   2.084
    1MUSC Si1Sm26348   7.750   9.117   2.617
    1MUSC Si1Sn26349   7.843   9.286   2.084
    1MUSC Si1So26350   8.004   9.272   2.617
    1MUSC Si1Sp26351   7.835   9.286   1.613
    1MUSC Si1Sq26352   7.491   9.272   3.088
    1MUSC O04Nl26353   7.605   9.728   2.243
    1MUSC O04Nm26354   7.721   9.736   2.458
    1MUSC O04Nn26355   8.073   9.728   1.454
    1MUSC O04No26356   7.773   9.736   3.247
    1MUSC O04Np26357   7.860   9.548   1.446
    1MUSC O04Nq26358   7.466   9.916   3.255
    1MUSC O04Nr26359   7.818   9.548   2.252
    1MUSC O04Ns26360   8.029   9.916   2.449
    1MUSC O04Nt26361   7.720   9.796   1.665
    1MUSC O04Nu26362   7.606   9.667   3.036
    1MUSC O04Nv26363   7.958   9.796   2.032
    1MUSC O04Nw26364   7.889   9.667   2.669
    1MUSC O04Nx26365   7.698   9.833   2.013
    1MUSC O04Ny26366   7.627   9.630   2.688
    1MUSC O04Nz26367   7.979   9.833   1.685
    1MUSC O04O026368   7.867   9.630   3.016
    1MUSC O04O126369   7.599   9.590   2.013
    1MUSC O04O226370   7.727   9.874   2.688
    1MUSC O04O326371   8.079   9.590   1.684
    1MUSC O04O426372   7.767   9.874   3.017
    1MUSC O04O526373   7.860   9.906   1.454
    1MUSC O04O626374   7.466   9.558   3.247
    1MUSC O04O726375   7.818   9.906   2.243
    1MUSC O04O826376   8.029   9.558   2.458
    1MUSC O04O926377   7.865   9.275   2.243
    1MUSC O04OA26378   7.982   9.283   2.458
    1MUSC O04OB26379   7.813   9.275   1.454
    1MUSC O04OC26380   7.513   9.283   3.247
    1MUSC O04OD26381   8.120   9.095   1.446
    1MUSC O04OE26382   7.726   9.463   3.255
    1MUSC O04OF26383   7.557   9.095   2.252
    1MUSC O04OG26384   7.769   9.463   2.449
    1MUSC O04OH26385   7.980   9.344   1.665
    1MUSC O04OI26386   7.866   9.214   3.036
    1MUSC O04OJ26387   7.698   9.344   2.032
    1MUSC O04OK26388   7.628   9.214   2.669
    1MUSC O04OL26389   7.959   9.381   2.013
    1MUSC O04OM26390   7.888   9.177   2.688
    1MUSC O04ON26391   7.719   9.381   1.685
    1MUSC O04OO26392   7.607   9.177   3.016
    1MUSC O04OP26393   7.859   9.137   2.013
    1MUSC O04OQ26394   7.988   9.421   2.688
    1MUSC O04OR26395   7.819   9.137   1.684
    1MUSC O04OS26396   7.507   9.421   3.017
    1MUSC O04OT26397   8.120   9.453   1.454
    1MUSC O04OU26398   7.726   9.105   3.247
    1MUSC O04OV26399   7.557   9.453   2.243
    1MUSC O04OW26400   7.769   9.105   2.458
    1MUSC K00H326401   8.191   0.815   0.845
    1MUSC K00H426402   8.451   0.362   0.845
    1MUSC Al0jR26403   8.370   0.526   0.343
    1MUSC Al0jS26404   8.363   0.831   0.344
    1MUSC Al0jT26405   8.715   0.526   3.355
    1MUSC Al0jU26406   8.538   0.831   1.346
    1MUSC Al0jV26407   8.630   0.074   0.343
    1MUSC Al0jW26408   8.623   0.379   0.344
    1MUSC Al0jX26409   8.455   0.074   3.355
    1MUSC Al0jY26410   8.278   0.379   1.346
    1MUSC Si1Sr26411   8.545   0.841   3.621
    1MUSC Si1Ss26412   8.188   0.517   1.080
    1MUSC Si1St26413   8.539   0.841   0.077
    1MUSC Si1Su26414   8.714   0.517   0.610
    1MUSC Si1Sv26415   8.286   0.686   0.077
    1MUSC Si1Sw26416   8.447   0.672   0.610
    1MUSC Si1Sx26417   8.799   0.686   3.620
    1MUSC Si1Sy26418   8.455   0.672   1.081
    1MUSC Si1Sz26419   8.806   0.389   3.621
    1MUSC Si1T026420   8.448   0.064   1.080
    1MUSC Si1T126421   8.279   0.389   0.077
    1MUSC Si1T226422   8.454   0.064   0.610
    1MUSC Si1T326423   8.546   0.233   0.077
    1MUSC Si1T426424   8.707   0.219   0.610
    1MUSC Si1T526425   8.538   0.233   3.620
    1MUSC Si1T626426   8.194   0.219   1.081
    1MUSC O04OX26427   8.308   0.675   0.236
    1MUSC O04OY26428   8.425   0.683   0.451
    1MUSC O04OZ26429   8.777   0.675   3.461
    1MUSC O04Oa26430   8.477   0.683   1.240
    1MUSC O04Ob26431   8.564   0.495   3.453
    1MUSC O04Oc26432   8.169   0.863   1.248
    1MUSC O04Od26433   8.521   0.495   0.245
    1MUSC O04Oe26434   8.732   0.863   0.442
    1MUSC O04Of26435   8.423   0.744   3.672
    1MUSC O04Og26436   8.310   0.614   1.029
    1MUSC O04Oh26437   8.661   0.744   0.025
    1MUSC O04Oi26438   8.592   0.614   0.662
    1MUSC O04Oj26439   8.402   0.781   0.006
    1MUSC O04Ok26440   8.331   0.577   0.681
    1MUSC O04Ol26441   8.683   0.781   3.692
    1MUSC O04Om26442   8.571   0.577   1.009
    1MUSC O04On26443   8.302   0.537   0.006
    1MUSC O04Oo26444   8.431   0.821   0.681
    1MUSC O04Op26445   8.783   0.537   3.691
    1MUSC O04Oq26446   8.471   0.821   1.010
    1MUSC O04Or26447   8.564   0.853   3.461
    1MUSC O04Os26448   8.169   0.505   1.240
    1MUSC O04Ot26449   8.521   0.853   0.236
    1MUSC O04Ou26450   8.732   0.505   0.451
    1MUSC O04Ov26451   8.568   0.222   0.236
    1MUSC O04Ow26452   8.685   0.230   0.451
    1MUSC O04Ox26453   8.516   0.222   3.461
    1MUSC O04Oy26454   8.217   0.230   1.240
    1MUSC O04Oz26455   8.824   0.042   3.453
    1MUSC O04P026456   8.430   0.410   1.248
    1MUSC O04P126457   8.261   0.042   0.245
    1MUSC O04P226458   8.472   0.410   0.442
    1MUSC O04P326459   8.684   0.291   3.672
    1MUSC O04P426460   8.570   0.162   1.029
    1MUSC O04P526461   8.401   0.291   0.025
    1MUSC O04P626462   8.332   0.162   0.662
    1MUSC O04P726463   8.662   0.328   0.006
    1MUSC O04P826464   8.591   0.125   0.681
    1MUSC O04P926465   8.422   0.328   3.692
    1MUSC O04PA26466   8.310   0.125   1.009
    1MUSC O04PB26467   8.562   0.084   0.006
    1MUSC O04PC26468   8.691   0.368   0.681
    1MUSC O04PD26469   8.522   0.084   3.691
    1MUSC O04PE26470   8.211   0.368   1.010
    1MUSC O04PF26471   8.824   0.400   3.461
    1MUSC O04PG26472   8.430   0.052   1.240
    1MUSC O04PH26473   8.261   0.400   0.236
    1MUSC O04PI26474   8.472   0.052   0.451
    1MUSC K00H526475   8.359   0.543   1.849
    1MUSC K00H626476   8.008   0.815   2.852
    1MUSC K00H726477   8.099   0.090   1.849
    1MUSC K00H826478   8.268   0.362   2.852
    1MUSC Al0jZ26479   8.187   0.526   2.350
    1MUSC Al0ja26480   8.180   0.831   2.351
    1MUSC Al0jb26481   8.532   0.526   1.348
    1MUSC Al0jc26482   8.355   0.831   3.353
    1MUSC Al0jd26483   8.447   0.074   2.350
    1MUSC Al0je26484   8.440   0.379   2.351
    1MUSC Al0jf26485   8.272   0.074   1.348
    1MUSC Al0jg26486   8.095   0.379   3.353
    1MUSC Si1T726487   8.362   0.841   1.614
    1MUSC Si1T826488   8.005   0.517   3.087
    1MUSC Si1T926489   8.356   0.841   2.084
    1MUSC Si1TA26490   8.531   0.517   2.617
    1MUSC Si1TB26491   8.103   0.686   2.084
    1MUSC Si1TC26492   8.264   0.672   2.617
    1MUSC Si1TD26493   8.616   0.686   1.613
    1MUSC Si1TE26494   8.272   0.672   3.088
    1MUSC Si1TF26495   8.623   0.389   1.614
    1MUSC Si1TG26496   8.265   0.064   3.087
    1MUSC Si1TH26497   8.096   0.389   2.084
    1MUSC Si1TI26498   8.271   0.064   2.617
    1MUSC Si1TJ26499   8.363   0.233   2.084
    1MUSC Si1TK26500   8.524   0.219   2.617
    1MUSC Si1TL26501   8.355   0.233   1.613
    1MUSC Si1TM26502   8.011   0.219   3.088
    1MUSC O04PJ26503   8.125   0.675   2.243
    1MUSC O04PK26504   8.242   0.683   2.458
    1MUSC O04PL26505   8.594   0.675   1.454
    1MUSC O04PM26506   8.294   0.683   3.247
    1MUSC O04PN26507   8.381   0.495   1.446
    1MUSC O04PO26508   7.986   0.863   3.255
    1MUSC O04PP26509   8.338   0.495   2.252
    1MUSC O04PQ26510   8.549   0.863   2.449
    1MUSC O04PR26511   8.240   0.744   1.665
    1MUSC O04PS26512   8.127   0.614   3.036
    1MUSC O04PT26513   8.478   0.744   2.032
    1MUSC O04PU26514   8.409   0.614   2.669
    1MUSC O04PV26515   8.219   0.781   2.013
    1MUSC O04PW26516   8.148   0.577   2.688
    1MUSC O04PX26517   8.500   0.781   1.685
    1MUSC O04PY26518   8.388   0.577   3.016
    1MUSC O04PZ26519   8.119   0.537   2.013
    1MUSC O04Pa26520   8.248   0.821   2.688
    1MUSC O04Pb26521   8.600   0.537   1.684
    1MUSC O04Pc26522   8.288   0.821   3.017
    1MUSC O04Pd26523   8.381   0.853   1.454
    1MUSC O04Pe26524   7.986   0.505   3.247
    1MUSC O04Pf26525   8.338   0.853   2.243
    1MUSC O04Pg26526   8.549   0.505   2.458
    1MUSC O04Ph26527   8.385   0.222   2.243
    1MUSC O04Pi26528   8.502   0.230   2.458
    1MUSC O04Pj26529   8.333   0.222   1.454
    1MUSC O04Pk26530   8.034   0.230   3.247
    1MUSC O04Pl26531   8.641   0.042   1.446
    1MUSC O04Pm26532   8.247   0.410   3.255
    1MUSC O04Pn26533   8.078   0.042   2.252
    1MUSC O04Po26534   8.289   0.410   2.449
    1MUSC O04Pp26535   8.501   0.291   1.665
    1MUSC O04Pq26536   8.387   0.162   3.036
    1MUSC O04Pr26537   8.218   0.291   2.032
    1MUSC O04Ps26538   8.149   0.162   2.669
    1MUSC O04Pt26539   8.479   0.328   2.013
    1MUSC O04Pu26540   8.408   0.125   2.688
    1MUSC O04Pv26541   8.239   0.328   1.685
    1MUSC O04Pw26542   8.127   0.125   3.016
    1MUSC O04Px26543   8.379   0.084   2.013
    1MUSC O04Py26544   8.508   0.368   2.688
    1MUSC O04Pz26545   8.339   0.084   1.684
    1MUSC O04Q026546   8.028   0.368   3.017
    1MUSC O04Q126547   8.641   0.400   1.454
    1MUSC O04Q226548   8.247   0.052   3.247
    1MUSC O04Q326549   8.078   0.400   2.243
    1MUSC O04Q426550   8.289   0.052   2.458
    1MUSC K00H926551   8.191   1.720   0.845
    1MUSC K00HA26552   8.451   1.268   0.845
    1MUSC Al0jh26553   8.370   1.432   0.343
    1MUSC Al0ji26554   8.363   1.737   0.344
    1MUSC Al0jj26555   8.715   1.432   3.355
    1MUSC Al0jk26556   8.538   1.737   1.346
    1MUSC Al0jl26557   8.630   0.979   0.343
    1MUSC Al0jm26558   8.623   1.284   0.344
    1MUSC Al0jn26559   8.455   0.979   3.355
    1MUSC Al0jo26560   8.278   1.284   1.346
    1MUSC Si1TN26561   8.545   1.747   3.621
    1MUSC Si1TO26562   8.188   1.422   1.080
    1MUSC Si1TP26563   8.539   1.747   0.077
    1MUSC Si1TQ26564   8.714   1.422   0.610
    1MUSC Si1TR26565   8.286   1.591   0.077
    1MUSC Si1TS26566   8.447   1.577   0.610
    1MUSC Si1TT26567   8.799   1.591   3.620
    1MUSC Si1TU26568   8.455   1.577   1.081
    1MUSC Si1TV26569   8.806   1.294   3.621
    1MUSC Si1TW26570   8.448   0.969   1.080
    1MUSC Si1TX26571   8.279   1.294   0.077
    1MUSC Si1TY26572   8.454   0.969   0.610
    1MUSC Si1TZ26573   8.546   1.139   0.077
    1MUSC Si1Ta26574   8.707   1.124   0.610
    1MUSC Si1Tb26575   8.538   1.139   3.620
    1MUSC Si1Tc26576   8.194   1.124   1.081
    1MUSC O04Q526577   8.308   1.580   0.236
    1MUSC O04Q626578   8.425   1.588   0.451
    1MUSC O04Q726579   8.777   1.580   3.461
    1MUSC O04Q826580   8.477   1.588   1.240
    1MUSC O04Q926581   8.564   1.400   3.453
    1MUSC O04QA26582   8.169   1.768   1.248
    1MUSC O04QB26583   8.521   1.400   0.245
    1MUSC O04QC26584   8.732   1.768   0.442
    1MUSC O04QD26585   8.423   1.649   3.672
    1MUSC O04QE26586   8.310   1.520   1.029
    1MUSC O04QF26587   8.661   1.649   0.025
    1MUSC O04QG26588   8.592   1.520   0.662
    1MUSC O04QH26589   8.402   1.686   0.006
    1MUSC O04QI26590   8.331   1.483   0.681
    1MUSC O04QJ26591   8.683   1.686   3.692
    1MUSC O04QK26592   8.571   1.483   1.009
    1MUSC O04QL26593   8.302   1.442   0.006
    1MUSC O04QM26594   8.431   1.726   0.681
    1MUSC O04QN26595   8.783   1.442   3.691
    1MUSC O04QO26596   8.471   1.726   1.010
    1MUSC O04QP26597   8.564   1.758   3.461
    1MUSC O04QQ26598   8.169   1.410   1.240
    1MUSC O04QR26599   8.521   1.758   0.236
    1MUSC O04QS26600   8.732   1.410   0.451
    1MUSC O04QT26601   8.568   1.127   0.236
    1MUSC O04QU26602   8.685   1.136   0.451
    1MUSC O04QV26603   8.516   1.127   3.461
    1MUSC O04QW26604   8.217   1.136   1.240
    1MUSC O04QX26605   8.824   0.948   3.453
    1MUSC O04QY26606   8.430   1.316   1.248
    1MUSC O04QZ26607   8.261   0.948   0.245
    1MUSC O04Qa26608   8.472   1.316   0.442
    1MUSC O04Qb26609   8.684   1.196   3.672
    1MUSC O04Qc26610   8.570   1.067   1.029
    1MUSC O04Qd26611   8.401   1.196   0.025
    1MUSC O04Qe26612   8.332   1.067   0.662
    1MUSC O04Qf26613   8.662   1.233   0.006
    1MUSC O04Qg26614   8.591   1.030   0.681
    1MUSC O04Qh26615   8.422   1.233   3.692
    1MUSC O04Qi26616   8.310   1.030   1.009
    1MUSC O04Qj26617   8.562   0.990   0.006
    1MUSC O04Qk26618   8.691   1.274   0.681
    1MUSC O04Ql26619   8.522   0.990   3.691
    1MUSC O04Qm26620   8.211   1.274   1.010
    1MUSC O04Qn26621   8.824   1.306   3.461
    1MUSC O04Qo26622   8.430   0.958   1.240
    1MUSC O04Qp26623   8.261   1.306   0.236
    1MUSC O04Qq26624   8.472   0.958   0.451
    1MUSC K00HB26625   8.359   1.448   1.849
    1MUSC K00HC26626   8.008   1.720   2.852
    1MUSC K00HD26627   8.099   0.996   1.849
    1MUSC K00HE26628   8.268   1.268   2.852
    1MUSC Al0jp26629   8.187   1.432   2.350
    1MUSC Al0jq26630   8.180   1.737   2.351
    1MUSC Al0jr26631   8.532   1.432   1.348
    1MUSC Al0js26632   8.355   1.737   3.353
    1MUSC Al0jt26633   8.447   0.979   2.350
    1MUSC Al0ju26634   8.440   1.284   2.351
    1MUSC Al0jv26635   8.272   0.979   1.348
    1MUSC Al0jw26636   8.095   1.284   3.353
    1MUSC Si1Td26637   8.362   1.747   1.614
    1MUSC Si1Te26638   8.005   1.422   3.087
    1MUSC Si1Tf26639   8.356   1.747   2.084
    1MUSC Si1Tg26640   8.531   1.422   2.617
    1MUSC Si1Th26641   8.103   1.591   2.084
    1MUSC Si1Ti26642   8.264   1.577   2.617
    1MUSC Si1Tj26643   8.616   1.591   1.613
    1MUSC Si1Tk26644   8.272   1.577   3.088
    1MUSC Si1Tl26645   8.623   1.294   1.614
    1MUSC Si1Tm26646   8.265   0.969   3.087
    1MUSC Si1Tn26647   8.096   1.294   2.084
    1MUSC Si1To26648   8.271   0.969   2.617
    1MUSC Si1Tp26649   8.363   1.139   2.084
    1MUSC Si1Tq26650   8.524   1.124   2.617
    1MUSC Si1Tr26651   8.355   1.139   1.613
    1MUSC Si1Ts26652   8.011   1.124   3.088
    1MUSC O04Qr26653   8.125   1.580   2.243
    1MUSC O04Qs26654   8.242   1.588   2.458
    1MUSC O04Qt26655   8.594   1.580   1.454
    1MUSC O04Qu26656   8.294   1.588   3.247
    1MUSC O04Qv26657   8.381   1.400   1.446
    1MUSC O04Qw26658   7.986   1.768   3.255
    1MUSC O04Qx26659   8.338   1.400   2.252
    1MUSC O04Qy26660   8.549   1.768   2.449
    1MUSC O04Qz26661   8.240   1.649   1.665
    1MUSC O04R026662   8.127   1.520   3.036
    1MUSC O04R126663   8.478   1.649   2.032
    1MUSC O04R226664   8.409   1.520   2.669
    1MUSC O04R326665   8.219   1.686   2.013
    1MUSC O04R426666   8.148   1.483   2.688
    1MUSC O04R526667   8.500   1.686   1.685
    1MUSC O04R626668   8.388   1.483   3.016
    1MUSC O04R726669   8.119   1.442   2.013
    1MUSC O04R826670   8.248   1.726   2.688
    1MUSC O04R926671   8.600   1.442   1.684
    1MUSC O04RA26672   8.288   1.726   3.017
    1MUSC O04RB26673   8.381   1.758   1.454
    1MUSC O04RC26674   7.986   1.410   3.247
    1MUSC O04RD26675   8.338   1.758   2.243
    1MUSC O04RE26676   8.549   1.410   2.458
    1MUSC O04RF26677   8.385   1.127   2.243
    1MUSC O04RG26678   8.502   1.136   2.458
    1MUSC O04RH26679   8.333   1.127   1.454
    1MUSC O04RI26680   8.034   1.136   3.247
    1MUSC O04RJ26681   8.641   0.948   1.446
    1MUSC O04RK26682   8.247   1.316   3.255
    1MUSC O04RL26683   8.078   0.948   2.252
    1MUSC O04RM26684   8.289   1.316   2.449
    1MUSC O04RN26685   8.501   1.196   1.665
    1MUSC O04RO26686   8.387   1.067   3.036
    1MUSC O04RP26687   8.218   1.196   2.032
    1MUSC O04RQ26688   8.149   1.067   2.669
    1MUSC O04RR26689   8.479   1.233   2.013
    1MUSC O04RS26690   8.408   1.030   2.688
    1MUSC O04RT26691   8.239   1.233   1.685
    1MUSC O04RU26692   8.127   1.030   3.016
    1MUSC O04RV26693   8.379   0.990   2.013
    1MUSC O04RW26694   8.508   1.274   2.688
    1MUSC O04RX26695   8.339   0.990   1.684
    1MUSC O04RY26696   8.028   1.274   3.017
    1MUSC O04RZ26697   8.641   1.306   1.454
    1MUSC O04Ra26698   8.247   0.958   3.247
    1MUSC O04Rb26699   8.078   1.306   2.243
    1MUSC O04Rc26700   8.289   0.958   2.458
    1MUSC K00HF26701   8.191   2.626   0.845
    1MUSC K00HG26702   8.451   2.173   0.845
    1MUSC Al0jx26703   8.370   2.337   0.343
    1MUSC Al0jy26704   8.363   2.642   0.344
    1MUSC Al0jz26705   8.715   2.337   3.355
    1MUSC Al0k026706   8.538   2.642   1.346
    1MUSC Al0k126707   8.630   1.884   0.343
    1MUSC Al0k226708   8.623   2.189   0.344
    1MUSC Al0k326709   8.455   1.884   3.355
    1MUSC Al0k426710   8.278   2.189   1.346
    1MUSC Si1Tt26711   8.545   2.652   3.621
    1MUSC Si1Tu26712   8.188   2.327   1.080
    1MUSC Si1Tv26713   8.539   2.652   0.077
    1MUSC Si1Tw26714   8.714   2.327   0.610
    1MUSC Si1Tx26715   8.286   2.497   0.077
    1MUSC Si1Ty26716   8.447   2.482   0.610
    1MUSC Si1Tz26717   8.799   2.497   3.620
    1MUSC Si1U026718   8.455   2.482   1.081
    1MUSC Si1U126719   8.806   2.199   3.621
    1MUSC Si1U226720   8.448   1.874   1.080
    1MUSC Si1U326721   8.279   2.199   0.077
    1MUSC Si1U426722   8.454   1.874   0.610
    1MUSC Si1U526723   8.546   2.044   0.077
    1MUSC Si1U626724   8.707   2.030   0.610
    1MUSC Si1U726725   8.538   2.044   3.620
    1MUSC Si1U826726   8.194   2.030   1.081
    1MUSC O04Rd26727   8.308   2.485   0.236
    1MUSC O04Re26728   8.425   2.494   0.451
    1MUSC O04Rf26729   8.777   2.485   3.461
    1MUSC O04Rg26730   8.477   2.494   1.240
    1MUSC O04Rh26731   8.564   2.305   3.453
    1MUSC O04Ri26732   8.169   2.674   1.248
    1MUSC O04Rj26733   8.521   2.305   0.245
    1MUSC O04Rk26734   8.732   2.674   0.442
    1MUSC O04Rl26735   8.423   2.554   3.672
    1MUSC O04Rm26736   8.310   2.425   1.029
    1MUSC O04Rn26737   8.661   2.554   0.025
    1MUSC O04Ro26738   8.592   2.425   0.662
    1MUSC O04Rp26739   8.402   2.591   0.006
    1MUSC O04Rq26740   8.331   2.388   0.681
    1MUSC O04Rr26741   8.683   2.591   3.692
    1MUSC O04Rs26742   8.571   2.388   1.009
    1MUSC O04Rt26743   8.302   2.347   0.006
    1MUSC O04Ru26744   8.431   2.632   0.681
    1MUSC O04Rv26745   8.783   2.347   3.691
    1MUSC O04Rw26746   8.471   2.632   1.010
    1MUSC O04Rx26747   8.564   2.663   3.461
    1MUSC O04Ry26748   8.169   2.316   1.240
    1MUSC O04Rz26749   8.521   2.663   0.236
    1MUSC O04S026750   8.732   2.316   0.451
    1MUSC O04S126751   8.568   2.033   0.236
    1MUSC O04S226752   8.685   2.041   0.451
    1MUSC O04S326753   8.516   2.033   3.461
    1MUSC O04S426754   8.217   2.041   1.240
    1MUSC O04S526755   8.824   1.853   3.453
    1MUSC O04S626756   8.430   2.221   1.248
    1MUSC O04S726757   8.261   1.853   0.245
    1MUSC O04S826758   8.472   2.221   0.442
    1MUSC O04S926759   8.684   2.101   3.672
    1MUSC O04SA26760   8.570   1.972   1.029
    1MUSC O04SB26761   8.401   2.101   0.025
    1MUSC O04SC26762   8.332   1.972   0.662
    1MUSC O04SD26763   8.662   2.139   0.006
    1MUSC O04SE26764   8.591   1.935   0.681
    1MUSC O04SF26765   8.422   2.139   3.692
    1MUSC O04SG26766   8.310   1.935   1.009
    1MUSC O04SH26767   8.562   1.895   0.006
    1MUSC O04SI26768   8.691   2.179   0.681
    1MUSC O04SJ26769   8.522   1.895   3.691
    1MUSC O04SK26770   8.211   2.179   1.010
    1MUSC O04SL26771   8.824   2.211   3.461
    1MUSC O04SM26772   8.430   1.863   1.240
    1MUSC O04SN26773   8.261   2.211   0.236
    1MUSC O04SO26774   8.472   1.863   0.451
    1MUSC K00HH26775   8.359   2.353   1.849
    1MUSC K00HI26776   8.008   2.626   2.852
    1MUSC K00HJ26777   8.099   1.901   1.849
    1MUSC K00HK26778   8.268   2.173   2.852
    1MUSC Al0k526779   8.187   2.337   2.350
    1MUSC Al0k626780   8.180   2.642   2.351
    1MUSC Al0k726781   8.532   2.337   1.348
    1MUSC Al0k826782   8.355   2.642   3.353
    1MUSC Al0k926783   8.447   1.884   2.350
    1MUSC Al0kA26784   8.440   2.189   2.351
    1MUSC Al0kB26785   8.272   1.884   1.348
    1MUSC Al0kC26786   8.095   2.189   3.353
    1MUSC Si1U926787   8.362   2.652   1.614
    1MUSC Si1UA26788   8.005   2.327   3.087
    1MUSC Si1UB26789   8.356   2.652   2.084
    1MUSC Si1UC26790   8.531   2.327   2.617
    1MUSC Si1UD26791   8.103   2.497   2.084
    1MUSC Si1UE26792   8.264   2.482   2.617
    1MUSC Si1UF26793   8.616   2.497   1.613
    1MUSC Si1UG26794   8.272   2.482   3.088
    1MUSC Si1UH26795   8.623   2.199   1.614
    1MUSC Si1UI26796   8.265   1.874   3.087
    1MUSC Si1UJ26797   8.096   2.199   2.084
    1MUSC Si1UK26798   8.271   1.874   2.617
    1MUSC Si1UL26799   8.363   2.044   2.084
    1MUSC Si1UM26800   8.524   2.030   2.617
    1MUSC Si1UN26801   8.355   2.044   1.613
    1MUSC Si1UO26802   8.011   2.030   3.088
    1MUSC O04SP26803   8.125   2.485   2.243
    1MUSC O04SQ26804   8.242   2.494   2.458
    1MUSC O04SR26805   8.594   2.485   1.454
    1MUSC O04SS26806   8.294   2.494   3.247
    1MUSC O04ST26807   8.381   2.305   1.446
    1MUSC O04SU26808   7.986   2.674   3.255
    1MUSC O04SV26809   8.338   2.305   2.252
    1MUSC O04SW26810   8.549   2.674   2.449
    1MUSC O04SX26811   8.240   2.554   1.665
    1MUSC O04SY26812   8.127   2.425   3.036
    1MUSC O04SZ26813   8.478   2.554   2.032
    1MUSC O04Sa26814   8.409   2.425   2.669
    1MUSC O04Sb26815   8.219   2.591   2.013
    1MUSC O04Sc26816   8.148   2.388   2.688
    1MUSC O04Sd26817   8.500   2.591   1.685
    1MUSC O04Se26818   8.388   2.388   3.016
    1MUSC O04Sf26819   8.119   2.347   2.013
    1MUSC O04Sg26820   8.248   2.632   2.688
    1MUSC O04Sh26821   8.600   2.347   1.684
    1MUSC O04Si26822   8.288   2.632   3.017
    1MUSC O04Sj26823   8.381   2.663   1.454
    1MUSC O04Sk26824   7.986   2.316   3.247
    1MUSC O04Sl26825   8.338   2.663   2.243
    1MUSC O04Sm26826   8.549   2.316   2.458
    1MUSC O04Sn26827   8.385   2.033   2.243
    1MUSC O04So26828   8.502   2.041   2.458
    1MUSC O04Sp26829   8.333   2.033   1.454
    1MUSC O04Sq26830   8.034   2.041   3.247
    1MUSC O04Sr26831   8.641   1.853   1.446
    1MUSC O04Ss26832   8.247   2.221   3.255
    1MUSC O04St26833   8.078   1.853   2.252
    1MUSC O04Su26834   8.289   2.221   2.449
    1MUSC O04Sv26835   8.501   2.101   1.665
    1MUSC O04Sw26836   8.387   1.972   3.036
    1MUSC O04Sx26837   8.218   2.101   2.032
    1MUSC O04Sy26838   8.149   1.972   2.669
    1MUSC O04Sz26839   8.479   2.139   2.013
    1MUSC O04T026840   8.408   1.935   2.688
    1MUSC O04T126841   8.239   2.139   1.685
    1MUSC O04T226842   8.127   1.935   3.016
    1MUSC O04T326843   8.379   1.895   2.013
    1MUSC O04T426844   8.508   2.179   2.688
    1MUSC O04T526845   8.339   1.895   1.684
    1MUSC O04T626846   8.028   2.179   3.017
    1MUSC O04T726847   8.641   2.211   1.454
    1MUSC O04T826848   8.247   1.863   3.247
    1MUSC O04T926849   8.078   2.211   2.243
    1MUSC O04TA26850   8.289   1.863   2.458
    1MUSC K00HL26851   8.191   3.531   0.845
    1MUSC K00HM26852   8.451   3.078   0.845
    1MUSC Al0kD26853   8.370   3.242   0.343
    1MUSC Al0kE26854   8.363   3.547   0.344
    1MUSC Al0kF26855   8.715   3.242   3.355
    1MUSC Al0kG26856   8.538   3.547   1.346
    1MUSC Al0kH26857   8.630   2.790   0.343
    1MUSC Al0kI26858   8.623   3.095   0.344
    1MUSC Al0kJ26859   8.455   2.790   3.355
    1MUSC Al0kK26860   8.278   3.095   1.346
    1MUSC Si1UP26861   8.545   3.557   3.621
    1MUSC Si1UQ26862   8.188   3.232   1.080
    1MUSC Si1UR26863   8.539   3.557   0.077
    1MUSC Si1US26864   8.714   3.232   0.610
    1MUSC Si1UT26865   8.286   3.402   0.077
    1MUSC Si1UU26866   8.447   3.388   0.610
    1MUSC Si1UV26867   8.799   3.402   3.620
    1MUSC Si1UW26868   8.455   3.388   1.081
    1MUSC Si1UX26869   8.806   3.105   3.621
    1MUSC Si1UY26870   8.448   2.780   1.080
    1MUSC Si1UZ26871   8.279   3.105   0.077
    1MUSC Si1Ua26872   8.454   2.780   0.610
    1MUSC Si1Ub26873   8.546   2.949   0.077
    1MUSC Si1Uc26874   8.707   2.935   0.610
    1MUSC Si1Ud26875   8.538   2.949   3.620
    1MUSC Si1Ue26876   8.194   2.935   1.081
    1MUSC O04TB26877   8.308   3.391   0.236
    1MUSC O04TC26878   8.425   3.399   0.451
    1MUSC O04TD26879   8.777   3.391   3.461
    1MUSC O04TE26880   8.477   3.399   1.240
    1MUSC O04TF26881   8.564   3.211   3.453
    1MUSC O04TG26882   8.169   3.579   1.248
    1MUSC O04TH26883   8.521   3.211   0.245
    1MUSC O04TI26884   8.732   3.579   0.442
    1MUSC O04TJ26885   8.423   3.459   3.672
    1MUSC O04TK26886   8.310   3.330   1.029
    1MUSC O04TL26887   8.661   3.459   0.025
    1MUSC O04TM26888   8.592   3.330   0.662
    1MUSC O04TN26889   8.402   3.496   0.006
    1MUSC O04TO26890   8.331   3.293   0.681
    1MUSC O04TP26891   8.683   3.496   3.692
    1MUSC O04TQ26892   8.571   3.293   1.009
    1MUSC O04TR26893   8.302   3.253   0.006
    1MUSC O04TS26894   8.431   3.537   0.681
    1MUSC O04TT26895   8.783   3.253   3.691
    1MUSC O04TU26896   8.471   3.537   1.010
    1MUSC O04TV26897   8.564   3.569   3.461
    1MUSC O04TW26898   8.169   3.221   1.240
    1MUSC O04TX26899   8.521   3.569   0.236
    1MUSC O04TY26900   8.732   3.221   0.451
    1MUSC O04TZ26901   8.568   2.938   0.236
    1MUSC O04Ta26902   8.685   2.946   0.451
    1MUSC O04Tb26903   8.516   2.938   3.461
    1MUSC O04Tc26904   8.217   2.946   1.240
    1MUSC O04Td26905   8.824   2.758   3.453
    1MUSC O04Te26906   8.430   3.126   1.248
    1MUSC O04Tf26907   8.261   2.758   0.245
    1MUSC O04Tg26908   8.472   3.126   0.442
    1MUSC O04Th26909   8.684   3.007   3.672
    1MUSC O04Ti26910   8.570   2.877   1.029
    1MUSC O04Tj26911   8.401   3.007   0.025
    1MUSC O04Tk26912   8.332   2.877   0.662
    1MUSC O04Tl26913   8.662   3.044   0.006
    1MUSC O04Tm26914   8.591   2.840   0.681
    1MUSC O04Tn26915   8.422   3.044   3.692
    1MUSC O04To26916   8.310   2.840   1.009
    1MUSC O04Tp26917   8.562   2.800   0.006
    1MUSC O04Tq26918   8.691   3.084   0.681
    1MUSC O04Tr26919   8.522   2.800   3.691
    1MUSC O04Ts26920   8.211   3.084   1.010
    1MUSC O04Tt26921   8.824   3.116   3.461
    1MUSC O04Tu26922   8.430   2.768   1.240
    1MUSC O04Tv26923   8.261   3.116   0.236
    1MUSC O04Tw26924   8.472   2.768   0.451
    1MUSC K00HN26925   8.359   3.259   1.849
    1MUSC K00HO26926   8.008   3.531   2.852
    1MUSC K00HP26927   8.099   2.806   1.849
    1MUSC K00HQ26928   8.268   3.078   2.852
    1MUSC Al0kL26929   8.187   3.242   2.350
    1MUSC Al0kM26930   8.180   3.547   2.351
    1MUSC Al0kN26931   8.532   3.242   1.348
    1MUSC Al0kO26932   8.355   3.547   3.353
    1MUSC Al0kP26933   8.447   2.790   2.350
    1MUSC Al0kQ26934   8.440   3.095   2.351
    1MUSC Al0kR26935   8.272   2.790   1.348
    1MUSC Al0kS26936   8.095   3.095   3.353
    1MUSC Si1Uf26937   8.362   3.557   1.614
    1MUSC Si1Ug26938   8.005   3.232   3.087
    1MUSC Si1Uh26939   8.356   3.557   2.084
    1MUSC Si1Ui26940   8.531   3.232   2.617
    1MUSC Si1Uj26941   8.103   3.402   2.084
    1MUSC Si1Uk26942   8.264   3.388   2.617
    1MUSC Si1Ul26943   8.616   3.402   1.613
    1MUSC Si1Um26944   8.272   3.388   3.088
    1MUSC Si1Un26945   8.623   3.105   1.614
    1MUSC Si1Uo26946   8.265   2.780   3.087
    1MUSC Si1Up26947   8.096   3.105   2.084
    1MUSC Si1Uq26948   8.271   2.780   2.617
    1MUSC Si1Ur26949   8.363   2.949   2.084
    1MUSC Si1Us26950   8.524   2.935   2.617
    1MUSC Si1Ut26951   8.355   2.949   1.613
    1MUSC Si1Uu26952   8.011   2.935   3.088
    1MUSC O04Tx26953   8.125   3.391   2.243
    1MUSC O04Ty26954   8.242   3.399   2.458
    1MUSC O04Tz26955   8.594   3.391   1.454
    1MUSC O04U026956   8.294   3.399   3.247
    1MUSC O04U126957   8.381   3.211   1.446
    1MUSC O04U226958   7.986   3.579   3.255
    1MUSC O04U326959   8.338   3.211   2.252
    1MUSC O04U426960   8.549   3.579   2.449
    1MUSC O04U526961   8.240   3.459   1.665
    1MUSC O04U626962   8.127   3.330   3.036
    1MUSC O04U726963   8.478   3.459   2.032
    1MUSC O04U826964   8.409   3.330   2.669
    1MUSC O04U926965   8.219   3.496   2.013
    1MUSC O04UA26966   8.148   3.293   2.688
    1MUSC O04UB26967   8.500   3.496   1.685
    1MUSC O04UC26968   8.388   3.293   3.016
    1MUSC O04UD26969   8.119   3.253   2.013
    1MUSC O04UE26970   8.248   3.537   2.688
    1MUSC O04UF26971   8.600   3.253   1.684
    1MUSC O04UG26972   8.288   3.537   3.017
    1MUSC O04UH26973   8.381   3.569   1.454
    1MUSC O04UI26974   7.986   3.221   3.247
    1MUSC O04UJ26975   8.338   3.569   2.243
    1MUSC O04UK26976   8.549   3.221   2.458
    1MUSC O04UL26977   8.385   2.938   2.243
    1MUSC O04UM26978   8.502   2.946   2.458
    1MUSC O04UN26979   8.333   2.938   1.454
    1MUSC O04UO26980   8.034   2.946   3.247
    1MUSC O04UP26981   8.641   2.758   1.446
    1MUSC O04UQ26982   8.247   3.126   3.255
    1MUSC O04UR26983   8.078   2.758   2.252
    1MUSC O04US26984   8.289   3.126   2.449
    1MUSC O04UT26985   8.501   3.007   1.665
    1MUSC O04UU26986   8.387   2.877   3.036
    1MUSC O04UV26987   8.218   3.007   2.032
    1MUSC O04UW26988   8.149   2.877   2.669
    1MUSC O04UX26989   8.479   3.044   2.013
    1MUSC O04UY26990   8.408   2.840   2.688
    1MUSC O04UZ26991   8.239   3.044   1.685
    1MUSC O04Ua26992   8.127   2.840   3.016
    1MUSC O04Ub26993   8.379   2.800   2.013
    1MUSC O04Uc26994   8.508   3.084   2.688
    1MUSC O04Ud26995   8.339   2.800   1.684
    1MUSC O04Ue26996   8.028   3.084   3.017
    1MUSC O04Uf26997   8.641   3.116   1.454
    1MUSC O04Ug26998   8.247   2.768   3.247
    1MUSC O04Uh26999   8.078   3.116   2.243
    1MUSC O04Ui27000   8.289   2.768   2.458
    1MUSC K00HR27001   8.191   4.436   0.845
    1MUSC K00HS27002   8.451   3.983   0.845
    1MUSC Al0kT27003   8.370   4.147   0.343
    1MUSC Al0kU27004   8.363   4.453   0.344
    1MUSC Al0kV27005   8.715   4.147   3.355
    1MUSC Al0kW27006   8.538   4.453   1.346
    1MUSC Al0kX27007   8.630   3.695   0.343
    1MUSC Al0kY27008   8.623   4.000   0.344
    1MUSC Al0kZ27009   8.455   3.695   3.355
    1MUSC Al0ka27010   8.278   4.000   1.346
    1MUSC Si1Uv27011   8.545   4.462   3.621
    1MUSC Si1Uw27012   8.188   4.138   1.080
    1MUSC Si1Ux27013   8.539   4.462   0.077
    1MUSC Si1Uy27014   8.714   4.138   0.610
    1MUSC Si1Uz27015   8.286   4.307   0.077
    1MUSC Si1V027016   8.447   4.293   0.610
    1MUSC Si1V127017   8.799   4.307   3.620
    1MUSC Si1V227018   8.455   4.293   1.081
    1MUSC Si1V327019   8.806   4.010   3.621
    1MUSC Si1V427020   8.448   3.685   1.080
    1MUSC Si1V527021   8.279   4.010   0.077
    1MUSC Si1V627022   8.454   3.685   0.610
    1MUSC Si1V727023   8.546   3.855   0.077
    1MUSC Si1V827024   8.707   3.840   0.610
    1MUSC Si1V927025   8.538   3.855   3.620
    1MUSC Si1VA27026   8.194   3.840   1.081
    1MUSC O04Uj27027   8.308   4.296   0.236
    1MUSC O04Uk27028   8.425   4.304   0.451
    1MUSC O04Ul27029   8.777   4.296   3.461
    1MUSC O04Um27030   8.477   4.304   1.240
    1MUSC O04Un27031   8.564   4.116   3.453
    1MUSC O04Uo27032   8.169   4.484   1.248
    1MUSC O04Up27033   8.521   4.116   0.245
    1MUSC O04Uq27034   8.732   4.484   0.442
    1MUSC O04Ur27035   8.423   4.365   3.672
    1MUSC O04Us27036   8.310   4.235   1.029
    1MUSC O04Ut27037   8.661   4.365   0.025
    1MUSC O04Uu27038   8.592   4.235   0.662
    1MUSC O04Uv27039   8.402   4.402   0.006
    1MUSC O04Uw27040   8.331   4.198   0.681
    1MUSC O04Ux27041   8.683   4.402   3.692
    1MUSC O04Uy27042   8.571   4.198   1.009
    1MUSC O04Uz27043   8.302   4.158   0.006
    1MUSC O04V027044   8.431   4.442   0.681
    1MUSC O04V127045   8.783   4.158   3.691
    1MUSC O04V227046   8.471   4.442   1.010
    1MUSC O04V327047   8.564   4.474   3.461
    1MUSC O04V427048   8.169   4.126   1.240
    1MUSC O04V527049   8.521   4.474   0.236
    1MUSC O04V627050   8.732   4.126   0.451
    1MUSC O04V727051   8.568   3.843   0.236
    1MUSC O04V827052   8.685   3.852   0.451
    1MUSC O04V927053   8.516   3.843   3.461
    1MUSC O04VA27054   8.217   3.852   1.240
    1MUSC O04VB27055   8.824   3.663   3.453
    1MUSC O04VC27056   8.430   4.031   1.248
    1MUSC O04VD27057   8.261   3.663   0.245
    1MUSC O04VE27058   8.472   4.031   0.442
    1MUSC O04VF27059   8.684   3.912   3.672
    1MUSC O04VG27060   8.570   3.783   1.029
    1MUSC O04VH27061   8.401   3.912   0.025
    1MUSC O04VI27062   8.332   3.783   0.662
    1MUSC O04VJ27063   8.662   3.949   0.006
    1MUSC O04VK27064   8.591   3.746   0.681
    1MUSC O04VL27065   8.422   3.949   3.692
    1MUSC O04VM27066   8.310   3.746   1.009
    1MUSC O04VN27067   8.562   3.705   0.006
    1MUSC O04VO27068   8.691   3.989   0.681
    1MUSC O04VP27069   8.522   3.705   3.691
    1MUSC O04VQ27070   8.211   3.989   1.010
    1MUSC O04VR27071   8.824   4.021   3.461
    1MUSC O04VS27072   8.430   3.673   1.240
    1MUSC O04VT27073   8.261   4.021   0.236
    1MUSC O04VU27074   8.472   3.673   0.451
    1MUSC K00HT27075   8.359   4.164   1.849
    1MUSC K00HU27076   8.008   4.436   2.852
    1MUSC K00HV27077   8.099   3.711   1.849
    1MUSC K00HW27078   8.268   3.983   2.852
    1MUSC Al0kb27079   8.187   4.147   2.350
    1MUSC Al0kc27080   8.180   4.453   2.351
    1MUSC Al0kd27081   8.532   4.147   1.348
    1MUSC Al0ke27082   8.355   4.453   3.353
    1MUSC Al0kf27083   8.447   3.695   2.350
    1MUSC Al0kg27084   8.440   4.000   2.351
    1MUSC Al0kh27085   8.272   3.695   1.348
    1MUSC Al0ki27086   8.095   4.000   3.353
    1MUSC Si1VB27087   8.362   4.462   1.614
    1MUSC Si1VC27088   8.005   4.138   3.087
    1MUSC Si1VD27089   8.356   4.462   2.084
    1MUSC Si1VE27090   8.531   4.138   2.617
    1MUSC Si1VF27091   8.103   4.307   2.084
    1MUSC Si1VG27092   8.264   4.293   2.617
    1MUSC Si1VH27093   8.616   4.307   1.613
    1MUSC Si1VI27094   8.272   4.293   3.088
    1MUSC Si1VJ27095   8.623   4.010   1.614
    1MUSC Si1VK27096   8.265   3.685   3.087
    1MUSC Si1VL27097   8.096   4.010   2.084
    1MUSC Si1VM27098   8.271   3.685   2.617
    1MUSC Si1VN27099   8.363   3.855   2.084
    1MUSC Si1VO27100   8.524   3.840   2.617
    1MUSC Si1VP27101   8.355   3.855   1.613
    1MUSC Si1VQ27102   8.011   3.840   3.088
    1MUSC O04VV27103   8.125   4.296   2.243
    1MUSC O04VW27104   8.242   4.304   2.458
    1MUSC O04VX27105   8.594   4.296   1.454
    1MUSC O04VY27106   8.294   4.304   3.247
    1MUSC O04VZ27107   8.381   4.116   1.446
    1MUSC O04Va27108   7.986   4.484   3.255
    1MUSC O04Vb27109   8.338   4.116   2.252
    1MUSC O04Vc27110   8.549   4.484   2.449
    1MUSC O04Vd27111   8.240   4.365   1.665
    1MUSC O04Ve27112   8.127   4.235   3.036
    1MUSC O04Vf27113   8.478   4.365   2.032
    1MUSC O04Vg27114   8.409   4.235   2.669
    1MUSC O04Vh27115   8.219   4.402   2.013
    1MUSC O04Vi27116   8.148   4.198   2.688
    1MUSC O04Vj27117   8.500   4.402   1.685
    1MUSC O04Vk27118   8.388   4.198   3.016
    1MUSC O04Vl27119   8.119   4.158   2.013
    1MUSC O04Vm27120   8.248   4.442   2.688
    1MUSC O04Vn27121   8.600   4.158   1.684
    1MUSC O04Vo27122   8.288   4.442   3.017
    1MUSC O04Vp27123   8.381   4.474   1.454
    1MUSC O04Vq27124   7.986   4.126   3.247
    1MUSC O04Vr27125   8.338   4.474   2.243
    1MUSC O04Vs27126   8.549   4.126   2.458
    1MUSC O04Vt27127   8.385   3.843   2.243
    1MUSC O04Vu27128   8.502   3.852   2.458
    1MUSC O04Vv27129   8.333   3.843   1.454
    1MUSC O04Vw27130   8.034   3.852   3.247
    1MUSC O04Vx27131   8.641   3.663   1.446
    1MUSC O04Vy27132   8.247   4.031   3.255
    1MUSC O04Vz27133   8.078   3.663   2.252
    1MUSC O04W027134   8.289   4.031   2.449
    1MUSC O04W127135   8.501   3.912   1.665
    1MUSC O04W227136   8.387   3.783   3.036
    1MUSC O04W327137   8.218   3.912   2.032
    1MUSC O04W427138   8.149   3.783   2.669
    1MUSC O04W527139   8.479   3.949   2.013
    1MUSC O04W627140   8.408   3.746   2.688
    1MUSC O04W727141   8.239   3.949   1.685
    1MUSC O04W827142   8.127   3.746   3.016
    1MUSC O04W927143   8.379   3.705   2.013
    1MUSC O04WA27144   8.508   3.989   2.688
    1MUSC O04WB27145   8.339   3.705   1.684
    1MUSC O04WC27146   8.028   3.989   3.017
    1MUSC O04WD27147   8.641   4.021   1.454
    1MUSC O04WE27148   8.247   3.673   3.247
    1MUSC O04WF27149   8.078   4.021   2.243
    1MUSC O04WG27150   8.289   3.673   2.458
    1MUSC K00HX27151   8.191   5.341   0.845
    1MUSC K00HY27152   8.451   4.889   0.845
    1MUSC Al0kj27153   8.370   5.053   0.343
    1MUSC Al0kk27154   8.363   5.358   0.344
    1MUSC Al0kl27155   8.715   5.053   3.355
    1MUSC Al0km27156   8.538   5.358   1.346
    1MUSC Al0kn27157   8.630   4.600   0.343
    1MUSC Al0ko27158   8.623   4.905   0.344
    1MUSC Al0kp27159   8.455   4.600   3.355
    1MUSC Al0kq27160   8.278   4.905   1.346
    1MUSC Si1VR27161   8.545   5.368   3.621
    1MUSC Si1VS27162   8.188   5.043   1.080
    1MUSC Si1VT27163   8.539   5.368   0.077
    1MUSC Si1VU27164   8.714   5.043   0.610
    1MUSC Si1VV27165   8.286   5.212   0.077
    1MUSC Si1VW27166   8.447   5.198   0.610
    1MUSC Si1VX27167   8.799   5.212   3.620
    1MUSC Si1VY27168   8.455   5.198   1.081
    1MUSC Si1VZ27169   8.806   4.915   3.621
    1MUSC Si1Va27170   8.448   4.590   1.080
    1MUSC Si1Vb27171   8.279   4.915   0.077
    1MUSC Si1Vc27172   8.454   4.590   0.610
    1MUSC Si1Vd27173   8.546   4.760   0.077
    1MUSC Si1Ve27174   8.707   4.746   0.610
    1MUSC Si1Vf27175   8.538   4.760   3.620
    1MUSC Si1Vg27176   8.194   4.746   1.081
    1MUSC O04WH27177   8.308   5.201   0.236
    1MUSC O04WI27178   8.425   5.209   0.451
    1MUSC O04WJ27179   8.777   5.201   3.461
    1MUSC O04WK27180   8.477   5.209   1.240
    1MUSC O04WL27181   8.564   5.021   3.453
    1MUSC O04WM27182   8.169   5.389   1.248
    1MUSC O04WN27183   8.521   5.021   0.245
    1MUSC O04WO27184   8.732   5.389   0.442
    1MUSC O04WP27185   8.423   5.270   3.672
    1MUSC O04WQ27186   8.310   5.141   1.029
    1MUSC O04WR27187   8.661   5.270   0.025
    1MUSC O04WS27188   8.592   5.141   0.662
    1MUSC O04WT27189   8.402   5.307   0.006
    1MUSC O04WU27190   8.331   5.104   0.681
    1MUSC O04WV27191   8.683   5.307   3.692
    1MUSC O04WW27192   8.571   5.104   1.009
    1MUSC O04WX27193   8.302   5.063   0.006
    1MUSC O04WY27194   8.431   5.347   0.681
    1MUSC O04WZ27195   8.783   5.063   3.691
    1MUSC O04Wa27196   8.471   5.347   1.010
    1MUSC O04Wb27197   8.564   5.379   3.461
    1MUSC O04Wc27198   8.169   5.031   1.240
    1MUSC O04Wd27199   8.521   5.379   0.236
    1MUSC O04We27200   8.732   5.031   0.451
    1MUSC O04Wf27201   8.568   4.749   0.236
    1MUSC O04Wg27202   8.685   4.757   0.451
    1MUSC O04Wh27203   8.516   4.749   3.461
    1MUSC O04Wi27204   8.217   4.757   1.240
    1MUSC O04Wj27205   8.824   4.569   3.453
    1MUSC O04Wk27206   8.430   4.937   1.248
    1MUSC O04Wl27207   8.261   4.569   0.245
    1MUSC O04Wm27208   8.472   4.937   0.442
    1MUSC O04Wn27209   8.684   4.817   3.672
    1MUSC O04Wo27210   8.570   4.688   1.029
    1MUSC O04Wp27211   8.401   4.817   0.025
    1MUSC O04Wq27212   8.332   4.688   0.662
    1MUSC O04Wr27213   8.662   4.854   0.006
    1MUSC O04Ws27214   8.591   4.651   0.681
    1MUSC O04Wt27215   8.422   4.854   3.692
    1MUSC O04Wu27216   8.310   4.651   1.009
    1MUSC O04Wv27217   8.562   4.611   0.006
    1MUSC O04Ww27218   8.691   4.895   0.681
    1MUSC O04Wx27219   8.522   4.611   3.691
    1MUSC O04Wy27220   8.211   4.895   1.010
    1MUSC O04Wz27221   8.824   4.927   3.461
    1MUSC O04X027222   8.430   4.579   1.240
    1MUSC O04X127223   8.261   4.927   0.236
    1MUSC O04X227224   8.472   4.579   0.451
    1MUSC K00HZ27225   8.359   5.069   1.849
    1MUSC K00Ha27226   8.008   5.341   2.852
    1MUSC K00Hb27227   8.099   4.617   1.849
    1MUSC K00Hc27228   8.268   4.889   2.852
    1MUSC Al0kr27229   8.187   5.053   2.350
    1MUSC Al0ks27230   8.180   5.358   2.351
    1MUSC Al0kt27231   8.532   5.053   1.348
    1MUSC Al0ku27232   8.355   5.358   3.353
    1MUSC Al0kv27233   8.447   4.600   2.350
    1MUSC Al0kw27234   8.440   4.905   2.351
    1MUSC Al0kx27235   8.272   4.600   1.348
    1MUSC Al0ky27236   8.095   4.905   3.353
    1MUSC Si1Vh27237   8.362   5.368   1.614
    1MUSC Si1Vi27238   8.005   5.043   3.087
    1MUSC Si1Vj27239   8.356   5.368   2.084
    1MUSC Si1Vk27240   8.531   5.043   2.617
    1MUSC Si1Vl27241   8.103   5.212   2.084
    1MUSC Si1Vm27242   8.264   5.198   2.617
    1MUSC Si1Vn27243   8.616   5.212   1.613
    1MUSC Si1Vo27244   8.272   5.198   3.088
    1MUSC Si1Vp27245   8.623   4.915   1.614
    1MUSC Si1Vq27246   8.265   4.590   3.087
    1MUSC Si1Vr27247   8.096   4.915   2.084
    1MUSC Si1Vs27248   8.271   4.590   2.617
    1MUSC Si1Vt27249   8.363   4.760   2.084
    1MUSC Si1Vu27250   8.524   4.746   2.617
    1MUSC Si1Vv27251   8.355   4.760   1.613
    1MUSC Si1Vw27252   8.011   4.746   3.088
    1MUSC O04X327253   8.125   5.201   2.243
    1MUSC O04X427254   8.242   5.209   2.458
    1MUSC O04X527255   8.594   5.201   1.454
    1MUSC O04X627256   8.294   5.209   3.247
    1MUSC O04X727257   8.381   5.021   1.446
    1MUSC O04X827258   7.986   5.389   3.255
    1MUSC O04X927259   8.338   5.021   2.252
    1MUSC O04XA27260   8.549   5.389   2.449
    1MUSC O04XB27261   8.240   5.270   1.665
    1MUSC O04XC27262   8.127   5.141   3.036
    1MUSC O04XD27263   8.478   5.270   2.032
    1MUSC O04XE27264   8.409   5.141   2.669
    1MUSC O04XF27265   8.219   5.307   2.013
    1MUSC O04XG27266   8.148   5.104   2.688
    1MUSC O04XH27267   8.500   5.307   1.685
    1MUSC O04XI27268   8.388   5.104   3.016
    1MUSC O04XJ27269   8.119   5.063   2.013
    1MUSC O04XK27270   8.248   5.347   2.688
    1MUSC O04XL27271   8.600   5.063   1.684
    1MUSC O04XM27272   8.288   5.347   3.017
    1MUSC O04XN27273   8.381   5.379   1.454
    1MUSC O04XO27274   7.986   5.031   3.247
    1MUSC O04XP27275   8.338   5.379   2.243
    1MUSC O04XQ27276   8.549   5.031   2.458
    1MUSC O04XR27277   8.385   4.749   2.243
    1MUSC O04XS27278   8.502   4.757   2.458
    1MUSC O04XT27279   8.333   4.749   1.454
    1MUSC O04XU27280   8.034   4.757   3.247
    1MUSC O04XV27281   8.641   4.569   1.446
    1MUSC O04XW27282   8.247   4.937   3.255
    1MUSC O04XX27283   8.078   4.569   2.252
    1MUSC O04XY27284   8.289   4.937   2.449
    1MUSC O04XZ27285   8.501   4.817   1.665
    1MUSC O04Xa27286   8.387   4.688   3.036
    1MUSC O04Xb27287   8.218   4.817   2.032
    1MUSC O04Xc27288   8.149   4.688   2.669
    1MUSC O04Xd27289   8.479   4.854   2.013
    1MUSC O04Xe27290   8.408   4.651   2.688
    1MUSC O04Xf27291   8.239   4.854   1.685
    1MUSC O04Xg27292   8.127   4.651   3.016
    1MUSC O04Xh27293   8.379   4.611   2.013
    1MUSC O04Xi27294   8.508   4.895   2.688
    1MUSC O04Xj27295   8.339   4.611   1.684
    1MUSC O04Xk27296   8.028   4.895   3.017
    1MUSC O04Xl27297   8.641   4.927   1.454
    1MUSC O04Xm27298   8.247   4.579   3.247
    1MUSC O04Xn27299   8.078   4.927   2.243
    1MUSC O04Xo27300   8.289   4.579   2.458
    1MUSC K00Hd27301   8.191   6.247   0.845
    1MUSC K00He27302   8.451   5.794   0.845
    1MUSC Al0kz27303   8.370   5.958   0.343
    1MUSC Al0l027304   8.363   6.263   0.344
    1MUSC Al0l127305   8.715   5.958   3.355
    1MUSC Al0l227306   8.538   6.263   1.346
    1MUSC Al0l327307   8.630   5.505   0.343
    1MUSC Al0l427308   8.623   5.810   0.344
    1MUSC Al0l527309   8.455   5.505   3.355
    1MUSC Al0l627310   8.278   5.810   1.346
    1MUSC Si1Vx27311   8.545   6.273   3.621
    1MUSC Si1Vy27312   8.188   5.948   1.080
    1MUSC Si1Vz27313   8.539   6.273   0.077
    1MUSC Si1W027314   8.714   5.948   0.610
    1MUSC Si1W127315   8.286   6.118   0.077
    1MUSC Si1W227316   8.447   6.103   0.610
    1MUSC Si1W327317   8.799   6.118   3.620
    1MUSC Si1W427318   8.455   6.103   1.081
    1MUSC Si1W527319   8.806   5.820   3.621
    1MUSC Si1W627320   8.448   5.495   1.080
    1MUSC Si1W727321   8.279   5.820   0.077
    1MUSC Si1W827322   8.454   5.495   0.610
    1MUSC Si1W927323   8.546   5.665   0.077
    1MUSC Si1WA27324   8.707   5.651   0.610
    1MUSC Si1WB27325   8.538   5.665   3.620
    1MUSC Si1WC27326   8.194   5.651   1.081
    1MUSC O04Xp27327   8.308   6.106   0.236
    1MUSC O04Xq27328   8.425   6.115   0.451
    1MUSC O04Xr27329   8.777   6.106   3.461
    1MUSC O04Xs27330   8.477   6.115   1.240
    1MUSC O04Xt27331   8.564   5.927   3.453
    1MUSC O04Xu27332   8.169   6.295   1.248
    1MUSC O04Xv27333   8.521   5.927   0.245
    1MUSC O04Xw27334   8.732   6.295   0.442
    1MUSC O04Xx27335   8.423   6.175   3.672
    1MUSC O04Xy27336   8.310   6.046   1.029
    1MUSC O04Xz27337   8.661   6.175   0.025
    1MUSC O04Y027338   8.592   6.046   0.662
    1MUSC O04Y127339   8.402   6.212   0.006
    1MUSC O04Y227340   8.331   6.009   0.681
    1MUSC O04Y327341   8.683   6.212   3.692
    1MUSC O04Y427342   8.571   6.009   1.009
    1MUSC O04Y527343   8.302   5.969   0.006
    1MUSC O04Y627344   8.431   6.253   0.681
    1MUSC O04Y727345   8.783   5.969   3.691
    1MUSC O04Y827346   8.471   6.253   1.010
    1MUSC O04Y927347   8.564   6.285   3.461
    1MUSC O04YA27348   8.169   5.937   1.240
    1MUSC O04YB27349   8.521   6.285   0.236
    1MUSC O04YC27350   8.732   5.937   0.451
    1MUSC O04YD27351   8.568   5.654   0.236
    1MUSC O04YE27352   8.685   5.662   0.451
    1MUSC O04YF27353   8.516   5.654   3.461
    1MUSC O04YG27354   8.217   5.662   1.240
    1MUSC O04YH27355   8.824   5.474   3.453
    1MUSC O04YI27356   8.430   5.842   1.248
    1MUSC O04YJ27357   8.261   5.474   0.245
    1MUSC O04YK27358   8.472   5.842   0.442
    1MUSC O04YL27359   8.684   5.723   3.672
    1MUSC O04YM27360   8.570   5.593   1.029
    1MUSC O04YN27361   8.401   5.723   0.025
    1MUSC O04YO27362   8.332   5.593   0.662
    1MUSC O04YP27363   8.662   5.760   0.006
    1MUSC O04YQ27364   8.591   5.556   0.681
    1MUSC O04YR27365   8.422   5.760   3.692
    1MUSC O04YS27366   8.310   5.556   1.009
    1MUSC O04YT27367   8.562   5.516   0.006
    1MUSC O04YU27368   8.691   5.800   0.681
    1MUSC O04YV27369   8.522   5.516   3.691
    1MUSC O04YW27370   8.211   5.800   1.010
    1MUSC O04YX27371   8.824   5.832   3.461
    1MUSC O04YY27372   8.430   5.484   1.240
    1MUSC O04YZ27373   8.261   5.832   0.236
    1MUSC O04Ya27374   8.472   5.484   0.451
    1MUSC K00Hf27375   8.359   5.975   1.849
    1MUSC K00Hg27376   8.008   6.247   2.852
    1MUSC K00Hh27377   8.099   5.522   1.849
    1MUSC K00Hi27378   8.268   5.794   2.852
    1MUSC Al0l727379   8.187   5.958   2.350
    1MUSC Al0l827380   8.180   6.263   2.351
    1MUSC Al0l927381   8.532   5.958   1.348
    1MUSC Al0lA27382   8.355   6.263   3.353
    1MUSC Al0lB27383   8.447   5.505   2.350
    1MUSC Al0lC27384   8.440   5.810   2.351
    1MUSC Al0lD27385   8.272   5.505   1.348
    1MUSC Al0lE27386   8.095   5.810   3.353
    1MUSC Si1WD27387   8.362   6.273   1.614
    1MUSC Si1WE27388   8.005   5.948   3.087
    1MUSC Si1WF27389   8.356   6.273   2.084
    1MUSC Si1WG27390   8.531   5.948   2.617
    1MUSC Si1WH27391   8.103   6.118   2.084
    1MUSC Si1WI27392   8.264   6.103   2.617
    1MUSC Si1WJ27393   8.616   6.118   1.613
    1MUSC Si1WK27394   8.272   6.103   3.088
    1MUSC Si1WL27395   8.623   5.820   1.614
    1MUSC Si1WM27396   8.265   5.495   3.087
    1MUSC Si1WN27397   8.096   5.820   2.084
    1MUSC Si1WO27398   8.271   5.495   2.617
    1MUSC Si1WP27399   8.363   5.665   2.084
    1MUSC Si1WQ27400   8.524   5.651   2.617
    1MUSC Si1WR27401   8.355   5.665   1.613
    1MUSC Si1WS27402   8.011   5.651   3.088
    1MUSC O04Yb27403   8.125   6.106   2.243
    1MUSC O04Yc27404   8.242   6.115   2.458
    1MUSC O04Yd27405   8.594   6.106   1.454
    1MUSC O04Ye27406   8.294   6.115   3.247
    1MUSC O04Yf27407   8.381   5.927   1.446
    1MUSC O04Yg27408   7.986   6.295   3.255
    1MUSC O04Yh27409   8.338   5.927   2.252
    1MUSC O04Yi27410   8.549   6.295   2.449
    1MUSC O04Yj27411   8.240   6.175   1.665
    1MUSC O04Yk27412   8.127   6.046   3.036
    1MUSC O04Yl27413   8.478   6.175   2.032
    1MUSC O04Ym27414   8.409   6.046   2.669
    1MUSC O04Yn27415   8.219   6.212   2.013
    1MUSC O04Yo27416   8.148   6.009   2.688
    1MUSC O04Yp27417   8.500   6.212   1.685
    1MUSC O04Yq27418   8.388   6.009   3.016
    1MUSC O04Yr27419   8.119   5.969   2.013
    1MUSC O04Ys27420   8.248   6.253   2.688
    1MUSC O04Yt27421   8.600   5.969   1.684
    1MUSC O04Yu27422   8.288   6.253   3.017
    1MUSC O04Yv27423   8.381   6.285   1.454
    1MUSC O04Yw27424   7.986   5.937   3.247
    1MUSC O04Yx27425   8.338   6.285   2.243
    1MUSC O04Yy27426   8.549   5.937   2.458
    1MUSC O04Yz27427   8.385   5.654   2.243
    1MUSC O04Z027428   8.502   5.662   2.458
    1MUSC O04Z127429   8.333   5.654   1.454
    1MUSC O04Z227430   8.034   5.662   3.247
    1MUSC O04Z327431   8.641   5.474   1.446
    1MUSC O04Z427432   8.247   5.842   3.255
    1MUSC O04Z527433   8.078   5.474   2.252
    1MUSC O04Z627434   8.289   5.842   2.449
    1MUSC O04Z727435   8.501   5.723   1.665
    1MUSC O04Z827436   8.387   5.593   3.036
    1MUSC O04Z927437   8.218   5.723   2.032
    1MUSC O04ZA27438   8.149   5.593   2.669
    1MUSC O04ZB27439   8.479   5.760   2.013
    1MUSC O04ZC27440   8.408   5.556   2.688
    1MUSC O04ZD27441   8.239   5.760   1.685
    1MUSC O04ZE27442   8.127   5.556   3.016
    1MUSC O04ZF27443   8.379   5.516   2.013
    1MUSC O04ZG27444   8.508   5.800   2.688
    1MUSC O04ZH27445   8.339   5.516   1.684
    1MUSC O04ZI27446   8.028   5.800   3.017
    1MUSC O04ZJ27447   8.641   5.832   1.454
    1MUSC O04ZK27448   8.247   5.484   3.247
    1MUSC O04ZL27449   8.078   5.832   2.243
    1MUSC O04ZM27450   8.289   5.484   2.458
    1MUSC K00Hj27451   8.191   7.152   0.845
    1MUSC K00Hk27452   8.451   6.699   0.845
    1MUSC Al0lF27453   8.370   6.863   0.343
    1MUSC Al0lG27454   8.363   7.168   0.344
    1MUSC Al0lH27455   8.715   6.863   3.355
    1MUSC Al0lI27456   8.538   7.168   1.346
    1MUSC Al0lJ27457   8.630   6.411   0.343
    1MUSC Al0lK27458   8.623   6.716   0.344
    1MUSC Al0lL27459   8.455   6.411   3.355
    1MUSC Al0lM27460   8.278   6.716   1.346
    1MUSC Si1WT27461   8.545   7.178   3.621
    1MUSC Si1WU27462   8.188   6.853   1.080
    1MUSC Si1WV27463   8.539   7.178   0.077
    1MUSC Si1WW27464   8.714   6.853   0.610
    1MUSC Si1WX27465   8.286   7.023   0.077
    1MUSC Si1WY27466   8.447   7.009   0.610
    1MUSC Si1WZ27467   8.799   7.023   3.620
    1MUSC Si1Wa27468   8.455   7.009   1.081
    1MUSC Si1Wb27469   8.806   6.726   3.621
    1MUSC Si1Wc27470   8.448   6.401   1.080
    1MUSC Si1Wd27471   8.279   6.726   0.077
    1MUSC Si1We27472   8.454   6.401   0.610
    1MUSC Si1Wf27473   8.546   6.570   0.077
    1MUSC Si1Wg27474   8.707   6.556   0.610
    1MUSC Si1Wh27475   8.538   6.570   3.620
    1MUSC Si1Wi27476   8.194   6.556   1.081
    1MUSC O04ZN27477   8.308   7.012   0.236
    1MUSC O04ZO27478   8.425   7.020   0.451
    1MUSC O04ZP27479   8.777   7.012   3.461
    1MUSC O04ZQ27480   8.477   7.020   1.240
    1MUSC O04ZR27481   8.564   6.832   3.453
    1MUSC O04ZS27482   8.169   7.200   1.248
    1MUSC O04ZT27483   8.521   6.832   0.245
    1MUSC O04ZU27484   8.732   7.200   0.442
    1MUSC O04ZV27485   8.423   7.080   3.672
    1MUSC O04ZW27486   8.310   6.951   1.029
    1MUSC O04ZX27487   8.661   7.080   0.025
    1MUSC O04ZY27488   8.592   6.951   0.662
    1MUSC O04ZZ27489   8.402   7.117   0.006
    1MUSC O04Za27490   8.331   6.914   0.681
    1MUSC O04Zb27491   8.683   7.117   3.692
    1MUSC O04Zc27492   8.571   6.914   1.009
    1MUSC O04Zd27493   8.302   6.874   0.006
    1MUSC O04Ze27494   8.431   7.158   0.681
    1MUSC O04Zf27495   8.783   6.874   3.691
    1MUSC O04Zg27496   8.471   7.158   1.010
    1MUSC O04Zh27497   8.564   7.190   3.461
    1MUSC O04Zi27498   8.169   6.842   1.240
    1MUSC O04Zj27499   8.521   7.190   0.236
    1MUSC O04Zk27500   8.732   6.842   0.451
    1MUSC O04Zl27501   8.568   6.559   0.236
    1MUSC O04Zm27502   8.685   6.567   0.451
    1MUSC O04Zn27503   8.516   6.559   3.461
    1MUSC O04Zo27504   8.217   6.567   1.240
    1MUSC O04Zp27505   8.824   6.379   3.453
    1MUSC O04Zq27506   8.430   6.747   1.248
    1MUSC O04Zr27507   8.261   6.379   0.245
    1MUSC O04Zs27508   8.472   6.747   0.442
    1MUSC O04Zt27509   8.684   6.628   3.672
    1MUSC O04Zu27510   8.570   6.499   1.029
    1MUSC O04Zv27511   8.401   6.628   0.025
    1MUSC O04Zw27512   8.332   6.499   0.662
    1MUSC O04Zx27513   8.662   6.665   0.006
    1MUSC O04Zy27514   8.591   6.462   0.681
    1MUSC O04Zz27515   8.422   6.665   3.692
    1MUSC O04a027516   8.310   6.462   1.009
    1MUSC O04a127517   8.562   6.421   0.006
    1MUSC O04a227518   8.691   6.705   0.681
    1MUSC O04a327519   8.522   6.421   3.691
    1MUSC O04a427520   8.211   6.705   1.010
    1MUSC O04a527521   8.824   6.737   3.461
    1MUSC O04a627522   8.430   6.389   1.240
    1MUSC O04a727523   8.261   6.737   0.236
    1MUSC O04a827524   8.472   6.389   0.451
    1MUSC K00Hl27525   8.359   6.880   1.849
    1MUSC K00Hm27526   8.008   7.152   2.852
    1MUSC K00Hn27527   8.099   6.427   1.849
    1MUSC K00Ho27528   8.268   6.699   2.852
    1MUSC Al0lN27529   8.187   6.863   2.350
    1MUSC Al0lO27530   8.180   7.168   2.351
    1MUSC Al0lP27531   8.532   6.863   1.348
    1MUSC Al0lQ27532   8.355   7.168   3.353
    1MUSC Al0lR27533   8.447   6.411   2.350
    1MUSC Al0lS27534   8.440   6.716   2.351
    1MUSC Al0lT27535   8.272   6.411   1.348
    1MUSC Al0lU27536   8.095   6.716   3.353
    1MUSC Si1Wj27537   8.362   7.178   1.614
    1MUSC Si1Wk27538   8.005   6.853   3.087
    1MUSC Si1Wl27539   8.356   7.178   2.084
    1MUSC Si1Wm27540   8.531   6.853   2.617
    1MUSC Si1Wn27541   8.103   7.023   2.084
    1MUSC Si1Wo27542   8.264   7.009   2.617
    1MUSC Si1Wp27543   8.616   7.023   1.613
    1MUSC Si1Wq27544   8.272   7.009   3.088
    1MUSC Si1Wr27545   8.623   6.726   1.614
    1MUSC Si1Ws27546   8.265   6.401   3.087
    1MUSC Si1Wt27547   8.096   6.726   2.084
    1MUSC Si1Wu27548   8.271   6.401   2.617
    1MUSC Si1Wv27549   8.363   6.570   2.084
    1MUSC Si1Ww27550   8.524   6.556   2.617
    1MUSC Si1Wx27551   8.355   6.570   1.613
    1MUSC Si1Wy27552   8.011   6.556   3.088
    1MUSC O04a927553   8.125   7.012   2.243
    1MUSC O04aA27554   8.242   7.020   2.458
    1MUSC O04aB27555   8.594   7.012   1.454
    1MUSC O04aC27556   8.294   7.020   3.247
    1MUSC O04aD27557   8.381   6.832   1.446
    1MUSC O04aE27558   7.986   7.200   3.255
    1MUSC O04aF27559   8.338   6.832   2.252
    1MUSC O04aG27560   8.549   7.200   2.449
    1MUSC O04aH27561   8.240   7.080   1.665
    1MUSC O04aI27562   8.127   6.951   3.036
    1MUSC O04aJ27563   8.478   7.080   2.032
    1MUSC O04aK27564   8.409   6.951   2.669
    1MUSC O04aL27565   8.219   7.117   2.013
    1MUSC O04aM27566   8.148   6.914   2.688
    1MUSC O04aN27567   8.500   7.117   1.685
    1MUSC O04aO27568   8.388   6.914   3.016
    1MUSC O04aP27569   8.119   6.874   2.013
    1MUSC O04aQ27570   8.248   7.158   2.688
    1MUSC O04aR27571   8.600   6.874   1.684
    1MUSC O04aS27572   8.288   7.158   3.017
    1MUSC O04aT27573   8.381   7.190   1.454
    1MUSC O04aU27574   7.986   6.842   3.247
    1MUSC O04aV27575   8.338   7.190   2.243
    1MUSC O04aW27576   8.549   6.842   2.458
    1MUSC O04aX27577   8.385   6.559   2.243
    1MUSC O04aY27578   8.502   6.567   2.458
    1MUSC O04aZ27579   8.333   6.559   1.454
    1MUSC O04aa27580   8.034   6.567   3.247
    1MUSC O04ab27581   8.641   6.379   1.446
    1MUSC O04ac27582   8.247   6.747   3.255
    1MUSC O04ad27583   8.078   6.379   2.252
    1MUSC O04ae27584   8.289   6.747   2.449
    1MUSC O04af27585   8.501   6.628   1.665
    1MUSC O04ag27586   8.387   6.499   3.036
    1MUSC O04ah27587   8.218   6.628   2.032
    1MUSC O04ai27588   8.149   6.499   2.669
    1MUSC O04aj27589   8.479   6.665   2.013
    1MUSC O04ak27590   8.408   6.462   2.688
    1MUSC O04al27591   8.239   6.665   1.685
    1MUSC O04am27592   8.127   6.462   3.016
    1MUSC O04an27593   8.379   6.421   2.013
    1MUSC O04ao27594   8.508   6.705   2.688
    1MUSC O04ap27595   8.339   6.421   1.684
    1MUSC O04aq27596   8.028   6.705   3.017
    1MUSC O04ar27597   8.641   6.737   1.454
    1MUSC O04as27598   8.247   6.389   3.247
    1MUSC O04at27599   8.078   6.737   2.243
    1MUSC O04au27600   8.289   6.389   2.458
    1MUSC K00Hp27601   8.191   8.057   0.845
    1MUSC K00Hq27602   8.451   7.605   0.845
    1MUSC Al0lV27603   8.370   7.769   0.343
    1MUSC Al0lW27604   8.363   8.074   0.344
    1MUSC Al0lX27605   8.715   7.769   3.355
    1MUSC Al0lY27606   8.538   8.074   1.346
    1MUSC Al0lZ27607   8.630   7.316   0.343
    1MUSC Al0la27608   8.623   7.621   0.344
    1MUSC Al0lb27609   8.455   7.316   3.355
    1MUSC Al0lc27610   8.278   7.621   1.346
    1MUSC Si1Wz27611   8.545   8.084   3.621
    1MUSC Si1X027612   8.188   7.759   1.080
    1MUSC Si1X127613   8.539   8.084   0.077
    1MUSC Si1X227614   8.714   7.759   0.610
    1MUSC Si1X327615   8.286   7.928   0.077
    1MUSC Si1X427616   8.447   7.914   0.610
    1MUSC Si1X527617   8.799   7.928   3.620
    1MUSC Si1X627618   8.455   7.914   1.081
    1MUSC Si1X727619   8.806   7.631   3.621
    1MUSC Si1X827620   8.448   7.306   1.080
    1MUSC Si1X927621   8.279   7.631   0.077
    1MUSC Si1XA27622   8.454   7.306   0.610
    1MUSC Si1XB27623   8.546   7.476   0.077
    1MUSC Si1XC27624   8.707   7.461   0.610
    1MUSC Si1XD27625   8.538   7.476   3.620
    1MUSC Si1XE27626   8.194   7.461   1.081
    1MUSC O04av27627   8.308   7.917   0.236
    1MUSC O04aw27628   8.425   7.925   0.451
    1MUSC O04ax27629   8.777   7.917   3.461
    1MUSC O04ay27630   8.477   7.925   1.240
    1MUSC O04az27631   8.564   7.737   3.453
    1MUSC O04b027632   8.169   8.105   1.248
    1MUSC O04b127633   8.521   7.737   0.245
    1MUSC O04b227634   8.732   8.105   0.442
    1MUSC O04b327635   8.423   7.986   3.672
    1MUSC O04b427636   8.310   7.856   1.029
    1MUSC O04b527637   8.661   7.986   0.025
    1MUSC O04b627638   8.592   7.856   0.662
    1MUSC O04b727639   8.402   8.023   0.006
    1MUSC O04b827640   8.331   7.819   0.681
    1MUSC O04b927641   8.683   8.023   3.692
    1MUSC O04bA27642   8.571   7.819   1.009
    1MUSC O04bB27643   8.302   7.779   0.006
    1MUSC O04bC27644   8.431   8.063   0.681
    1MUSC O04bD27645   8.783   7.779   3.691
    1MUSC O04bE27646   8.471   8.063   1.010
    1MUSC O04bF27647   8.564   8.095   3.461
    1MUSC O04bG27648   8.169   7.747   1.240
    1MUSC O04bH27649   8.521   8.095   0.236
    1MUSC O04bI27650   8.732   7.747   0.451
    1MUSC O04bJ27651   8.568   7.464   0.236
    1MUSC O04bK27652   8.685   7.473   0.451
    1MUSC O04bL27653   8.516   7.464   3.461
    1MUSC O04bM27654   8.217   7.473   1.240
    1MUSC O04bN27655   8.824   7.284   3.453
    1MUSC O04bO27656   8.430   7.653   1.248
    1MUSC O04bP27657   8.261   7.284   0.245
    1MUSC O04bQ27658   8.472   7.653   0.442
    1MUSC O04bR27659   8.684   7.533   3.672
    1MUSC O04bS27660   8.570   7.404   1.029
    1MUSC O04bT27661   8.401   7.533   0.025
    1MUSC O04bU27662   8.332   7.404   0.662
    1MUSC O04bV27663   8.662   7.570   0.006
    1MUSC O04bW27664   8.591   7.367   0.681
    1MUSC O04bX27665   8.422   7.570   3.692
    1MUSC O04bY27666   8.310   7.367   1.009
    1MUSC O04bZ27667   8.562   7.326   0.006
    1MUSC O04ba27668   8.691   7.611   0.681
    1MUSC O04bb27669   8.522   7.326   3.691
    1MUSC O04bc27670   8.211   7.611   1.010
    1MUSC O04bd27671   8.824   7.642   3.461
    1MUSC O04be27672   8.430   7.295   1.240
    1MUSC O04bf27673   8.261   7.642   0.236
    1MUSC O04bg27674   8.472   7.295   0.451
    1MUSC K00Hr27675   8.359   7.785   1.849
    1MUSC K00Hs27676   8.008   8.057   2.852
    1MUSC K00Ht27677   8.099   7.332   1.849
    1MUSC K00Hu27678   8.268   7.605   2.852
    1MUSC Al0ld27679   8.187   7.769   2.350
    1MUSC Al0le27680   8.180   8.074   2.351
    1MUSC Al0lf27681   8.532   7.769   1.348
    1MUSC Al0lg27682   8.355   8.074   3.353
    1MUSC Al0lh27683   8.447   7.316   2.350
    1MUSC Al0li27684   8.440   7.621   2.351
    1MUSC Al0lj27685   8.272   7.316   1.348
    1MUSC Al0lk27686   8.095   7.621   3.353
    1MUSC Si1XF27687   8.362   8.084   1.614
    1MUSC Si1XG27688   8.005   7.759   3.087
    1MUSC Si1XH27689   8.356   8.084   2.084
    1MUSC Si1XI27690   8.531   7.759   2.617
    1MUSC Si1XJ27691   8.103   7.928   2.084
    1MUSC Si1XK27692   8.264   7.914   2.617
    1MUSC Si1XL27693   8.616   7.928   1.613
    1MUSC Si1XM27694   8.272   7.914   3.088
    1MUSC Si1XN27695   8.623   7.631   1.614
    1MUSC Si1XO27696   8.265   7.306   3.087
    1MUSC Si1XP27697   8.096   7.631   2.084
    1MUSC Si1XQ27698   8.271   7.306   2.617
    1MUSC Si1XR27699   8.363   7.476   2.084
    1MUSC Si1XS27700   8.524   7.461   2.617
    1MUSC Si1XT27701   8.355   7.476   1.613
    1MUSC Si1XU27702   8.011   7.461   3.088
    1MUSC O04bh27703   8.125   7.917   2.243
    1MUSC O04bi27704   8.242   7.925   2.458
    1MUSC O04bj27705   8.594   7.917   1.454
    1MUSC O04bk27706   8.294   7.925   3.247
    1MUSC O04bl27707   8.381   7.737   1.446
    1MUSC O04bm27708   7.986   8.105   3.255
    1MUSC O04bn27709   8.338   7.737   2.252
    1MUSC O04bo27710   8.549   8.105   2.449
    1MUSC O04bp27711   8.240   7.986   1.665
    1MUSC O04bq27712   8.127   7.856   3.036
    1MUSC O04br27713   8.478   7.986   2.032
    1MUSC O04bs27714   8.409   7.856   2.669
    1MUSC O04bt27715   8.219   8.023   2.013
    1MUSC O04bu27716   8.148   7.819   2.688
    1MUSC O04bv27717   8.500   8.023   1.685
    1MUSC O04bw27718   8.388   7.819   3.016
    1MUSC O04bx27719   8.119   7.779   2.013
    1MUSC O04by27720   8.248   8.063   2.688
    1MUSC O04bz27721   8.600   7.779   1.684
    1MUSC O04c027722   8.288   8.063   3.017
    1MUSC O04c127723   8.381   8.095   1.454
    1MUSC O04c227724   7.986   7.747   3.247
    1MUSC O04c327725   8.338   8.095   2.243
    1MUSC O04c427726   8.549   7.747   2.458
    1MUSC O04c527727   8.385   7.464   2.243
    1MUSC O04c627728   8.502   7.473   2.458
    1MUSC O04c727729   8.333   7.464   1.454
    1MUSC O04c827730   8.034   7.473   3.247
    1MUSC O04c927731   8.641   7.284   1.446
    1MUSC O04cA27732   8.247   7.653   3.255
    1MUSC O04cB27733   8.078   7.284   2.252
    1MUSC O04cC27734   8.289   7.653   2.449
    1MUSC O04cD27735   8.501   7.533   1.665
    1MUSC O04cE27736   8.387   7.404   3.036
    1MUSC O04cF27737   8.218   7.533   2.032
    1MUSC O04cG27738   8.149   7.404   2.669
    1MUSC O04cH27739   8.479   7.570   2.013
    1MUSC O04cI27740   8.408   7.367   2.688
    1MUSC O04cJ27741   8.239   7.570   1.685
    1MUSC O04cK27742   8.127   7.367   3.016
    1MUSC O04cL27743   8.379   7.326   2.013
    1MUSC O04cM27744   8.508   7.611   2.688
    1MUSC O04cN27745   8.339   7.326   1.684
    1MUSC O04cO27746   8.028   7.611   3.017
    1MUSC O04cP27747   8.641   7.642   1.454
    1MUSC O04cQ27748   8.247   7.295   3.247
    1MUSC O04cR27749   8.078   7.642   2.243
    1MUSC O04cS27750   8.289   7.295   2.458
    1MUSC K00Hv27751   8.191   8.962   0.845
    1MUSC K00Hw27752   8.451   8.510   0.845
    1MUSC Al0ll27753   8.370   8.674   0.343
    1MUSC Al0lm27754   8.363   8.979   0.344
    1MUSC Al0ln27755   8.715   8.674   3.355
    1MUSC Al0lo27756   8.538   8.979   1.346
    1MUSC Al0lp27757   8.630   8.221   0.343
    1MUSC Al0lq27758   8.623   8.526   0.344
    1MUSC Al0lr27759   8.455   8.221   3.355
    1MUSC Al0ls27760   8.278   8.526   1.346
    1MUSC Si1XV27761   8.545   8.989   3.621
    1MUSC Si1XW27762   8.188   8.664   1.080
    1MUSC Si1XX27763   8.539   8.989   0.077
    1MUSC Si1XY27764   8.714   8.664   0.610
    1MUSC Si1XZ27765   8.286   8.834   0.077
    1MUSC Si1Xa27766   8.447   8.819   0.610
    1MUSC Si1Xb27767   8.799   8.834   3.620
    1MUSC Si1Xc27768   8.455   8.819   1.081
    1MUSC Si1Xd27769   8.806   8.536   3.621
    1MUSC Si1Xe27770   8.448   8.211   1.080
    1MUSC Si1Xf27771   8.279   8.536   0.077
    1MUSC Si1Xg27772   8.454   8.211   0.610
    1MUSC Si1Xh27773   8.546   8.381   0.077
    1MUSC Si1Xi27774   8.707   8.367   0.610
    1MUSC Si1Xj27775   8.538   8.381   3.620
    1MUSC Si1Xk27776   8.194   8.367   1.081
    1MUSC O04cT27777   8.308   8.822   0.236
    1MUSC O04cU27778   8.425   8.831   0.451
    1MUSC O04cV27779   8.777   8.822   3.461
    1MUSC O04cW27780   8.477   8.831   1.240
    1MUSC O04cX27781   8.564   8.642   3.453
    1MUSC O04cY27782   8.169   9.010   1.248
    1MUSC O04cZ27783   8.521   8.642   0.245
    1MUSC O04ca27784   8.732   9.010   0.442
    1MUSC O04cb27785   8.423   8.891   3.672
    1MUSC O04cc27786   8.310   8.762   1.029
    1MUSC O04cd27787   8.661   8.891   0.025
    1MUSC O04ce27788   8.592   8.762   0.662
    1MUSC O04cf27789   8.402   8.928   0.006
    1MUSC O04cg27790   8.331   8.725   0.681
    1MUSC O04ch27791   8.683   8.928   3.692
    1MUSC O04ci27792   8.571   8.725   1.009
    1MUSC O04cj27793   8.302   8.684   0.006
    1MUSC O04ck27794   8.431   8.968   0.681
    1MUSC O04cl27795   8.783   8.684   3.691
    1MUSC O04cm27796   8.471   8.968   1.010
    1MUSC O04cn27797   8.564   9.000   3.461
    1MUSC O04co27798   8.169   8.652   1.240
    1MUSC O04cp27799   8.521   9.000   0.236
    1MUSC O04cq27800   8.732   8.652   0.451
    1MUSC O04cr27801   8.568   8.370   0.236
    1MUSC O04cs27802   8.685   8.378   0.451
    1MUSC O04ct27803   8.516   8.370   3.461
    1MUSC O04cu27804   8.217   8.378   1.240
    1MUSC O04cv27805   8.824   8.190   3.453
    1MUSC O04cw27806   8.430   8.558   1.248
    1MUSC O04cx27807   8.261   8.190   0.245
    1MUSC O04cy27808   8.472   8.558   0.442
    1MUSC O04cz27809   8.684   8.438   3.672
    1MUSC O04d027810   8.570   8.309   1.029
    1MUSC O04d127811   8.401   8.438   0.025
    1MUSC O04d227812   8.332   8.309   0.662
    1MUSC O04d327813   8.662   8.475   0.006
    1MUSC O04d427814   8.591   8.272   0.681
    1MUSC O04d527815   8.422   8.475   3.692
    1MUSC O04d627816   8.310   8.272   1.009
    1MUSC O04d727817   8.562   8.232   0.006
    1MUSC O04d827818   8.691   8.516   0.681
    1MUSC O04d927819   8.522   8.232   3.691
    1MUSC O04dA27820   8.211   8.516   1.010
    1MUSC O04dB27821   8.824   8.548   3.461
    1MUSC O04dC27822   8.430   8.200   1.240
    1MUSC O04dD27823   8.261   8.548   0.236
    1MUSC O04dE27824   8.472   8.200   0.451
    1MUSC K00Hx27825   8.359   8.690   1.849
    1MUSC K00Hy27826   8.008   8.962   2.852
    1MUSC K00Hz27827   8.099   8.238   1.849
    1MUSC K00I027828   8.268   8.510   2.852
    1MUSC Al0lt27829   8.187   8.674   2.350
    1MUSC Al0lu27830   8.180   8.979   2.351
    1MUSC Al0lv27831   8.532   8.674   1.348
    1MUSC Al0lw27832   8.355   8.979   3.353
    1MUSC Al0lx27833   8.447   8.221   2.350
    1MUSC Al0ly27834   8.440   8.526   2.351
    1MUSC Al0lz27835   8.272   8.221   1.348
    1MUSC Al0m027836   8.095   8.526   3.353
    1MUSC Si1Xl27837   8.362   8.989   1.614
    1MUSC Si1Xm27838   8.005   8.664   3.087
    1MUSC Si1Xn27839   8.356   8.989   2.084
    1MUSC Si1Xo27840   8.531   8.664   2.617
    1MUSC Si1Xp27841   8.103   8.834   2.084
    1MUSC Si1Xq27842   8.264   8.819   2.617
    1MUSC Si1Xr27843   8.616   8.834   1.613
    1MUSC Si1Xs27844   8.272   8.819   3.088
    1MUSC Si1Xt27845   8.623   8.536   1.614
    1MUSC Si1Xu27846   8.265   8.211   3.087
    1MUSC Si1Xv27847   8.096   8.536   2.084
    1MUSC Si1Xw27848   8.271   8.211   2.617
    1MUSC Si1Xx27849   8.363   8.381   2.084
    1MUSC Si1Xy27850   8.524   8.367   2.617
    1MUSC Si1Xz27851   8.355   8.381   1.613
    1MUSC Si1Y027852   8.011   8.367   3.088
    1MUSC O04dF27853   8.125   8.822   2.243
    1MUSC O04dG27854   8.242   8.831   2.458
    1MUSC O04dH27855   8.594   8.822   1.454
    1MUSC O04dI27856   8.294   8.831   3.247
    1MUSC O04dJ27857   8.381   8.642   1.446
    1MUSC O04dK27858   7.986   9.010   3.255
    1MUSC O04dL27859   8.338   8.642   2.252
    1MUSC O04dM27860   8.549   9.010   2.449
    1MUSC O04dN27861   8.240   8.891   1.665
    1MUSC O04dO27862   8.127   8.762   3.036
    1MUSC O04dP27863   8.478   8.891   2.032
    1MUSC O04dQ27864   8.409   8.762   2.669
    1MUSC O04dR27865   8.219   8.928   2.013
    1MUSC O04dS27866   8.148   8.725   2.688
    1MUSC O04dT27867   8.500   8.928   1.685
    1MUSC O04dU27868   8.388   8.725   3.016
    1MUSC O04dV27869   8.119   8.684   2.013
    1MUSC O04dW27870   8.248   8.968   2.688
    1MUSC O04dX27871   8.600   8.684   1.684
    1MUSC O04dY27872   8.288   8.968   3.017
    1MUSC O04dZ27873   8.381   9.000   1.454
    1MUSC O04da27874   7.986   8.652   3.247
    1MUSC O04db27875   8.338   9.000   2.243
    1MUSC O04dc27876   8.549   8.652   2.458
    1MUSC O04dd27877   8.385   8.370   2.243
    1MUSC O04de27878   8.502   8.378   2.458
    1MUSC O04df27879   8.333   8.370   1.454
    1MUSC O04dg27880   8.034   8.378   3.247
    1MUSC O04dh27881   8.641   8.190   1.446
    1MUSC O04di27882   8.247   8.558   3.255
    1MUSC O04dj27883   8.078   8.190   2.252
    1MUSC O04dk27884   8.289   8.558   2.449
    1MUSC O04dl27885   8.501   8.438   1.665
    1MUSC O04dm27886   8.387   8.309   3.036
    1MUSC O04dn27887   8.218   8.438   2.032
    1MUSC O04do27888   8.149   8.309   2.669
    1MUSC O04dp27889   8.479   8.475   2.013
    1MUSC O04dq27890   8.408   8.272   2.688
    1MUSC O04dr27891   8.239   8.475   1.685
    1MUSC O04ds27892   8.127   8.272   3.016
    1MUSC O04dt27893   8.379   8.232   2.013
    1MUSC O04du27894   8.508   8.516   2.688
    1MUSC O04dv27895   8.339   8.232   1.684
    1MUSC O04dw27896   8.028   8.516   3.017
    1MUSC O04dx27897   8.641   8.548   1.454
    1MUSC O04dy27898   8.247   8.200   3.247
    1MUSC O04dz27899   8.078   8.548   2.243
    1MUSC O04e027900   8.289   8.200   2.458
    1MUSC K00I127901   8.191   9.868   0.845
    1MUSC K00I227902   8.451   9.415   0.845
    1MUSC Al0m127903   8.370   9.579   0.343
    1MUSC Al0m227904   8.363   9.884   0.344
    1MUSC Al0m327905   8.715   9.579   3.355
    1MUSC Al0m427906   8.538   9.884   1.346
    1MUSC Al0m527907   8.630   9.126   0.343
    1MUSC Al0m627908   8.623   9.432   0.344
    1MUSC Al0m727909   8.455   9.126   3.355
    1MUSC Al0m827910   8.278   9.432   1.346
    1MUSC Si1Y127911   8.545   9.894   3.621
    1MUSC Si1Y227912   8.188   9.569   1.080
    1MUSC Si1Y327913   8.539   9.894   0.077
    1MUSC Si1Y427914   8.714   9.569   0.610
    1MUSC Si1Y527915   8.286   9.739   0.077
    1MUSC Si1Y627916   8.447   9.724   0.610
    1MUSC Si1Y727917   8.799   9.739   3.620
    1MUSC Si1Y827918   8.455   9.724   1.081
    1MUSC Si1Y927919   8.806   9.441   3.621
    1MUSC Si1YA27920   8.448   9.117   1.080
    1MUSC Si1YB27921   8.279   9.441   0.077
    1MUSC Si1YC27922   8.454   9.117   0.610
    1MUSC Si1YD27923   8.546   9.286   0.077
    1MUSC Si1YE27924   8.707   9.272   0.610
    1MUSC Si1YF27925   8.538   9.286   3.620
    1MUSC Si1YG27926   8.194   9.272   1.081
    1MUSC O04e127927   8.308   9.728   0.236
    1MUSC O04e227928   8.425   9.736   0.451
    1MUSC O04e327929   8.777   9.728   3.461
    1MUSC O04e427930   8.477   9.736   1.240
    1MUSC O04e527931   8.564   9.548   3.453
    1MUSC O04e627932   8.169   9.916   1.248
    1MUSC O04e727933   8.521   9.548   0.245
    1MUSC O04e827934   8.732   9.916   0.442
    1MUSC O04e927935   8.423   9.796   3.672
    1MUSC O04eA27936   8.310   9.667   1.029
    1MUSC O04eB27937   8.661   9.796   0.025
    1MUSC O04eC27938   8.592   9.667   0.662
    1MUSC O04eD27939   8.402   9.833   0.006
    1MUSC O04eE27940   8.331   9.630   0.681
    1MUSC O04eF27941   8.683   9.833   3.692
    1MUSC O04eG27942   8.571   9.630   1.009
    1MUSC O04eH27943   8.302   9.590   0.006
    1MUSC O04eI27944   8.431   9.874   0.681
    1MUSC O04eJ27945   8.783   9.590   3.691
    1MUSC O04eK27946   8.471   9.874   1.010
    1MUSC O04eL27947   8.564   9.906   3.461
    1MUSC O04eM27948   8.169   9.558   1.240
    1MUSC O04eN27949   8.521   9.906   0.236
    1MUSC O04eO27950   8.732   9.558   0.451
    1MUSC O04eP27951   8.568   9.275   0.236
    1MUSC O04eQ27952   8.685   9.283   0.451
    1MUSC O04eR27953   8.516   9.275   3.461
    1MUSC O04eS27954   8.217   9.283   1.240
    1MUSC O04eT27955   8.824   9.095   3.453
    1MUSC O04eU27956   8.430   9.463   1.248
    1MUSC O04eV27957   8.261   9.095   0.245
    1MUSC O04eW27958   8.472   9.463   0.442
    1MUSC O04eX27959   8.684   9.344   3.672
    1MUSC O04eY27960   8.570   9.214   1.029
    1MUSC O04eZ27961   8.401   9.344   0.025
    1MUSC O04ea27962   8.332   9.214   0.662
    1MUSC O04eb27963   8.662   9.381   0.006
    1MUSC O04ec27964   8.591   9.177   0.681
    1MUSC O04ed27965   8.422   9.381   3.692
    1MUSC O04ee27966   8.310   9.177   1.009
    1MUSC O04ef27967   8.562   9.137   0.006
    1MUSC O04eg27968   8.691   9.421   0.681
    1MUSC O04eh27969   8.522   9.137   3.691
    1MUSC O04ei27970   8.211   9.421   1.010
    1MUSC O04ej27971   8.824   9.453   3.461
    1MUSC O04ek27972   8.430   9.105   1.240
    1MUSC O04el27973   8.261   9.453   0.236
    1MUSC O04em27974   8.472   9.105   0.451
    1MUSC K00I327975   8.359   9.596   1.849
    1MUSC K00I427976   8.008   9.868   2.852
    1MUSC K00I527977   8.099   9.143   1.849
    1MUSC K00I627978   8.268   9.415   2.852
    1MUSC Al0m927979   8.187   9.579   2.350
    1MUSC Al0mA27980   8.180   9.884   2.351
    1MUSC Al0mB27981   8.532   9.579   1.348
    1MUSC Al0mC27982   8.355   9.884   3.353
    1MUSC Al0mD27983   8.447   9.126   2.350
    1MUSC Al0mE27984   8.440   9.432   2.351
    1MUSC Al0mF27985   8.272   9.126   1.348
    1MUSC Al0mG27986   8.095   9.432   3.353
    1MUSC Si1YH27987   8.362   9.894   1.614
    1MUSC Si1YI27988   8.005   9.569   3.087
    1MUSC Si1YJ27989   8.356   9.894   2.084
    1MUSC Si1YK27990   8.531   9.569   2.617
    1MUSC Si1YL27991   8.103   9.739   2.084
    1MUSC Si1YM27992   8.264   9.724   2.617
    1MUSC Si1YN27993   8.616   9.739   1.613
    1MUSC Si1YO27994   8.272   9.724   3.088
    1MUSC Si1YP27995   8.623   9.441   1.614
    1MUSC Si1YQ27996   8.265   9.117   3.087
    1MUSC Si1YR27997   8.096   9.441   2.084
    1MUSC Si1YS27998   8.271   9.117   2.617
    1MUSC Si1YT27999   8.363   9.286   2.084
    1MUSC Si1YU28000   8.524   9.272   2.617
    1MUSC Si1YV28001   8.355   9.286   1.613
    1MUSC Si1YW28002   8.011   9.272   3.088
    1MUSC O04en28003   8.125   9.728   2.243
    1MUSC O04eo28004   8.242   9.736   2.458
    1MUSC O04ep28005   8.594   9.728   1.454
    1MUSC O04eq28006   8.294   9.736   3.247
    1MUSC O04er28007   8.381   9.548   1.446
    1MUSC O04es28008   7.986   9.916   3.255
    1MUSC O04et28009   8.338   9.548   2.252
    1MUSC O04eu28010   8.549   9.916   2.449
    1MUSC O04ev28011   8.240   9.796   1.665
    1MUSC O04ew28012   8.127   9.667   3.036
    1MUSC O04ex28013   8.478   9.796   2.032
    1MUSC O04ey28014   8.409   9.667   2.669
    1MUSC O04ez28015   8.219   9.833   2.013
    1MUSC O04f028016   8.148   9.630   2.688
    1MUSC O04f128017   8.500   9.833   1.685
    1MUSC O04f228018   8.388   9.630   3.016
    1MUSC O04f328019   8.119   9.590   2.013
    1MUSC O04f428020   8.248   9.874   2.688
    1MUSC O04f528021   8.600   9.590   1.684
    1MUSC O04f628022   8.288   9.874   3.017
    1MUSC O04f728023   8.381   9.906   1.454
    1MUSC O04f828024   7.986   9.558   3.247
    1MUSC O04f928025   8.338   9.906   2.243
    1MUSC O04fA28026   8.549   9.558   2.458
    1MUSC O04fB28027   8.385   9.275   2.243
    1MUSC O04fC28028   8.502   9.283   2.458
    1MUSC O04fD28029   8.333   9.275   1.454
    1MUSC O04fE28030   8.034   9.283   3.247
    1MUSC O04fF28031   8.641   9.095   1.446
    1MUSC O04fG28032   8.247   9.463   3.255
    1MUSC O04fH28033   8.078   9.095   2.252
    1MUSC O04fI28034   8.289   9.463   2.449
    1MUSC O04fJ28035   8.501   9.344   1.665
    1MUSC O04fK28036   8.387   9.214   3.036
    1MUSC O04fL28037   8.218   9.344   2.032
    1MUSC O04fM28038   8.149   9.214   2.669
    1MUSC O04fN28039   8.479   9.381   2.013
    1MUSC O04fO28040   8.408   9.177   2.688
    1MUSC O04fP28041   8.239   9.381   1.685
    1MUSC O04fQ28042   8.127   9.177   3.016
    1MUSC O04fR28043   8.379   9.137   2.013
    1MUSC O04fS28044   8.508   9.421   2.688
    1MUSC O04fT28045   8.339   9.137   1.684
    1MUSC O04fU28046   8.028   9.421   3.017
    1MUSC O04fV28047   8.641   9.453   1.454
    1MUSC O04fW28048   8.247   9.105   3.247
    1MUSC O04fX28049   8.078   9.453   2.243
    1MUSC O04fY28050   8.289   9.105   2.458
    1MUSC K00I728051   8.711   0.815   0.845
    1MUSC K00I828052   8.971   0.362   0.845
    1MUSC Al0mH28053   8.890   0.526   0.343
    1MUSC Al0mI28054   8.884   0.831   0.344
    1MUSC Al0mJ28055   9.235   0.526   3.355
    1MUSC Al0mK28056   9.059   0.831   1.346
    1MUSC Al0mL28057   9.150   0.074   0.343
    1MUSC Al0mM28058   9.144   0.379   0.344
    1MUSC Al0mN28059   8.975   0.074   3.355
    1MUSC Al0mO28060   8.799   0.379   1.346
    1MUSC Si1YX28061   9.066   0.841   3.621
    1MUSC Si1YY28062   8.708   0.517   1.080
    1MUSC Si1YZ28063   9.060   0.841   0.077
    1MUSC Si1Ya28064   9.235   0.517   0.610
    1MUSC Si1Yb28065   8.806   0.686   0.077
    1MUSC Si1Yc28066   8.967   0.672   0.610
    1MUSC Si1Yd28067   9.319   0.686   3.620
    1MUSC Si1Ye28068   8.975   0.672   1.081
    1MUSC Si1Yf28069   9.326   0.389   3.621
    1MUSC Si1Yg28070   8.968   0.064   1.080
    1MUSC Si1Yh28071   8.800   0.389   0.077
    1MUSC Si1Yi28072   8.974   0.064   0.610
    1MUSC Si1Yj28073   9.067   0.233   0.077
    1MUSC Si1Yk28074   9.228   0.219   0.610
    1MUSC Si1Yl28075   9.059   0.233   3.620
    1MUSC Si1Ym28076   8.715   0.219   1.081
    1MUSC O04fZ28077   8.829   0.675   0.236
    1MUSC O04fa28078   8.945   0.683   0.451
    1MUSC O04fb28079   9.297   0.675   3.461
    1MUSC O04fc28080   8.997   0.683   1.240
    1MUSC O04fd28081   9.084   0.495   3.453
    1MUSC O04fe28082   8.690   0.863   1.248
    1MUSC O04ff28083   9.042   0.495   0.245
    1MUSC O04fg28084   9.253   0.863   0.442
    1MUSC O04fh28085   8.944   0.744   3.672
    1MUSC O04fi28086   8.830   0.614   1.029
    1MUSC O04fj28087   9.182   0.744   0.025
    1MUSC O04fk28088   9.113   0.614   0.662
    1MUSC O04fl28089   8.922   0.781   0.006
    1MUSC O04fm28090   8.851   0.577   0.681
    1MUSC O04fn28091   9.203   0.781   3.692
    1MUSC O04fo28092   9.091   0.577   1.009
    1MUSC O04fp28093   8.823   0.537   0.006
    1MUSC O04fq28094   8.951   0.821   0.681
    1MUSC O04fr28095   9.303   0.537   3.691
    1MUSC O04fs28096   8.991   0.821   1.010
    1MUSC O04ft28097   9.084   0.853   3.461
    1MUSC O04fu28098   8.690   0.505   1.240
    1MUSC O04fv28099   9.042   0.853   0.236
    1MUSC O04fw28100   9.253   0.505   0.451
    1MUSC O04fx28101   9.089   0.222   0.236
    1MUSC O04fy28102   9.206   0.230   0.451
    1MUSC O04fz28103   9.037   0.222   3.461
    1MUSC O04g028104   8.737   0.230   1.240
    1MUSC O04g128105   9.344   0.042   3.453
    1MUSC O04g228106   8.950   0.410   1.248
    1MUSC O04g328107   8.781   0.042   0.245
    1MUSC O04g428108   8.993   0.410   0.442
    1MUSC O04g528109   9.204   0.291   3.672
    1MUSC O04g628110   9.090   0.162   1.029
    1MUSC O04g728111   8.921   0.291   0.025
    1MUSC O04g828112   8.852   0.162   0.662
    1MUSC O04g928113   9.183   0.328   0.006
    1MUSC O04gA28114   9.112   0.125   0.681
    1MUSC O04gB28115   8.943   0.328   3.692
    1MUSC O04gC28116   8.831   0.125   1.009
    1MUSC O04gD28117   9.083   0.084   0.006
    1MUSC O04gE28118   9.212   0.368   0.681
    1MUSC O04gF28119   9.043   0.084   3.691
    1MUSC O04gG28120   8.731   0.368   1.010
    1MUSC O04gH28121   9.344   0.400   3.461
    1MUSC O04gI28122   8.950   0.052   1.240
    1MUSC O04gJ28123   8.781   0.400   0.236
    1MUSC O04gK28124   8.993   0.052   0.451
    1MUSC K00I928125   8.880   0.543   1.849
    1MUSC K00IA28126   8.528   0.815   2.852
    1MUSC K00IB28127   8.620   0.090   1.849
    1MUSC K00IC28128   8.788   0.362   2.852
    1MUSC Al0mP28129   8.707   0.526   2.350
    1MUSC Al0mQ28130   8.701   0.831   2.351
    1MUSC Al0mR28131   9.052   0.526   1.348
    1MUSC Al0mS28132   8.876   0.831   3.353
    1MUSC Al0mT28133   8.967   0.074   2.350
    1MUSC Al0mU28134   8.961   0.379   2.351
    1MUSC Al0mV28135   8.792   0.074   1.348
    1MUSC Al0mW28136   8.616   0.379   3.353
    1MUSC Si1Yn28137   8.883   0.841   1.614
    1MUSC Si1Yo28138   8.525   0.517   3.087
    1MUSC Si1Yp28139   8.877   0.841   2.084
    1MUSC Si1Yq28140   9.052   0.517   2.617
    1MUSC Si1Yr28141   8.623   0.686   2.084
    1MUSC Si1Ys28142   8.784   0.672   2.617
    1MUSC Si1Yt28143   9.136   0.686   1.613
    1MUSC Si1Yu28144   8.792   0.672   3.088
    1MUSC Si1Yv28145   9.143   0.389   1.614
    1MUSC Si1Yw28146   8.785   0.064   3.087
    1MUSC Si1Yx28147   8.617   0.389   2.084
    1MUSC Si1Yy28148   8.791   0.064   2.617
    1MUSC Si1Yz28149   8.884   0.233   2.084
    1MUSC Si1Z028150   9.045   0.219   2.617
    1MUSC Si1Z128151   8.876   0.233   1.613
    1MUSC Si1Z228152   8.532   0.219   3.088
    1MUSC O04gL28153   8.646   0.675   2.243
    1MUSC O04gM28154   8.762   0.683   2.458
    1MUSC O04gN28155   9.114   0.675   1.454
    1MUSC O04gO28156   8.814   0.683   3.247
    1MUSC O04gP28157   8.901   0.495   1.446
    1MUSC O04gQ28158   8.507   0.863   3.255
    1MUSC O04gR28159   8.859   0.495   2.252
    1MUSC O04gS28160   9.070   0.863   2.449
    1MUSC O04gT28161   8.761   0.744   1.665
    1MUSC O04gU28162   8.647   0.614   3.036
    1MUSC O04gV28163   8.999   0.744   2.032
    1MUSC O04gW28164   8.930   0.614   2.669
    1MUSC O04gX28165   8.739   0.781   2.013
    1MUSC O04gY28166   8.668   0.577   2.688
    1MUSC O04gZ28167   9.020   0.781   1.685
    1MUSC O04ga28168   8.908   0.577   3.016
    1MUSC O04gb28169   8.640   0.537   2.013
    1MUSC O04gc28170   8.768   0.821   2.688
    1MUSC O04gd28171   9.120   0.537   1.684
    1MUSC O04ge28172   8.808   0.821   3.017
    1MUSC O04gf28173   8.901   0.853   1.454
    1MUSC O04gg28174   8.507   0.505   3.247
    1MUSC O04gh28175   8.859   0.853   2.243
    1MUSC O04gi28176   9.070   0.505   2.458
    1MUSC O04gj28177   8.906   0.222   2.243
    1MUSC O04gk28178   9.023   0.230   2.458
    1MUSC O04gl28179   8.854   0.222   1.454
    1MUSC O04gm28180   8.554   0.230   3.247
    1MUSC O04gn28181   9.161   0.042   1.446
    1MUSC O04go28182   8.767   0.410   3.255
    1MUSC O04gp28183   8.598   0.042   2.252
    1MUSC O04gq28184   8.810   0.410   2.449
    1MUSC O04gr28185   9.021   0.291   1.665
    1MUSC O04gs28186   8.907   0.162   3.036
    1MUSC O04gt28187   8.738   0.291   2.032
    1MUSC O04gu28188   8.669   0.162   2.669
    1MUSC O04gv28189   9.000   0.328   2.013
    1MUSC O04gw28190   8.929   0.125   2.688
    1MUSC O04gx28191   8.760   0.328   1.685
    1MUSC O04gy28192   8.648   0.125   3.016
    1MUSC O04gz28193   8.900   0.084   2.013
    1MUSC O04h028194   9.029   0.368   2.688
    1MUSC O04h128195   8.860   0.084   1.684
    1MUSC O04h228196   8.548   0.368   3.017
    1MUSC O04h328197   9.161   0.400   1.454
    1MUSC O04h428198   8.767   0.052   3.247
    1MUSC O04h528199   8.598   0.400   2.243
    1MUSC O04h628200   8.810   0.052   2.458
    1MUSC K00ID28201   8.711   1.720   0.845
    1MUSC K00IE28202   8.971   1.268   0.845
    1MUSC Al0mX28203   8.890   1.432   0.343
    1MUSC Al0mY28204   8.884   1.737   0.344
    1MUSC Al0mZ28205   9.235   1.432   3.355
    1MUSC Al0ma28206   9.059   1.737   1.346
    1MUSC Al0mb28207   9.150   0.979   0.343
    1MUSC Al0mc28208   9.144   1.284   0.344
    1MUSC Al0md28209   8.975   0.979   3.355
    1MUSC Al0me28210   8.799   1.284   1.346
    1MUSC Si1Z328211   9.066   1.747   3.621
    1MUSC Si1Z428212   8.708   1.422   1.080
    1MUSC Si1Z528213   9.060   1.747   0.077
    1MUSC Si1Z628214   9.235   1.422   0.610
    1MUSC Si1Z728215   8.806   1.591   0.077
    1MUSC Si1Z828216   8.967   1.577   0.610
    1MUSC Si1Z928217   9.319   1.591   3.620
    1MUSC Si1ZA28218   8.975   1.577   1.081
    1MUSC Si1ZB28219   9.326   1.294   3.621
    1MUSC Si1ZC28220   8.968   0.969   1.080
    1MUSC Si1ZD28221   8.800   1.294   0.077
    1MUSC Si1ZE28222   8.974   0.969   0.610
    1MUSC Si1ZF28223   9.067   1.139   0.077
    1MUSC Si1ZG28224   9.228   1.124   0.610
    1MUSC Si1ZH28225   9.059   1.139   3.620
    1MUSC Si1ZI28226   8.715   1.124   1.081
    1MUSC O04h728227   8.829   1.580   0.236
    1MUSC O04h828228   8.945   1.588   0.451
    1MUSC O04h928229   9.297   1.580   3.461
    1MUSC O04hA28230   8.997   1.588   1.240
    1MUSC O04hB28231   9.084   1.400   3.453
    1MUSC O04hC28232   8.690   1.768   1.248
    1MUSC O04hD28233   9.042   1.400   0.245
    1MUSC O04hE28234   9.253   1.768   0.442
    1MUSC O04hF28235   8.944   1.649   3.672
    1MUSC O04hG28236   8.830   1.520   1.029
    1MUSC O04hH28237   9.182   1.649   0.025
    1MUSC O04hI28238   9.113   1.520   0.662
    1MUSC O04hJ28239   8.922   1.686   0.006
    1MUSC O04hK28240   8.851   1.483   0.681
    1MUSC O04hL28241   9.203   1.686   3.692
    1MUSC O04hM28242   9.091   1.483   1.009
    1MUSC O04hN28243   8.823   1.442   0.006
    1MUSC O04hO28244   8.951   1.726   0.681
    1MUSC O04hP28245   9.303   1.442   3.691
    1MUSC O04hQ28246   8.991   1.726   1.010
    1MUSC O04hR28247   9.084   1.758   3.461
    1MUSC O04hS28248   8.690   1.410   1.240
    1MUSC O04hT28249   9.042   1.758   0.236
    1MUSC O04hU28250   9.253   1.410   0.451
    1MUSC O04hV28251   9.089   1.127   0.236
    1MUSC O04hW28252   9.206   1.136   0.451
    1MUSC O04hX28253   9.037   1.127   3.461
    1MUSC O04hY28254   8.737   1.136   1.240
    1MUSC O04hZ28255   9.344   0.948   3.453
    1MUSC O04ha28256   8.950   1.316   1.248
    1MUSC O04hb28257   8.781   0.948   0.245
    1MUSC O04hc28258   8.993   1.316   0.442
    1MUSC O04hd28259   9.204   1.196   3.672
    1MUSC O04he28260   9.090   1.067   1.029
    1MUSC O04hf28261   8.921   1.196   0.025
    1MUSC O04hg28262   8.852   1.067   0.662
    1MUSC O04hh28263   9.183   1.233   0.006
    1MUSC O04hi28264   9.112   1.030   0.681
    1MUSC O04hj28265   8.943   1.233   3.692
    1MUSC O04hk28266   8.831   1.030   1.009
    1MUSC O04hl28267   9.083   0.990   0.006
    1MUSC O04hm28268   9.212   1.274   0.681
    1MUSC O04hn28269   9.043   0.990   3.691
    1MUSC O04ho28270   8.731   1.274   1.010
    1MUSC O04hp28271   9.344   1.306   3.461
    1MUSC O04hq28272   8.950   0.958   1.240
    1MUSC O04hr28273   8.781   1.306   0.236
    1MUSC O04hs28274   8.993   0.958   0.451
    1MUSC K00IF28275   8.880   1.448   1.849
    1MUSC K00IG28276   8.528   1.720   2.852
    1MUSC K00IH28277   8.620   0.996   1.849
    1MUSC K00II28278   8.788   1.268   2.852
    1MUSC Al0mf28279   8.707   1.432   2.350
    1MUSC Al0mg28280   8.701   1.737   2.351
    1MUSC Al0mh28281   9.052   1.432   1.348
    1MUSC Al0mi28282   8.876   1.737   3.353
    1MUSC Al0mj28283   8.967   0.979   2.350
    1MUSC Al0mk28284   8.961   1.284   2.351
    1MUSC Al0ml28285   8.792   0.979   1.348
    1MUSC Al0mm28286   8.616   1.284   3.353
    1MUSC Si1ZJ28287   8.883   1.747   1.614
    1MUSC Si1ZK28288   8.525   1.422   3.087
    1MUSC Si1ZL28289   8.877   1.747   2.084
    1MUSC Si1ZM28290   9.052   1.422   2.617
    1MUSC Si1ZN28291   8.623   1.591   2.084
    1MUSC Si1ZO28292   8.784   1.577   2.617
    1MUSC Si1ZP28293   9.136   1.591   1.613
    1MUSC Si1ZQ28294   8.792   1.577   3.088
    1MUSC Si1ZR28295   9.143   1.294   1.614
    1MUSC Si1ZS28296   8.785   0.969   3.087
    1MUSC Si1ZT28297   8.617   1.294   2.084
    1MUSC Si1ZU28298   8.791   0.969   2.617
    1MUSC Si1ZV28299   8.884   1.139   2.084
    1MUSC Si1ZW28300   9.045   1.124   2.617
    1MUSC Si1ZX28301   8.876   1.139   1.613
    1MUSC Si1ZY28302   8.532   1.124   3.088
    1MUSC O04ht28303   8.646   1.580   2.243
    1MUSC O04hu28304   8.762   1.588   2.458
    1MUSC O04hv28305   9.114   1.580   1.454
    1MUSC O04hw28306   8.814   1.588   3.247
    1MUSC O04hx28307   8.901   1.400   1.446
    1MUSC O04hy28308   8.507   1.768   3.255
    1MUSC O04hz28309   8.859   1.400   2.252
    1MUSC O04i028310   9.070   1.768   2.449
    1MUSC O04i128311   8.761   1.649   1.665
    1MUSC O04i228312   8.647   1.520   3.036
    1MUSC O04i328313   8.999   1.649   2.032
    1MUSC O04i428314   8.930   1.520   2.669
    1MUSC O04i528315   8.739   1.686   2.013
    1MUSC O04i628316   8.668   1.483   2.688
    1MUSC O04i728317   9.020   1.686   1.685
    1MUSC O04i828318   8.908   1.483   3.016
    1MUSC O04i928319   8.640   1.442   2.013
    1MUSC O04iA28320   8.768   1.726   2.688
    1MUSC O04iB28321   9.120   1.442   1.684
    1MUSC O04iC28322   8.808   1.726   3.017
    1MUSC O04iD28323   8.901   1.758   1.454
    1MUSC O04iE28324   8.507   1.410   3.247
    1MUSC O04iF28325   8.859   1.758   2.243
    1MUSC O04iG28326   9.070   1.410   2.458
    1MUSC O04iH28327   8.906   1.127   2.243
    1MUSC O04iI28328   9.023   1.136   2.458
    1MUSC O04iJ28329   8.854   1.127   1.454
    1MUSC O04iK28330   8.554   1.136   3.247
    1MUSC O04iL28331   9.161   0.948   1.446
    1MUSC O04iM28332   8.767   1.316   3.255
    1MUSC O04iN28333   8.598   0.948   2.252
    1MUSC O04iO28334   8.810   1.316   2.449
    1MUSC O04iP28335   9.021   1.196   1.665
    1MUSC O04iQ28336   8.907   1.067   3.036
    1MUSC O04iR28337   8.738   1.196   2.032
    1MUSC O04iS28338   8.669   1.067   2.669
    1MUSC O04iT28339   9.000   1.233   2.013
    1MUSC O04iU28340   8.929   1.030   2.688
    1MUSC O04iV28341   8.760   1.233   1.685
    1MUSC O04iW28342   8.648   1.030   3.016
    1MUSC O04iX28343   8.900   0.990   2.013
    1MUSC O04iY28344   9.029   1.274   2.688
    1MUSC O04iZ28345   8.860   0.990   1.684
    1MUSC O04ia28346   8.548   1.274   3.017
    1MUSC O04ib28347   9.161   1.306   1.454
    1MUSC O04ic28348   8.767   0.958   3.247
    1MUSC O04id28349   8.598   1.306   2.243
    1MUSC O04ie28350   8.810   0.958   2.458
    1MUSC K00IJ28351   8.711   2.626   0.845
    1MUSC K00IK28352   8.971   2.173   0.845
    1MUSC Al0mn28353   8.890   2.337   0.343
    1MUSC Al0mo28354   8.884   2.642   0.344
    1MUSC Al0mp28355   9.235   2.337   3.355
    1MUSC Al0mq28356   9.059   2.642   1.346
    1MUSC Al0mr28357   9.150   1.884   0.343
    1MUSC Al0ms28358   9.144   2.189   0.344
    1MUSC Al0mt28359   8.975   1.884   3.355
    1MUSC Al0mu28360   8.799   2.189   1.346
    1MUSC Si1ZZ28361   9.066   2.652   3.621
    1MUSC Si1Za28362   8.708   2.327   1.080
    1MUSC Si1Zb28363   9.060   2.652   0.077
    1MUSC Si1Zc28364   9.235   2.327   0.610
    1MUSC Si1Zd28365   8.806   2.497   0.077
    1MUSC Si1Ze28366   8.967   2.482   0.610
    1MUSC Si1Zf28367   9.319   2.497   3.620
    1MUSC Si1Zg28368   8.975   2.482   1.081
    1MUSC Si1Zh28369   9.326   2.199   3.621
    1MUSC Si1Zi28370   8.968   1.874   1.080
    1MUSC Si1Zj28371   8.800   2.199   0.077
    1MUSC Si1Zk28372   8.974   1.874   0.610
    1MUSC Si1Zl28373   9.067   2.044   0.077
    1MUSC Si1Zm28374   9.228   2.030   0.610
    1MUSC Si1Zn28375   9.059   2.044   3.620
    1MUSC Si1Zo28376   8.715   2.030   1.081
    1MUSC O04if28377   8.829   2.485   0.236
    1MUSC O04ig28378   8.945   2.494   0.451
    1MUSC O04ih28379   9.297   2.485   3.461
    1MUSC O04ii28380   8.997   2.494   1.240
    1MUSC O04ij28381   9.084   2.305   3.453
    1MUSC O04ik28382   8.690   2.674   1.248
    1MUSC O04il28383   9.042   2.305   0.245
    1MUSC O04im28384   9.253   2.674   0.442
    1MUSC O04in28385   8.944   2.554   3.672
    1MUSC O04io28386   8.830   2.425   1.029
    1MUSC O04ip28387   9.182   2.554   0.025
    1MUSC O04iq28388   9.113   2.425   0.662
    1MUSC O04ir28389   8.922   2.591   0.006
    1MUSC O04is28390   8.851   2.388   0.681
    1MUSC O04it28391   9.203   2.591   3.692
    1MUSC O04iu28392   9.091   2.388   1.009
    1MUSC O04iv28393   8.823   2.347   0.006
    1MUSC O04iw28394   8.951   2.632   0.681
    1MUSC O04ix28395   9.303   2.347   3.691
    1MUSC O04iy28396   8.991   2.632   1.010
    1MUSC O04iz28397   9.084   2.663   3.461
    1MUSC O04j028398   8.690   2.316   1.240
    1MUSC O04j128399   9.042   2.663   0.236
    1MUSC O04j228400   9.253   2.316   0.451
    1MUSC O04j328401   9.089   2.033   0.236
    1MUSC O04j428402   9.206   2.041   0.451
    1MUSC O04j528403   9.037   2.033   3.461
    1MUSC O04j628404   8.737   2.041   1.240
    1MUSC O04j728405   9.344   1.853   3.453
    1MUSC O04j828406   8.950   2.221   1.248
    1MUSC O04j928407   8.781   1.853   0.245
    1MUSC O04jA28408   8.993   2.221   0.442
    1MUSC O04jB28409   9.204   2.101   3.672
    1MUSC O04jC28410   9.090   1.972   1.029
    1MUSC O04jD28411   8.921   2.101   0.025
    1MUSC O04jE28412   8.852   1.972   0.662
    1MUSC O04jF28413   9.183   2.139   0.006
    1MUSC O04jG28414   9.112   1.935   0.681
    1MUSC O04jH28415   8.943   2.139   3.692
    1MUSC O04jI28416   8.831   1.935   1.009
    1MUSC O04jJ28417   9.083   1.895   0.006
    1MUSC O04jK28418   9.212   2.179   0.681
    1MUSC O04jL28419   9.043   1.895   3.691
    1MUSC O04jM28420   8.731   2.179   1.010
    1MUSC O04jN28421   9.344   2.211   3.461
    1MUSC O04jO28422   8.950   1.863   1.240
    1MUSC O04jP28423   8.781   2.211   0.236
    1MUSC O04jQ28424   8.993   1.863   0.451
    1MUSC K00IL28425   8.880   2.353   1.849
    1MUSC K00IM28426   8.528   2.626   2.852
    1MUSC K00IN28427   8.620   1.901   1.849
    1MUSC K00IO28428   8.788   2.173   2.852
    1MUSC Al0mv28429   8.707   2.337   2.350
    1MUSC Al0mw28430   8.701   2.642   2.351
    1MUSC Al0mx28431   9.052   2.337   1.348
    1MUSC Al0my28432   8.876   2.642   3.353
    1MUSC Al0mz28433   8.967   1.884   2.350
    1MUSC Al0n028434   8.961   2.189   2.351
    1MUSC Al0n128435   8.792   1.884   1.348
    1MUSC Al0n228436   8.616   2.189   3.353
    1MUSC Si1Zp28437   8.883   2.652   1.614
    1MUSC Si1Zq28438   8.525   2.327   3.087
    1MUSC Si1Zr28439   8.877   2.652   2.084
    1MUSC Si1Zs28440   9.052   2.327   2.617
    1MUSC Si1Zt28441   8.623   2.497   2.084
    1MUSC Si1Zu28442   8.784   2.482   2.617
    1MUSC Si1Zv28443   9.136   2.497   1.613
    1MUSC Si1Zw28444   8.792   2.482   3.088
    1MUSC Si1Zx28445   9.143   2.199   1.614
    1MUSC Si1Zy28446   8.785   1.874   3.087
    1MUSC Si1Zz28447   8.617   2.199   2.084
    1MUSC Si1a028448   8.791   1.874   2.617
    1MUSC Si1a128449   8.884   2.044   2.084
    1MUSC Si1a228450   9.045   2.030   2.617
    1MUSC Si1a328451   8.876   2.044   1.613
    1MUSC Si1a428452   8.532   2.030   3.088
    1MUSC O04jR28453   8.646   2.485   2.243
    1MUSC O04jS28454   8.762   2.494   2.458
    1MUSC O04jT28455   9.114   2.485   1.454
    1MUSC O04jU28456   8.814   2.494   3.247
    1MUSC O04jV28457   8.901   2.305   1.446
    1MUSC O04jW28458   8.507   2.674   3.255
    1MUSC O04jX28459   8.859   2.305   2.252
    1MUSC O04jY28460   9.070   2.674   2.449
    1MUSC O04jZ28461   8.761   2.554   1.665
    1MUSC O04ja28462   8.647   2.425   3.036
    1MUSC O04jb28463   8.999   2.554   2.032
    1MUSC O04jc28464   8.930   2.425   2.669
    1MUSC O04jd28465   8.739   2.591   2.013
    1MUSC O04je28466   8.668   2.388   2.688
    1MUSC O04jf28467   9.020   2.591   1.685
    1MUSC O04jg28468   8.908   2.388   3.016
    1MUSC O04jh28469   8.640   2.347   2.013
    1MUSC O04ji28470   8.768   2.632   2.688
    1MUSC O04jj28471   9.120   2.347   1.684
    1MUSC O04jk28472   8.808   2.632   3.017
    1MUSC O04jl28473   8.901   2.663   1.454
    1MUSC O04jm28474   8.507   2.316   3.247
    1MUSC O04jn28475   8.859   2.663   2.243
    1MUSC O04jo28476   9.070   2.316   2.458
    1MUSC O04jp28477   8.906   2.033   2.243
    1MUSC O04jq28478   9.023   2.041   2.458
    1MUSC O04jr28479   8.854   2.033   1.454
    1MUSC O04js28480   8.554   2.041   3.247
    1MUSC O04jt28481   9.161   1.853   1.446
    1MUSC O04ju28482   8.767   2.221   3.255
    1MUSC O04jv28483   8.598   1.853   2.252
    1MUSC O04jw28484   8.810   2.221   2.449
    1MUSC O04jx28485   9.021   2.101   1.665
    1MUSC O04jy28486   8.907   1.972   3.036
    1MUSC O04jz28487   8.738   2.101   2.032
    1MUSC O04k028488   8.669   1.972   2.669
    1MUSC O04k128489   9.000   2.139   2.013
    1MUSC O04k228490   8.929   1.935   2.688
    1MUSC O04k328491   8.760   2.139   1.685
    1MUSC O04k428492   8.648   1.935   3.016
    1MUSC O04k528493   8.900   1.895   2.013
    1MUSC O04k628494   9.029   2.179   2.688
    1MUSC O04k728495   8.860   1.895   1.684
    1MUSC O04k828496   8.548   2.179   3.017
    1MUSC O04k928497   9.161   2.211   1.454
    1MUSC O04kA28498   8.767   1.863   3.247
    1MUSC O04kB28499   8.598   2.211   2.243
    1MUSC O04kC28500   8.810   1.863   2.458
    1MUSC K00IP28501   8.711   3.531   0.845
    1MUSC K00IQ28502   8.971   3.078   0.845
    1MUSC Al0n328503   8.890   3.242   0.343
    1MUSC Al0n428504   8.884   3.547   0.344
    1MUSC Al0n528505   9.235   3.242   3.355
    1MUSC Al0n628506   9.059   3.547   1.346
    1MUSC Al0n728507   9.150   2.790   0.343
    1MUSC Al0n828508   9.144   3.095   0.344
    1MUSC Al0n928509   8.975   2.790   3.355
    1MUSC Al0nA28510   8.799   3.095   1.346
    1MUSC Si1a528511   9.066   3.557   3.621
    1MUSC Si1a628512   8.708   3.232   1.080
    1MUSC Si1a728513   9.060   3.557   0.077
    1MUSC Si1a828514   9.235   3.232   0.610
    1MUSC Si1a928515   8.806   3.402   0.077
    1MUSC Si1aA28516   8.967   3.388   0.610
    1MUSC Si1aB28517   9.319   3.402   3.620
    1MUSC Si1aC28518   8.975   3.388   1.081
    1MUSC Si1aD28519   9.326   3.105   3.621
    1MUSC Si1aE28520   8.968   2.780   1.080
    1MUSC Si1aF28521   8.800   3.105   0.077
    1MUSC Si1aG28522   8.974   2.780   0.610
    1MUSC Si1aH28523   9.067   2.949   0.077
    1MUSC Si1aI28524   9.228   2.935   0.610
    1MUSC Si1aJ28525   9.059   2.949   3.620
    1MUSC Si1aK28526   8.715   2.935   1.081
    1MUSC O04kD28527   8.829   3.391   0.236
    1MUSC O04kE28528   8.945   3.399   0.451
    1MUSC O04kF28529   9.297   3.391   3.461
    1MUSC O04kG28530   8.997   3.399   1.240
    1MUSC O04kH28531   9.084   3.211   3.453
    1MUSC O04kI28532   8.690   3.579   1.248
    1MUSC O04kJ28533   9.042   3.211   0.245
    1MUSC O04kK28534   9.253   3.579   0.442
    1MUSC O04kL28535   8.944   3.459   3.672
    1MUSC O04kM28536   8.830   3.330   1.029
    1MUSC O04kN28537   9.182   3.459   0.025
    1MUSC O04kO28538   9.113   3.330   0.662
    1MUSC O04kP28539   8.922   3.496   0.006
    1MUSC O04kQ28540   8.851   3.293   0.681
    1MUSC O04kR28541   9.203   3.496   3.692
    1MUSC O04kS28542   9.091   3.293   1.009
    1MUSC O04kT28543   8.823   3.253   0.006
    1MUSC O04kU28544   8.951   3.537   0.681
    1MUSC O04kV28545   9.303   3.253   3.691
    1MUSC O04kW28546   8.991   3.537   1.010
    1MUSC O04kX28547   9.084   3.569   3.461
    1MUSC O04kY28548   8.690   3.221   1.240
    1MUSC O04kZ28549   9.042   3.569   0.236
    1MUSC O04ka28550   9.253   3.221   0.451
    1MUSC O04kb28551   9.089   2.938   0.236
    1MUSC O04kc28552   9.206   2.946   0.451
    1MUSC O04kd28553   9.037   2.938   3.461
    1MUSC O04ke28554   8.737   2.946   1.240
    1MUSC O04kf28555   9.344   2.758   3.453
    1MUSC O04kg28556   8.950   3.126   1.248
    1MUSC O04kh28557   8.781   2.758   0.245
    1MUSC O04ki28558   8.993   3.126   0.442
    1MUSC O04kj28559   9.204   3.007   3.672
    1MUSC O04kk28560   9.090   2.877   1.029
    1MUSC O04kl28561   8.921   3.007   0.025
    1MUSC O04km28562   8.852   2.877   0.662
    1MUSC O04kn28563   9.183   3.044   0.006
    1MUSC O04ko28564   9.112   2.840   0.681
    1MUSC O04kp28565   8.943   3.044   3.692
    1MUSC O04kq28566   8.831   2.840   1.009
    1MUSC O04kr28567   9.083   2.800   0.006
    1MUSC O04ks28568   9.212   3.084   0.681
    1MUSC O04kt28569   9.043   2.800   3.691
    1MUSC O04ku28570   8.731   3.084   1.010
    1MUSC O04kv28571   9.344   3.116   3.461
    1MUSC O04kw28572   8.950   2.768   1.240
    1MUSC O04kx28573   8.781   3.116   0.236
    1MUSC O04ky28574   8.993   2.768   0.451
    1MUSC K00IR28575   8.880   3.259   1.849
    1MUSC K00IS28576   8.528   3.531   2.852
    1MUSC K00IT28577   8.620   2.806   1.849
    1MUSC K00IU28578   8.788   3.078   2.852
    1MUSC Al0nB28579   8.707   3.242   2.350
    1MUSC Al0nC28580   8.701   3.547   2.351
    1MUSC Al0nD28581   9.052   3.242   1.348
    1MUSC Al0nE28582   8.876   3.547   3.353
    1MUSC Al0nF28583   8.967   2.790   2.350
    1MUSC Al0nG28584   8.961   3.095   2.351
    1MUSC Al0nH28585   8.792   2.790   1.348
    1MUSC Al0nI28586   8.616   3.095   3.353
    1MUSC Si1aL28587   8.883   3.557   1.614
    1MUSC Si1aM28588   8.525   3.232   3.087
    1MUSC Si1aN28589   8.877   3.557   2.084
    1MUSC Si1aO28590   9.052   3.232   2.617
    1MUSC Si1aP28591   8.623   3.402   2.084
    1MUSC Si1aQ28592   8.784   3.388   2.617
    1MUSC Si1aR28593   9.136   3.402   1.613
    1MUSC Si1aS28594   8.792   3.388   3.088
    1MUSC Si1aT28595   9.143   3.105   1.614
    1MUSC Si1aU28596   8.785   2.780   3.087
    1MUSC Si1aV28597   8.617   3.105   2.084
    1MUSC Si1aW28598   8.791   2.780   2.617
    1MUSC Si1aX28599   8.884   2.949   2.084
    1MUSC Si1aY28600   9.045   2.935   2.617
    1MUSC Si1aZ28601   8.876   2.949   1.613
    1MUSC Si1aa28602   8.532   2.935   3.088
    1MUSC O04kz28603   8.646   3.391   2.243
    1MUSC O04l028604   8.762   3.399   2.458
    1MUSC O04l128605   9.114   3.391   1.454
    1MUSC O04l228606   8.814   3.399   3.247
    1MUSC O04l328607   8.901   3.211   1.446
    1MUSC O04l428608   8.507   3.579   3.255
    1MUSC O04l528609   8.859   3.211   2.252
    1MUSC O04l628610   9.070   3.579   2.449
    1MUSC O04l728611   8.761   3.459   1.665
    1MUSC O04l828612   8.647   3.330   3.036
    1MUSC O04l928613   8.999   3.459   2.032
    1MUSC O04lA28614   8.930   3.330   2.669
    1MUSC O04lB28615   8.739   3.496   2.013
    1MUSC O04lC28616   8.668   3.293   2.688
    1MUSC O04lD28617   9.020   3.496   1.685
    1MUSC O04lE28618   8.908   3.293   3.016
    1MUSC O04lF28619   8.640   3.253   2.013
    1MUSC O04lG28620   8.768   3.537   2.688
    1MUSC O04lH28621   9.120   3.253   1.684
    1MUSC O04lI28622   8.808   3.537   3.017
    1MUSC O04lJ28623   8.901   3.569   1.454
    1MUSC O04lK28624   8.507   3.221   3.247
    1MUSC O04lL28625   8.859   3.569   2.243
    1MUSC O04lM28626   9.070   3.221   2.458
    1MUSC O04lN28627   8.906   2.938   2.243
    1MUSC O04lO28628   9.023   2.946   2.458
    1MUSC O04lP28629   8.854   2.938   1.454
    1MUSC O04lQ28630   8.554   2.946   3.247
    1MUSC O04lR28631   9.161   2.758   1.446
    1MUSC O04lS28632   8.767   3.126   3.255
    1MUSC O04lT28633   8.598   2.758   2.252
    1MUSC O04lU28634   8.810   3.126   2.449
    1MUSC O04lV28635   9.021   3.007   1.665
    1MUSC O04lW28636   8.907   2.877   3.036
    1MUSC O04lX28637   8.738   3.007   2.032
    1MUSC O04lY28638   8.669   2.877   2.669
    1MUSC O04lZ28639   9.000   3.044   2.013
    1MUSC O04la28640   8.929   2.840   2.688
    1MUSC O04lb28641   8.760   3.044   1.685
    1MUSC O04lc28642   8.648   2.840   3.016
    1MUSC O04ld28643   8.900   2.800   2.013
    1MUSC O04le28644   9.029   3.084   2.688
    1MUSC O04lf28645   8.860   2.800   1.684
    1MUSC O04lg28646   8.548   3.084   3.017
    1MUSC O04lh28647   9.161   3.116   1.454
    1MUSC O04li28648   8.767   2.768   3.247
    1MUSC O04lj28649   8.598   3.116   2.243
    1MUSC O04lk28650   8.810   2.768   2.458
    1MUSC K00IV28651   8.711   4.436   0.845
    1MUSC K00IW28652   8.971   3.983   0.845
    1MUSC Al0nJ28653   8.890   4.147   0.343
    1MUSC Al0nK28654   8.884   4.453   0.344
    1MUSC Al0nL28655   9.235   4.147   3.355
    1MUSC Al0nM28656   9.059   4.453   1.346
    1MUSC Al0nN28657   9.150   3.695   0.343
    1MUSC Al0nO28658   9.144   4.000   0.344
    1MUSC Al0nP28659   8.975   3.695   3.355
    1MUSC Al0nQ28660   8.799   4.000   1.346
    1MUSC Si1ab28661   9.066   4.462   3.621
    1MUSC Si1ac28662   8.708   4.138   1.080
    1MUSC Si1ad28663   9.060   4.462   0.077
    1MUSC Si1ae28664   9.235   4.138   0.610
    1MUSC Si1af28665   8.806   4.307   0.077
    1MUSC Si1ag28666   8.967   4.293   0.610
    1MUSC Si1ah28667   9.319   4.307   3.620
    1MUSC Si1ai28668   8.975   4.293   1.081
    1MUSC Si1aj28669   9.326   4.010   3.621
    1MUSC Si1ak28670   8.968   3.685   1.080
    1MUSC Si1al28671   8.800   4.010   0.077
    1MUSC Si1am28672   8.974   3.685   0.610
    1MUSC Si1an28673   9.067   3.855   0.077
    1MUSC Si1ao28674   9.228   3.840   0.610
    1MUSC Si1ap28675   9.059   3.855   3.620
    1MUSC Si1aq28676   8.715   3.840   1.081
    1MUSC O04ll28677   8.829   4.296   0.236
    1MUSC O04lm28678   8.945   4.304   0.451
    1MUSC O04ln28679   9.297   4.296   3.461
    1MUSC O04lo28680   8.997   4.304   1.240
    1MUSC O04lp28681   9.084   4.116   3.453
    1MUSC O04lq28682   8.690   4.484   1.248
    1MUSC O04lr28683   9.042   4.116   0.245
    1MUSC O04ls28684   9.253   4.484   0.442
    1MUSC O04lt28685   8.944   4.365   3.672
    1MUSC O04lu28686   8.830   4.235   1.029
    1MUSC O04lv28687   9.182   4.365   0.025
    1MUSC O04lw28688   9.113   4.235   0.662
    1MUSC O04lx28689   8.922   4.402   0.006
    1MUSC O04ly28690   8.851   4.198   0.681
    1MUSC O04lz28691   9.203   4.402   3.692
    1MUSC O04m028692   9.091   4.198   1.009
    1MUSC O04m128693   8.823   4.158   0.006
    1MUSC O04m228694   8.951   4.442   0.681
    1MUSC O04m328695   9.303   4.158   3.691
    1MUSC O04m428696   8.991   4.442   1.010
    1MUSC O04m528697   9.084   4.474   3.461
    1MUSC O04m628698   8.690   4.126   1.240
    1MUSC O04m728699   9.042   4.474   0.236
    1MUSC O04m828700   9.253   4.126   0.451
    1MUSC O04m928701   9.089   3.843   0.236
    1MUSC O04mA28702   9.206   3.852   0.451
    1MUSC O04mB28703   9.037   3.843   3.461
    1MUSC O04mC28704   8.737   3.852   1.240
    1MUSC O04mD28705   9.344   3.663   3.453
    1MUSC O04mE28706   8.950   4.031   1.248
    1MUSC O04mF28707   8.781   3.663   0.245
    1MUSC O04mG28708   8.993   4.031   0.442
    1MUSC O04mH28709   9.204   3.912   3.672
    1MUSC O04mI28710   9.090   3.783   1.029
    1MUSC O04mJ28711   8.921   3.912   0.025
    1MUSC O04mK28712   8.852   3.783   0.662
    1MUSC O04mL28713   9.183   3.949   0.006
    1MUSC O04mM28714   9.112   3.746   0.681
    1MUSC O04mN28715   8.943   3.949   3.692
    1MUSC O04mO28716   8.831   3.746   1.009
    1MUSC O04mP28717   9.083   3.705   0.006
    1MUSC O04mQ28718   9.212   3.989   0.681
    1MUSC O04mR28719   9.043   3.705   3.691
    1MUSC O04mS28720   8.731   3.989   1.010
    1MUSC O04mT28721   9.344   4.021   3.461
    1MUSC O04mU28722   8.950   3.673   1.240
    1MUSC O04mV28723   8.781   4.021   0.236
    1MUSC O04mW28724   8.993   3.673   0.451
    1MUSC K00IX28725   8.880   4.164   1.849
    1MUSC K00IY28726   8.528   4.436   2.852
    1MUSC K00IZ28727   8.620   3.711   1.849
    1MUSC K00Ia28728   8.788   3.983   2.852
    1MUSC Al0nR28729   8.707   4.147   2.350
    1MUSC Al0nS28730   8.701   4.453   2.351
    1MUSC Al0nT28731   9.052   4.147   1.348
    1MUSC Al0nU28732   8.876   4.453   3.353
    1MUSC Al0nV28733   8.967   3.695   2.350
    1MUSC Al0nW28734   8.961   4.000   2.351
    1MUSC Al0nX28735   8.792   3.695   1.348
    1MUSC Al0nY28736   8.616   4.000   3.353
    1MUSC Si1ar28737   8.883   4.462   1.614
    1MUSC Si1as28738   8.525   4.138   3.087
    1MUSC Si1at28739   8.877   4.462   2.084
    1MUSC Si1au28740   9.052   4.138   2.617
    1MUSC Si1av28741   8.623   4.307   2.084
    1MUSC Si1aw28742   8.784   4.293   2.617
    1MUSC Si1ax28743   9.136   4.307   1.613
    1MUSC Si1ay28744   8.792   4.293   3.088
    1MUSC Si1az28745   9.143   4.010   1.614
    1MUSC Si1b028746   8.785   3.685   3.087
    1MUSC Si1b128747   8.617   4.010   2.084
    1MUSC Si1b228748   8.791   3.685   2.617
    1MUSC Si1b328749   8.884   3.855   2.084
    1MUSC Si1b428750   9.045   3.840   2.617
    1MUSC Si1b528751   8.876   3.855   1.613
    1MUSC Si1b628752   8.532   3.840   3.088
    1MUSC O04mX28753   8.646   4.296   2.243
    1MUSC O04mY28754   8.762   4.304   2.458
    1MUSC O04mZ28755   9.114   4.296   1.454
    1MUSC O04ma28756   8.814   4.304   3.247
    1MUSC O04mb28757   8.901   4.116   1.446
    1MUSC O04mc28758   8.507   4.484   3.255
    1MUSC O04md28759   8.859   4.116   2.252
    1MUSC O04me28760   9.070   4.484   2.449
    1MUSC O04mf28761   8.761   4.365   1.665
    1MUSC O04mg28762   8.647   4.235   3.036
    1MUSC O04mh28763   8.999   4.365   2.032
    1MUSC O04mi28764   8.930   4.235   2.669
    1MUSC O04mj28765   8.739   4.402   2.013
    1MUSC O04mk28766   8.668   4.198   2.688
    1MUSC O04ml28767   9.020   4.402   1.685
    1MUSC O04mm28768   8.908   4.198   3.016
    1MUSC O04mn28769   8.640   4.158   2.013
    1MUSC O04mo28770   8.768   4.442   2.688
    1MUSC O04mp28771   9.120   4.158   1.684
    1MUSC O04mq28772   8.808   4.442   3.017
    1MUSC O04mr28773   8.901   4.474   1.454
    1MUSC O04ms28774   8.507   4.126   3.247
    1MUSC O04mt28775   8.859   4.474   2.243
    1MUSC O04mu28776   9.070   4.126   2.458
    1MUSC O04mv28777   8.906   3.843   2.243
    1MUSC O04mw28778   9.023   3.852   2.458
    1MUSC O04mx28779   8.854   3.843   1.454
    1MUSC O04my28780   8.554   3.852   3.247
    1MUSC O04mz28781   9.161   3.663   1.446
    1MUSC O04n028782   8.767   4.031   3.255
    1MUSC O04n128783   8.598   3.663   2.252
    1MUSC O04n228784   8.810   4.031   2.449
    1MUSC O04n328785   9.021   3.912   1.665
    1MUSC O04n428786   8.907   3.783   3.036
    1MUSC O04n528787   8.738   3.912   2.032
    1MUSC O04n628788   8.669   3.783   2.669
    1MUSC O04n728789   9.000   3.949   2.013
    1MUSC O04n828790   8.929   3.746   2.688
    1MUSC O04n928791   8.760   3.949   1.685
    1MUSC O04nA28792   8.648   3.746   3.016
    1MUSC O04nB28793   8.900   3.705   2.013
    1MUSC O04nC28794   9.029   3.989   2.688
    1MUSC O04nD28795   8.860   3.705   1.684
    1MUSC O04nE28796   8.548   3.989   3.017
    1MUSC O04nF28797   9.161   4.021   1.454
    1MUSC O04nG28798   8.767   3.673   3.247
    1MUSC O04nH28799   8.598   4.021   2.243
    1MUSC O04nI28800   8.810   3.673   2.458
    1MUSC K00Ib28801   8.711   5.341   0.845
    1MUSC K00Ic28802   8.971   4.889   0.845
    1MUSC Al0nZ28803   8.890   5.053   0.343
    1MUSC Al0na28804   8.884   5.358   0.344
    1MUSC Al0nb28805   9.235   5.053   3.355
    1MUSC Al0nc28806   9.059   5.358   1.346
    1MUSC Al0nd28807   9.150   4.600   0.343
    1MUSC Al0ne28808   9.144   4.905   0.344
    1MUSC Al0nf28809   8.975   4.600   3.355
    1MUSC Al0ng28810   8.799   4.905   1.346
    1MUSC Si1b728811   9.066   5.368   3.621
    1MUSC Si1b828812   8.708   5.043   1.080
    1MUSC Si1b928813   9.060   5.368   0.077
    1MUSC Si1bA28814   9.235   5.043   0.610
    1MUSC Si1bB28815   8.806   5.212   0.077
    1MUSC Si1bC28816   8.967   5.198   0.610
    1MUSC Si1bD28817   9.319   5.212   3.620
    1MUSC Si1bE28818   8.975   5.198   1.081
    1MUSC Si1bF28819   9.326   4.915   3.621
    1MUSC Si1bG28820   8.968   4.590   1.080
    1MUSC Si1bH28821   8.800   4.915   0.077
    1MUSC Si1bI28822   8.974   4.590   0.610
    1MUSC Si1bJ28823   9.067   4.760   0.077
    1MUSC Si1bK28824   9.228   4.746   0.610
    1MUSC Si1bL28825   9.059   4.760   3.620
    1MUSC Si1bM28826   8.715   4.746   1.081
    1MUSC O04nJ28827   8.829   5.201   0.236
    1MUSC O04nK28828   8.945   5.209   0.451
    1MUSC O04nL28829   9.297   5.201   3.461
    1MUSC O04nM28830   8.997   5.209   1.240
    1MUSC O04nN28831   9.084   5.021   3.453
    1MUSC O04nO28832   8.690   5.389   1.248
    1MUSC O04nP28833   9.042   5.021   0.245
    1MUSC O04nQ28834   9.253   5.389   0.442
    1MUSC O04nR28835   8.944   5.270   3.672
    1MUSC O04nS28836   8.830   5.141   1.029
    1MUSC O04nT28837   9.182   5.270   0.025
    1MUSC O04nU28838   9.113   5.141   0.662
    1MUSC O04nV28839   8.922   5.307   0.006
    1MUSC O04nW28840   8.851   5.104   0.681
    1MUSC O04nX28841   9.203   5.307   3.692
    1MUSC O04nY28842   9.091   5.104   1.009
    1MUSC O04nZ28843   8.823   5.063   0.006
    1MUSC O04na28844   8.951   5.347   0.681
    1MUSC O04nb28845   9.303   5.063   3.691
    1MUSC O04nc28846   8.991   5.347   1.010
    1MUSC O04nd28847   9.084   5.379   3.461
    1MUSC O04ne28848   8.690   5.031   1.240
    1MUSC O04nf28849   9.042   5.379   0.236
    1MUSC O04ng28850   9.253   5.031   0.451
    1MUSC O04nh28851   9.089   4.749   0.236
    1MUSC O04ni28852   9.206   4.757   0.451
    1MUSC O04nj28853   9.037   4.749   3.461
    1MUSC O04nk28854   8.737   4.757   1.240
    1MUSC O04nl28855   9.344   4.569   3.453
    1MUSC O04nm28856   8.950   4.937   1.248
    1MUSC O04nn28857   8.781   4.569   0.245
    1MUSC O04no28858   8.993   4.937   0.442
    1MUSC O04np28859   9.204   4.817   3.672
    1MUSC O04nq28860   9.090   4.688   1.029
    1MUSC O04nr28861   8.921   4.817   0.025
    1MUSC O04ns28862   8.852   4.688   0.662
    1MUSC O04nt28863   9.183   4.854   0.006
    1MUSC O04nu28864   9.112   4.651   0.681
    1MUSC O04nv28865   8.943   4.854   3.692
    1MUSC O04nw28866   8.831   4.651   1.009
    1MUSC O04nx28867   9.083   4.611   0.006
    1MUSC O04ny28868   9.212   4.895   0.681
    1MUSC O04nz28869   9.043   4.611   3.691
    1MUSC O04o028870   8.731   4.895   1.010
    1MUSC O04o128871   9.344   4.927   3.461
    1MUSC O04o228872   8.950   4.579   1.240
    1MUSC O04o328873   8.781   4.927   0.236
    1MUSC O04o428874   8.993   4.579   0.451
    1MUSC K00Id28875   8.880   5.069   1.849
    1MUSC K00Ie28876   8.528   5.341   2.852
    1MUSC K00If28877   8.620   4.617   1.849
    1MUSC K00Ig28878   8.788   4.889   2.852
    1MUSC Al0nh28879   8.707   5.053   2.350
    1MUSC Al0ni28880   8.701   5.358   2.351
    1MUSC Al0nj28881   9.052   5.053   1.348
    1MUSC Al0nk28882   8.876   5.358   3.353
    1MUSC Al0nl28883   8.967   4.600   2.350
    1MUSC Al0nm28884   8.961   4.905   2.351
    1MUSC Al0nn28885   8.792   4.600   1.348
    1MUSC Al0no28886   8.616   4.905   3.353
    1MUSC Si1bN28887   8.883   5.368   1.614
    1MUSC Si1bO28888   8.525   5.043   3.087
    1MUSC Si1bP28889   8.877   5.368   2.084
    1MUSC Si1bQ28890   9.052   5.043   2.617
    1MUSC Si1bR28891   8.623   5.212   2.084
    1MUSC Si1bS28892   8.784   5.198   2.617
    1MUSC Si1bT28893   9.136   5.212   1.613
    1MUSC Si1bU28894   8.792   5.198   3.088
    1MUSC Si1bV28895   9.143   4.915   1.614
    1MUSC Si1bW28896   8.785   4.590   3.087
    1MUSC Si1bX28897   8.617   4.915   2.084
    1MUSC Si1bY28898   8.791   4.590   2.617
    1MUSC Si1bZ28899   8.884   4.760   2.084
    1MUSC Si1ba28900   9.045   4.746   2.617
    1MUSC Si1bb28901   8.876   4.760   1.613
    1MUSC Si1bc28902   8.532   4.746   3.088
    1MUSC O04o528903   8.646   5.201   2.243
    1MUSC O04o628904   8.762   5.209   2.458
    1MUSC O04o728905   9.114   5.201   1.454
    1MUSC O04o828906   8.814   5.209   3.247
    1MUSC O04o928907   8.901   5.021   1.446
    1MUSC O04oA28908   8.507   5.389   3.255
    1MUSC O04oB28909   8.859   5.021   2.252
    1MUSC O04oC28910   9.070   5.389   2.449
    1MUSC O04oD28911   8.761   5.270   1.665
    1MUSC O04oE28912   8.647   5.141   3.036
    1MUSC O04oF28913   8.999   5.270   2.032
    1MUSC O04oG28914   8.930   5.141   2.669
    1MUSC O04oH28915   8.739   5.307   2.013
    1MUSC O04oI28916   8.668   5.104   2.688
    1MUSC O04oJ28917   9.020   5.307   1.685
    1MUSC O04oK28918   8.908   5.104   3.016
    1MUSC O04oL28919   8.640   5.063   2.013
    1MUSC O04oM28920   8.768   5.347   2.688
    1MUSC O04oN28921   9.120   5.063   1.684
    1MUSC O04oO28922   8.808   5.347   3.017
    1MUSC O04oP28923   8.901   5.379   1.454
    1MUSC O04oQ28924   8.507   5.031   3.247
    1MUSC O04oR28925   8.859   5.379   2.243
    1MUSC O04oS28926   9.070   5.031   2.458
    1MUSC O04oT28927   8.906   4.749   2.243
    1MUSC O04oU28928   9.023   4.757   2.458
    1MUSC O04oV28929   8.854   4.749   1.454
    1MUSC O04oW28930   8.554   4.757   3.247
    1MUSC O04oX28931   9.161   4.569   1.446
    1MUSC O04oY28932   8.767   4.937   3.255
    1MUSC O04oZ28933   8.598   4.569   2.252
    1MUSC O04oa28934   8.810   4.937   2.449
    1MUSC O04ob28935   9.021   4.817   1.665
    1MUSC O04oc28936   8.907   4.688   3.036
    1MUSC O04od28937   8.738   4.817   2.032
    1MUSC O04oe28938   8.669   4.688   2.669
    1MUSC O04of28939   9.000   4.854   2.013
    1MUSC O04og28940   8.929   4.651   2.688
    1MUSC O04oh28941   8.760   4.854   1.685
    1MUSC O04oi28942   8.648   4.651   3.016
    1MUSC O04oj28943   8.900   4.611   2.013
    1MUSC O04ok28944   9.029   4.895   2.688
    1MUSC O04ol28945   8.860   4.611   1.684
    1MUSC O04om28946   8.548   4.895   3.017
    1MUSC O04on28947   9.161   4.927   1.454
    1MUSC O04oo28948   8.767   4.579   3.247
    1MUSC O04op28949   8.598   4.927   2.243
    1MUSC O04oq28950   8.810   4.579   2.458
    1MUSC K00Ih28951   8.711   6.247   0.845
    1MUSC K00Ii28952   8.971   5.794   0.845
    1MUSC Al0np28953   8.890   5.958   0.343
    1MUSC Al0nq28954   8.884   6.263   0.344
    1MUSC Al0nr28955   9.235   5.958   3.355
    1MUSC Al0ns28956   9.059   6.263   1.346
    1MUSC Al0nt28957   9.150   5.505   0.343
    1MUSC Al0nu28958   9.144   5.810   0.344
    1MUSC Al0nv28959   8.975   5.505   3.355
    1MUSC Al0nw28960   8.799   5.810   1.346
    1MUSC Si1bd28961   9.066   6.273   3.621
    1MUSC Si1be28962   8.708   5.948   1.080
    1MUSC Si1bf28963   9.060   6.273   0.077
    1MUSC Si1bg28964   9.235   5.948   0.610
    1MUSC Si1bh28965   8.806   6.118   0.077
    1MUSC Si1bi28966   8.967   6.103   0.610
    1MUSC Si1bj28967   9.319   6.118   3.620
    1MUSC Si1bk28968   8.975   6.103   1.081
    1MUSC Si1bl28969   9.326   5.820   3.621
    1MUSC Si1bm28970   8.968   5.495   1.080
    1MUSC Si1bn28971   8.800   5.820   0.077
    1MUSC Si1bo28972   8.974   5.495   0.610
    1MUSC Si1bp28973   9.067   5.665   0.077
    1MUSC Si1bq28974   9.228   5.651   0.610
    1MUSC Si1br28975   9.059   5.665   3.620
    1MUSC Si1bs28976   8.715   5.651   1.081
    1MUSC O04or28977   8.829   6.106   0.236
    1MUSC O04os28978   8.945   6.115   0.451
    1MUSC O04ot28979   9.297   6.106   3.461
    1MUSC O04ou28980   8.997   6.115   1.240
    1MUSC O04ov28981   9.084   5.927   3.453
    1MUSC O04ow28982   8.690   6.295   1.248
    1MUSC O04ox28983   9.042   5.927   0.245
    1MUSC O04oy28984   9.253   6.295   0.442
    1MUSC O04oz28985   8.944   6.175   3.672
    1MUSC O04p028986   8.830   6.046   1.029
    1MUSC O04p128987   9.182   6.175   0.025
    1MUSC O04p228988   9.113   6.046   0.662
    1MUSC O04p328989   8.922   6.212   0.006
    1MUSC O04p428990   8.851   6.009   0.681
    1MUSC O04p528991   9.203   6.212   3.692
    1MUSC O04p628992   9.091   6.009   1.009
    1MUSC O04p728993   8.823   5.969   0.006
    1MUSC O04p828994   8.951   6.253   0.681
    1MUSC O04p928995   9.303   5.969   3.691
    1MUSC O04pA28996   8.991   6.253   1.010
    1MUSC O04pB28997   9.084   6.285   3.461
    1MUSC O04pC28998   8.690   5.937   1.240
    1MUSC O04pD28999   9.042   6.285   0.236
    1MUSC O04pE29000   9.253   5.937   0.451
    1MUSC O04pF29001   9.089   5.654   0.236
    1MUSC O04pG29002   9.206   5.662   0.451
    1MUSC O04pH29003   9.037   5.654   3.461
    1MUSC O04pI29004   8.737   5.662   1.240
    1MUSC O04pJ29005   9.344   5.474   3.453
    1MUSC O04pK29006   8.950   5.842   1.248
    1MUSC O04pL29007   8.781   5.474   0.245
    1MUSC O04pM29008   8.993   5.842   0.442
    1MUSC O04pN29009   9.204   5.723   3.672
    1MUSC O04pO29010   9.090   5.593   1.029
    1MUSC O04pP29011   8.921   5.723   0.025
    1MUSC O04pQ29012   8.852   5.593   0.662
    1MUSC O04pR29013   9.183   5.760   0.006
    1MUSC O04pS29014   9.112   5.556   0.681
    1MUSC O04pT29015   8.943   5.760   3.692
    1MUSC O04pU29016   8.831   5.556   1.009
    1MUSC O04pV29017   9.083   5.516   0.006
    1MUSC O04pW29018   9.212   5.800   0.681
    1MUSC O04pX29019   9.043   5.516   3.691
    1MUSC O04pY29020   8.731   5.800   1.010
    1MUSC O04pZ29021   9.344   5.832   3.461
    1MUSC O04pa29022   8.950   5.484   1.240
    1MUSC O04pb29023   8.781   5.832   0.236
    1MUSC O04pc29024   8.993   5.484   0.451
    1MUSC K00Ij29025   8.880   5.975   1.849
    1MUSC K00Ik29026   8.528   6.247   2.852
    1MUSC K00Il29027   8.620   5.522   1.849
    1MUSC K00Im29028   8.788   5.794   2.852
    1MUSC Al0nx29029   8.707   5.958   2.350
    1MUSC Al0ny29030   8.701   6.263   2.351
    1MUSC Al0nz29031   9.052   5.958   1.348
    1MUSC Al0o029032   8.876   6.263   3.353
    1MUSC Al0o129033   8.967   5.505   2.350
    1MUSC Al0o229034   8.961   5.810   2.351
    1MUSC Al0o329035   8.792   5.505   1.348
    1MUSC Al0o429036   8.616   5.810   3.353
    1MUSC Si1bt29037   8.883   6.273   1.614
    1MUSC Si1bu29038   8.525   5.948   3.087
    1MUSC Si1bv29039   8.877   6.273   2.084
    1MUSC Si1bw29040   9.052   5.948   2.617
    1MUSC Si1bx29041   8.623   6.118   2.084
    1MUSC Si1by29042   8.784   6.103   2.617
    1MUSC Si1bz29043   9.136   6.118   1.613
    1MUSC Si1c029044   8.792   6.103   3.088
    1MUSC Si1c129045   9.143   5.820   1.614
    1MUSC Si1c229046   8.785   5.495   3.087
    1MUSC Si1c329047   8.617   5.820   2.084
    1MUSC Si1c429048   8.791   5.495   2.617
    1MUSC Si1c529049   8.884   5.665   2.084
    1MUSC Si1c629050   9.045   5.651   2.617
    1MUSC Si1c729051   8.876   5.665   1.613
    1MUSC Si1c829052   8.532   5.651   3.088
    1MUSC O04pd29053   8.646   6.106   2.243
    1MUSC O04pe29054   8.762   6.115   2.458
    1MUSC O04pf29055   9.114   6.106   1.454
    1MUSC O04pg29056   8.814   6.115   3.247
    1MUSC O04ph29057   8.901   5.927   1.446
    1MUSC O04pi29058   8.507   6.295   3.255
    1MUSC O04pj29059   8.859   5.927   2.252
    1MUSC O04pk29060   9.070   6.295   2.449
    1MUSC O04pl29061   8.761   6.175   1.665
    1MUSC O04pm29062   8.647   6.046   3.036
    1MUSC O04pn29063   8.999   6.175   2.032
    1MUSC O04po29064   8.930   6.046   2.669
    1MUSC O04pp29065   8.739   6.212   2.013
    1MUSC O04pq29066   8.668   6.009   2.688
    1MUSC O04pr29067   9.020   6.212   1.685
    1MUSC O04ps29068   8.908   6.009   3.016
    1MUSC O04pt29069   8.640   5.969   2.013
    1MUSC O04pu29070   8.768   6.253   2.688
    1MUSC O04pv29071   9.120   5.969   1.684
    1MUSC O04pw29072   8.808   6.253   3.017
    1MUSC O04px29073   8.901   6.285   1.454
    1MUSC O04py29074   8.507   5.937   3.247
    1MUSC O04pz29075   8.859   6.285   2.243
    1MUSC O04q029076   9.070   5.937   2.458
    1MUSC O04q129077   8.906   5.654   2.243
    1MUSC O04q229078   9.023   5.662   2.458
    1MUSC O04q329079   8.854   5.654   1.454
    1MUSC O04q429080   8.554   5.662   3.247
    1MUSC O04q529081   9.161   5.474   1.446
    1MUSC O04q629082   8.767   5.842   3.255
    1MUSC O04q729083   8.598   5.474   2.252
    1MUSC O04q829084   8.810   5.842   2.449
    1MUSC O04q929085   9.021   5.723   1.665
    1MUSC O04qA29086   8.907   5.593   3.036
    1MUSC O04qB29087   8.738   5.723   2.032
    1MUSC O04qC29088   8.669   5.593   2.669
    1MUSC O04qD29089   9.000   5.760   2.013
    1MUSC O04qE29090   8.929   5.556   2.688
    1MUSC O04qF29091   8.760   5.760   1.685
    1MUSC O04qG29092   8.648   5.556   3.016
    1MUSC O04qH29093   8.900   5.516   2.013
    1MUSC O04qI29094   9.029   5.800   2.688
    1MUSC O04qJ29095   8.860   5.516   1.684
    1MUSC O04qK29096   8.548   5.800   3.017
    1MUSC O04qL29097   9.161   5.832   1.454
    1MUSC O04qM29098   8.767   5.484   3.247
    1MUSC O04qN29099   8.598   5.832   2.243
    1MUSC O04qO29100   8.810   5.484   2.458
    1MUSC K00In29101   8.711   7.152   0.845
    1MUSC K00Io29102   8.971   6.699   0.845
    1MUSC Al0o529103   8.890   6.863   0.343
    1MUSC Al0o629104   8.884   7.168   0.344
    1MUSC Al0o729105   9.235   6.863   3.355
    1MUSC Al0o829106   9.059   7.168   1.346
    1MUSC Al0o929107   9.150   6.411   0.343
    1MUSC Al0oA29108   9.144   6.716   0.344
    1MUSC Al0oB29109   8.975   6.411   3.355
    1MUSC Al0oC29110   8.799   6.716   1.346
    1MUSC Si1c929111   9.066   7.178   3.621
    1MUSC Si1cA29112   8.708   6.853   1.080
    1MUSC Si1cB29113   9.060   7.178   0.077
    1MUSC Si1cC29114   9.235   6.853   0.610
    1MUSC Si1cD29115   8.806   7.023   0.077
    1MUSC Si1cE29116   8.967   7.009   0.610
    1MUSC Si1cF29117   9.319   7.023   3.620
    1MUSC Si1cG29118   8.975   7.009   1.081
    1MUSC Si1cH29119   9.326   6.726   3.621
    1MUSC Si1cI29120   8.968   6.401   1.080
    1MUSC Si1cJ29121   8.800   6.726   0.077
    1MUSC Si1cK29122   8.974   6.401   0.610
    1MUSC Si1cL29123   9.067   6.570   0.077
    1MUSC Si1cM29124   9.228   6.556   0.610
    1MUSC Si1cN29125   9.059   6.570   3.620
    1MUSC Si1cO29126   8.715   6.556   1.081
    1MUSC O04qP29127   8.829   7.012   0.236
    1MUSC O04qQ29128   8.945   7.020   0.451
    1MUSC O04qR29129   9.297   7.012   3.461
    1MUSC O04qS29130   8.997   7.020   1.240
    1MUSC O04qT29131   9.084   6.832   3.453
    1MUSC O04qU29132   8.690   7.200   1.248
    1MUSC O04qV29133   9.042   6.832   0.245
    1MUSC O04qW29134   9.253   7.200   0.442
    1MUSC O04qX29135   8.944   7.080   3.672
    1MUSC O04qY29136   8.830   6.951   1.029
    1MUSC O04qZ29137   9.182   7.080   0.025
    1MUSC O04qa29138   9.113   6.951   0.662
    1MUSC O04qb29139   8.922   7.117   0.006
    1MUSC O04qc29140   8.851   6.914   0.681
    1MUSC O04qd29141   9.203   7.117   3.692
    1MUSC O04qe29142   9.091   6.914   1.009
    1MUSC O04qf29143   8.823   6.874   0.006
    1MUSC O04qg29144   8.951   7.158   0.681
    1MUSC O04qh29145   9.303   6.874   3.691
    1MUSC O04qi29146   8.991   7.158   1.010
    1MUSC O04qj29147   9.084   7.190   3.461
    1MUSC O04qk29148   8.690   6.842   1.240
    1MUSC O04ql29149   9.042   7.190   0.236
    1MUSC O04qm29150   9.253   6.842   0.451
    1MUSC O04qn29151   9.089   6.559   0.236
    1MUSC O04qo29152   9.206   6.567   0.451
    1MUSC O04qp29153   9.037   6.559   3.461
    1MUSC O04qq29154   8.737   6.567   1.240
    1MUSC O04qr29155   9.344   6.379   3.453
    1MUSC O04qs29156   8.950   6.747   1.248
    1MUSC O04qt29157   8.781   6.379   0.245
    1MUSC O04qu29158   8.993   6.747   0.442
    1MUSC O04qv29159   9.204   6.628   3.672
    1MUSC O04qw29160   9.090   6.499   1.029
    1MUSC O04qx29161   8.921   6.628   0.025
    1MUSC O04qy29162   8.852   6.499   0.662
    1MUSC O04qz29163   9.183   6.665   0.006
    1MUSC O04r029164   9.112   6.462   0.681
    1MUSC O04r129165   8.943   6.665   3.692
    1MUSC O04r229166   8.831   6.462   1.009
    1MUSC O04r329167   9.083   6.421   0.006
    1MUSC O04r429168   9.212   6.705   0.681
    1MUSC O04r529169   9.043   6.421   3.691
    1MUSC O04r629170   8.731   6.705   1.010
    1MUSC O04r729171   9.344   6.737   3.461
    1MUSC O04r829172   8.950   6.389   1.240
    1MUSC O04r929173   8.781   6.737   0.236
    1MUSC O04rA29174   8.993   6.389   0.451
    1MUSC K00Ip29175   8.880   6.880   1.849
    1MUSC K00Iq29176   8.528   7.152   2.852
    1MUSC K00Ir29177   8.620   6.427   1.849
    1MUSC K00Is29178   8.788   6.699   2.852
    1MUSC Al0oD29179   8.707   6.863   2.350
    1MUSC Al0oE29180   8.701   7.168   2.351
    1MUSC Al0oF29181   9.052   6.863   1.348
    1MUSC Al0oG29182   8.876   7.168   3.353
    1MUSC Al0oH29183   8.967   6.411   2.350
    1MUSC Al0oI29184   8.961   6.716   2.351
    1MUSC Al0oJ29185   8.792   6.411   1.348
    1MUSC Al0oK29186   8.616   6.716   3.353
    1MUSC Si1cP29187   8.883   7.178   1.614
    1MUSC Si1cQ29188   8.525   6.853   3.087
    1MUSC Si1cR29189   8.877   7.178   2.084
    1MUSC Si1cS29190   9.052   6.853   2.617
    1MUSC Si1cT29191   8.623   7.023   2.084
    1MUSC Si1cU29192   8.784   7.009   2.617
    1MUSC Si1cV29193   9.136   7.023   1.613
    1MUSC Si1cW29194   8.792   7.009   3.088
    1MUSC Si1cX29195   9.143   6.726   1.614
    1MUSC Si1cY29196   8.785   6.401   3.087
    1MUSC Si1cZ29197   8.617   6.726   2.084
    1MUSC Si1ca29198   8.791   6.401   2.617
    1MUSC Si1cb29199   8.884   6.570   2.084
    1MUSC Si1cc29200   9.045   6.556   2.617
    1MUSC Si1cd29201   8.876   6.570   1.613
    1MUSC Si1ce29202   8.532   6.556   3.088
    1MUSC O04rB29203   8.646   7.012   2.243
    1MUSC O04rC29204   8.762   7.020   2.458
    1MUSC O04rD29205   9.114   7.012   1.454
    1MUSC O04rE29206   8.814   7.020   3.247
    1MUSC O04rF29207   8.901   6.832   1.446
    1MUSC O04rG29208   8.507   7.200   3.255
    1MUSC O04rH29209   8.859   6.832   2.252
    1MUSC O04rI29210   9.070   7.200   2.449
    1MUSC O04rJ29211   8.761   7.080   1.665
    1MUSC O04rK29212   8.647   6.951   3.036
    1MUSC O04rL29213   8.999   7.080   2.032
    1MUSC O04rM29214   8.930   6.951   2.669
    1MUSC O04rN29215   8.739   7.117   2.013
    1MUSC O04rO29216   8.668   6.914   2.688
    1MUSC O04rP29217   9.020   7.117   1.685
    1MUSC O04rQ29218   8.908   6.914   3.016
    1MUSC O04rR29219   8.640   6.874   2.013
    1MUSC O04rS29220   8.768   7.158   2.688
    1MUSC O04rT29221   9.120   6.874   1.684
    1MUSC O04rU29222   8.808   7.158   3.017
    1MUSC O04rV29223   8.901   7.190   1.454
    1MUSC O04rW29224   8.507   6.842   3.247
    1MUSC O04rX29225   8.859   7.190   2.243
    1MUSC O04rY29226   9.070   6.842   2.458
    1MUSC O04rZ29227   8.906   6.559   2.243
    1MUSC O04ra29228   9.023   6.567   2.458
    1MUSC O04rb29229   8.854   6.559   1.454
    1MUSC O04rc29230   8.554   6.567   3.247
    1MUSC O04rd29231   9.161   6.379   1.446
    1MUSC O04re29232   8.767   6.747   3.255
    1MUSC O04rf29233   8.598   6.379   2.252
    1MUSC O04rg29234   8.810   6.747   2.449
    1MUSC O04rh29235   9.021   6.628   1.665
    1MUSC O04ri29236   8.907   6.499   3.036
    1MUSC O04rj29237   8.738   6.628   2.032
    1MUSC O04rk29238   8.669   6.499   2.669
    1MUSC O04rl29239   9.000   6.665   2.013
    1MUSC O04rm29240   8.929   6.462   2.688
    1MUSC O04rn29241   8.760   6.665   1.685
    1MUSC O04ro29242   8.648   6.462   3.016
    1MUSC O04rp29243   8.900   6.421   2.013
    1MUSC O04rq29244   9.029   6.705   2.688
    1MUSC O04rr29245   8.860   6.421   1.684
    1MUSC O04rs29246   8.548   6.705   3.017
    1MUSC O04rt29247   9.161   6.737   1.454
    1MUSC O04ru29248   8.767   6.389   3.247
    1MUSC O04rv29249   8.598   6.737   2.243
    1MUSC O04rw29250   8.810   6.389   2.458
    1MUSC K00It29251   8.711   8.057   0.845
    1MUSC K00Iu29252   8.971   7.605   0.845
    1MUSC Al0oL29253   8.890   7.769   0.343
    1MUSC Al0oM29254   8.884   8.074   0.344
    1MUSC Al0oN29255   9.235   7.769   3.355
    1MUSC Al0oO29256   9.059   8.074   1.346
    1MUSC Al0oP29257   9.150   7.316   0.343
    1MUSC Al0oQ29258   9.144   7.621   0.344
    1MUSC Al0oR29259   8.975   7.316   3.355
    1MUSC Al0oS29260   8.799   7.621   1.346
    1MUSC Si1cf29261   9.066   8.084   3.621
    1MUSC Si1cg29262   8.708   7.759   1.080
    1MUSC Si1ch29263   9.060   8.084   0.077
    1MUSC Si1ci29264   9.235   7.759   0.610
    1MUSC Si1cj29265   8.806   7.928   0.077
    1MUSC Si1ck29266   8.967   7.914   0.610
    1MUSC Si1cl29267   9.319   7.928   3.620
    1MUSC Si1cm29268   8.975   7.914   1.081
    1MUSC Si1cn29269   9.326   7.631   3.621
    1MUSC Si1co29270   8.968   7.306   1.080
    1MUSC Si1cp29271   8.800   7.631   0.077
    1MUSC Si1cq29272   8.974   7.306   0.610
    1MUSC Si1cr29273   9.067   7.476   0.077
    1MUSC Si1cs29274   9.228   7.461   0.610
    1MUSC Si1ct29275   9.059   7.476   3.620
    1MUSC Si1cu29276   8.715   7.461   1.081
    1MUSC O04rx29277   8.829   7.917   0.236
    1MUSC O04ry29278   8.945   7.925   0.451
    1MUSC O04rz29279   9.297   7.917   3.461
    1MUSC O04s029280   8.997   7.925   1.240
    1MUSC O04s129281   9.084   7.737   3.453
    1MUSC O04s229282   8.690   8.105   1.248
    1MUSC O04s329283   9.042   7.737   0.245
    1MUSC O04s429284   9.253   8.105   0.442
    1MUSC O04s529285   8.944   7.986   3.672
    1MUSC O04s629286   8.830   7.856   1.029
    1MUSC O04s729287   9.182   7.986   0.025
    1MUSC O04s829288   9.113   7.856   0.662
    1MUSC O04s929289   8.922   8.023   0.006
    1MUSC O04sA29290   8.851   7.819   0.681
    1MUSC O04sB29291   9.203   8.023   3.692
    1MUSC O04sC29292   9.091   7.819   1.009
    1MUSC O04sD29293   8.823   7.779   0.006
    1MUSC O04sE29294   8.951   8.063   0.681
    1MUSC O04sF29295   9.303   7.779   3.691
    1MUSC O04sG29296   8.991   8.063   1.010
    1MUSC O04sH29297   9.084   8.095   3.461
    1MUSC O04sI29298   8.690   7.747   1.240
    1MUSC O04sJ29299   9.042   8.095   0.236
    1MUSC O04sK29300   9.253   7.747   0.451
    1MUSC O04sL29301   9.089   7.464   0.236
    1MUSC O04sM29302   9.206   7.473   0.451
    1MUSC O04sN29303   9.037   7.464   3.461
    1MUSC O04sO29304   8.737   7.473   1.240
    1MUSC O04sP29305   9.344   7.284   3.453
    1MUSC O04sQ29306   8.950   7.653   1.248
    1MUSC O04sR29307   8.781   7.284   0.245
    1MUSC O04sS29308   8.993   7.653   0.442
    1MUSC O04sT29309   9.204   7.533   3.672
    1MUSC O04sU29310   9.090   7.404   1.029
    1MUSC O04sV29311   8.921   7.533   0.025
    1MUSC O04sW29312   8.852   7.404   0.662
    1MUSC O04sX29313   9.183   7.570   0.006
    1MUSC O04sY29314   9.112   7.367   0.681
    1MUSC O04sZ29315   8.943   7.570   3.692
    1MUSC O04sa29316   8.831   7.367   1.009
    1MUSC O04sb29317   9.083   7.326   0.006
    1MUSC O04sc29318   9.212   7.611   0.681
    1MUSC O04sd29319   9.043   7.326   3.691
    1MUSC O04se29320   8.731   7.611   1.010
    1MUSC O04sf29321   9.344   7.642   3.461
    1MUSC O04sg29322   8.950   7.295   1.240
    1MUSC O04sh29323   8.781   7.642   0.236
    1MUSC O04si29324   8.993   7.295   0.451
    1MUSC K00Iv29325   8.880   7.785   1.849
    1MUSC K00Iw29326   8.528   8.057   2.852
    1MUSC K00Ix29327   8.620   7.332   1.849
    1MUSC K00Iy29328   8.788   7.605   2.852
    1MUSC Al0oT29329   8.707   7.769   2.350
    1MUSC Al0oU29330   8.701   8.074   2.351
    1MUSC Al0oV29331   9.052   7.769   1.348
    1MUSC Al0oW29332   8.876   8.074   3.353
    1MUSC Al0oX29333   8.967   7.316   2.350
    1MUSC Al0oY29334   8.961   7.621   2.351
    1MUSC Al0oZ29335   8.792   7.316   1.348
    1MUSC Al0oa29336   8.616   7.621   3.353
    1MUSC Si1cv29337   8.883   8.084   1.614
    1MUSC Si1cw29338   8.525   7.759   3.087
    1MUSC Si1cx29339   8.877   8.084   2.084
    1MUSC Si1cy29340   9.052   7.759   2.617
    1MUSC Si1cz29341   8.623   7.928   2.084
    1MUSC Si1d029342   8.784   7.914   2.617
    1MUSC Si1d129343   9.136   7.928   1.613
    1MUSC Si1d229344   8.792   7.914   3.088
    1MUSC Si1d329345   9.143   7.631   1.614
    1MUSC Si1d429346   8.785   7.306   3.087
    1MUSC Si1d529347   8.617   7.631   2.084
    1MUSC Si1d629348   8.791   7.306   2.617
    1MUSC Si1d729349   8.884   7.476   2.084
    1MUSC Si1d829350   9.045   7.461   2.617
    1MUSC Si1d929351   8.876   7.476   1.613
    1MUSC Si1dA29352   8.532   7.461   3.088
    1MUSC O04sj29353   8.646   7.917   2.243
    1MUSC O04sk29354   8.762   7.925   2.458
    1MUSC O04sl29355   9.114   7.917   1.454
    1MUSC O04sm29356   8.814   7.925   3.247
    1MUSC O04sn29357   8.901   7.737   1.446
    1MUSC O04so29358   8.507   8.105   3.255
    1MUSC O04sp29359   8.859   7.737   2.252
    1MUSC O04sq29360   9.070   8.105   2.449
    1MUSC O04sr29361   8.761   7.986   1.665
    1MUSC O04ss29362   8.647   7.856   3.036
    1MUSC O04st29363   8.999   7.986   2.032
    1MUSC O04su29364   8.930   7.856   2.669
    1MUSC O04sv29365   8.739   8.023   2.013
    1MUSC O04sw29366   8.668   7.819   2.688
    1MUSC O04sx29367   9.020   8.023   1.685
    1MUSC O04sy29368   8.908   7.819   3.016
    1MUSC O04sz29369   8.640   7.779   2.013
    1MUSC O04t029370   8.768   8.063   2.688
    1MUSC O04t129371   9.120   7.779   1.684
    1MUSC O04t229372   8.808   8.063   3.017
    1MUSC O04t329373   8.901   8.095   1.454
    1MUSC O04t429374   8.507   7.747   3.247
    1MUSC O04t529375   8.859   8.095   2.243
    1MUSC O04t629376   9.070   7.747   2.458
    1MUSC O04t729377   8.906   7.464   2.243
    1MUSC O04t829378   9.023   7.473   2.458
    1MUSC O04t929379   8.854   7.464   1.454
    1MUSC O04tA29380   8.554   7.473   3.247
    1MUSC O04tB29381   9.161   7.284   1.446
    1MUSC O04tC29382   8.767   7.653   3.255
    1MUSC O04tD29383   8.598   7.284   2.252
    1MUSC O04tE29384   8.810   7.653   2.449
    1MUSC O04tF29385   9.021   7.533   1.665
    1MUSC O04tG29386   8.907   7.404   3.036
    1MUSC O04tH29387   8.738   7.533   2.032
    1MUSC O04tI29388   8.669   7.404   2.669
    1MUSC O04tJ29389   9.000   7.570   2.013
    1MUSC O04tK29390   8.929   7.367   2.688
    1MUSC O04tL29391   8.760   7.570   1.685
    1MUSC O04tM29392   8.648   7.367   3.016
    1MUSC O04tN29393   8.900   7.326   2.013
    1MUSC O04tO29394   9.029   7.611   2.688
    1MUSC O04tP29395   8.860   7.326   1.684
    1MUSC O04tQ29396   8.548   7.611   3.017
    1MUSC O04tR29397   9.161   7.642   1.454
    1MUSC O04tS29398   8.767   7.295   3.247
    1MUSC O04tT29399   8.598   7.642   2.243
    1MUSC O04tU29400   8.810   7.295   2.458
    1MUSC K00Iz29401   8.711   8.962   0.845
    1MUSC K00J029402   8.971   8.510   0.845
    1MUSC Al0ob29403   8.890   8.674   0.343
    1MUSC Al0oc29404   8.884   8.979   0.344
    1MUSC Al0od29405   9.235   8.674   3.355
    1MUSC Al0oe29406   9.059   8.979   1.346
    1MUSC Al0of29407   9.150   8.221   0.343
    1MUSC Al0og29408   9.144   8.526   0.344
    1MUSC Al0oh29409   8.975   8.221   3.355
    1MUSC Al0oi29410   8.799   8.526   1.346
    1MUSC Si1dB29411   9.066   8.989   3.621
    1MUSC Si1dC29412   8.708   8.664   1.080
    1MUSC Si1dD29413   9.060   8.989   0.077
    1MUSC Si1dE29414   9.235   8.664   0.610
    1MUSC Si1dF29415   8.806   8.834   0.077
    1MUSC Si1dG29416   8.967   8.819   0.610
    1MUSC Si1dH29417   9.319   8.834   3.620
    1MUSC Si1dI29418   8.975   8.819   1.081
    1MUSC Si1dJ29419   9.326   8.536   3.621
    1MUSC Si1dK29420   8.968   8.211   1.080
    1MUSC Si1dL29421   8.800   8.536   0.077
    1MUSC Si1dM29422   8.974   8.211   0.610
    1MUSC Si1dN29423   9.067   8.381   0.077
    1MUSC Si1dO29424   9.228   8.367   0.610
    1MUSC Si1dP29425   9.059   8.381   3.620
    1MUSC Si1dQ29426   8.715   8.367   1.081
    1MUSC O04tV29427   8.829   8.822   0.236
    1MUSC O04tW29428   8.945   8.831   0.451
    1MUSC O04tX29429   9.297   8.822   3.461
    1MUSC O04tY29430   8.997   8.831   1.240
    1MUSC O04tZ29431   9.084   8.642   3.453
    1MUSC O04ta29432   8.690   9.010   1.248
    1MUSC O04tb29433   9.042   8.642   0.245
    1MUSC O04tc29434   9.253   9.010   0.442
    1MUSC O04td29435   8.944   8.891   3.672
    1MUSC O04te29436   8.830   8.762   1.029
    1MUSC O04tf29437   9.182   8.891   0.025
    1MUSC O04tg29438   9.113   8.762   0.662
    1MUSC O04th29439   8.922   8.928   0.006
    1MUSC O04ti29440   8.851   8.725   0.681
    1MUSC O04tj29441   9.203   8.928   3.692
    1MUSC O04tk29442   9.091   8.725   1.009
    1MUSC O04tl29443   8.823   8.684   0.006
    1MUSC O04tm29444   8.951   8.968   0.681
    1MUSC O04tn29445   9.303   8.684   3.691
    1MUSC O04to29446   8.991   8.968   1.010
    1MUSC O04tp29447   9.084   9.000   3.461
    1MUSC O04tq29448   8.690   8.652   1.240
    1MUSC O04tr29449   9.042   9.000   0.236
    1MUSC O04ts29450   9.253   8.652   0.451
    1MUSC O04tt29451   9.089   8.370   0.236
    1MUSC O04tu29452   9.206   8.378   0.451
    1MUSC O04tv29453   9.037   8.370   3.461
    1MUSC O04tw29454   8.737   8.378   1.240
    1MUSC O04tx29455   9.344   8.190   3.453
    1MUSC O04ty29456   8.950   8.558   1.248
    1MUSC O04tz29457   8.781   8.190   0.245
    1MUSC O04u029458   8.993   8.558   0.442
    1MUSC O04u129459   9.204   8.438   3.672
    1MUSC O04u229460   9.090   8.309   1.029
    1MUSC O04u329461   8.921   8.438   0.025
    1MUSC O04u429462   8.852   8.309   0.662
    1MUSC O04u529463   9.183   8.475   0.006
    1MUSC O04u629464   9.112   8.272   0.681
    1MUSC O04u729465   8.943   8.475   3.692
    1MUSC O04u829466   8.831   8.272   1.009
    1MUSC O04u929467   9.083   8.232   0.006
    1MUSC O04uA29468   9.212   8.516   0.681
    1MUSC O04uB29469   9.043   8.232   3.691
    1MUSC O04uC29470   8.731   8.516   1.010
    1MUSC O04uD29471   9.344   8.548   3.461
    1MUSC O04uE29472   8.950   8.200   1.240
    1MUSC O04uF29473   8.781   8.548   0.236
    1MUSC O04uG29474   8.993   8.200   0.451
    1MUSC K00J129475   8.880   8.690   1.849
    1MUSC K00J229476   8.528   8.962   2.852
    1MUSC K00J329477   8.620   8.238   1.849
    1MUSC K00J429478   8.788   8.510   2.852
    1MUSC Al0oj29479   8.707   8.674   2.350
    1MUSC Al0ok29480   8.701   8.979   2.351
    1MUSC Al0ol29481   9.052   8.674   1.348
    1MUSC Al0om29482   8.876   8.979   3.353
    1MUSC Al0on29483   8.967   8.221   2.350
    1MUSC Al0oo29484   8.961   8.526   2.351
    1MUSC Al0op29485   8.792   8.221   1.348
    1MUSC Al0oq29486   8.616   8.526   3.353
    1MUSC Si1dR29487   8.883   8.989   1.614
    1MUSC Si1dS29488   8.525   8.664   3.087
    1MUSC Si1dT29489   8.877   8.989   2.084
    1MUSC Si1dU29490   9.052   8.664   2.617
    1MUSC Si1dV29491   8.623   8.834   2.084
    1MUSC Si1dW29492   8.784   8.819   2.617
    1MUSC Si1dX29493   9.136   8.834   1.613
    1MUSC Si1dY29494   8.792   8.819   3.088
    1MUSC Si1dZ29495   9.143   8.536   1.614
    1MUSC Si1da29496   8.785   8.211   3.087
    1MUSC Si1db29497   8.617   8.536   2.084
    1MUSC Si1dc29498   8.791   8.211   2.617
    1MUSC Si1dd29499   8.884   8.381   2.084
    1MUSC Si1de29500   9.045   8.367   2.617
    1MUSC Si1df29501   8.876   8.381   1.613
    1MUSC Si1dg29502   8.532   8.367   3.088
    1MUSC O04uH29503   8.646   8.822   2.243
    1MUSC O04uI29504   8.762   8.831   2.458
    1MUSC O04uJ29505   9.114   8.822   1.454
    1MUSC O04uK29506   8.814   8.831   3.247
    1MUSC O04uL29507   8.901   8.642   1.446
    1MUSC O04uM29508   8.507   9.010   3.255
    1MUSC O04uN29509   8.859   8.642   2.252
    1MUSC O04uO29510   9.070   9.010   2.449
    1MUSC O04uP29511   8.761   8.891   1.665
    1MUSC O04uQ29512   8.647   8.762   3.036
    1MUSC O04uR29513   8.999   8.891   2.032
    1MUSC O04uS29514   8.930   8.762   2.669
    1MUSC O04uT29515   8.739   8.928   2.013
    1MUSC O04uU29516   8.668   8.725   2.688
    1MUSC O04uV29517   9.020   8.928   1.685
    1MUSC O04uW29518   8.908   8.725   3.016
    1MUSC O04uX29519   8.640   8.684   2.013
    1MUSC O04uY29520   8.768   8.968   2.688
    1MUSC O04uZ29521   9.120   8.684   1.684
    1MUSC O04ua29522   8.808   8.968   3.017
    1MUSC O04ub29523   8.901   9.000   1.454
    1MUSC O04uc29524   8.507   8.652   3.247
    1MUSC O04ud29525   8.859   9.000   2.243
    1MUSC O04ue29526   9.070   8.652   2.458
    1MUSC O04uf29527   8.906   8.370   2.243
    1MUSC O04ug29528   9.023   8.378   2.458
    1MUSC O04uh29529   8.854   8.370   1.454
    1MUSC O04ui29530   8.554   8.378   3.247
    1MUSC O04uj29531   9.161   8.190   1.446
    1MUSC O04uk29532   8.767   8.558   3.255
    1MUSC O04ul29533   8.598   8.190   2.252
    1MUSC O04um29534   8.810   8.558   2.449
    1MUSC O04un29535   9.021   8.438   1.665
    1MUSC O04uo29536   8.907   8.309   3.036
    1MUSC O04up29537   8.738   8.438   2.032
    1MUSC O04uq29538   8.669   8.309   2.669
    1MUSC O04ur29539   9.000   8.475   2.013
    1MUSC O04us29540   8.929   8.272   2.688
    1MUSC O04ut29541   8.760   8.475   1.685
    1MUSC O04uu29542   8.648   8.272   3.016
    1MUSC O04uv29543   8.900   8.232   2.013
    1MUSC O04uw29544   9.029   8.516   2.688
    1MUSC O04ux29545   8.860   8.232   1.684
    1MUSC O04uy29546   8.548   8.516   3.017
    1MUSC O04uz29547   9.161   8.548   1.454
    1MUSC O04v029548   8.767   8.200   3.247
    1MUSC O04v129549   8.598   8.548   2.243
    1MUSC O04v229550   8.810   8.200   2.458
    1MUSC K00J529551   8.711   9.868   0.845
    1MUSC K00J629552   8.971   9.415   0.845
    1MUSC Al0or29553   8.890   9.579   0.343
    1MUSC Al0os29554   8.884   9.884   0.344
    1MUSC Al0ot29555   9.235   9.579   3.355
    1MUSC Al0ou29556   9.059   9.884   1.346
    1MUSC Al0ov29557   9.150   9.126   0.343
    1MUSC Al0ow29558   9.144   9.432   0.344
    1MUSC Al0ox29559   8.975   9.126   3.355
    1MUSC Al0oy29560   8.799   9.432   1.346
    1MUSC Si1dh29561   9.066   9.894   3.621
    1MUSC Si1di29562   8.708   9.569   1.080
    1MUSC Si1dj29563   9.060   9.894   0.077
    1MUSC Si1dk29564   9.235   9.569   0.610
    1MUSC Si1dl29565   8.806   9.739   0.077
    1MUSC Si1dm29566   8.967   9.724   0.610
    1MUSC Si1dn29567   9.319   9.739   3.620
    1MUSC Si1do29568   8.975   9.724   1.081
    1MUSC Si1dp29569   9.326   9.441   3.621
    1MUSC Si1dq29570   8.968   9.117   1.080
    1MUSC Si1dr29571   8.800   9.441   0.077
    1MUSC Si1ds29572   8.974   9.117   0.610
    1MUSC Si1dt29573   9.067   9.286   0.077
    1MUSC Si1du29574   9.228   9.272   0.610
    1MUSC Si1dv29575   9.059   9.286   3.620
    1MUSC Si1dw29576   8.715   9.272   1.081
    1MUSC O04v329577   8.829   9.728   0.236
    1MUSC O04v429578   8.945   9.736   0.451
    1MUSC O04v529579   9.297   9.728   3.461
    1MUSC O04v629580   8.997   9.736   1.240
    1MUSC O04v729581   9.084   9.548   3.453
    1MUSC O04v829582   8.690   9.916   1.248
    1MUSC O04v929583   9.042   9.548   0.245
    1MUSC O04vA29584   9.253   9.916   0.442
    1MUSC O04vB29585   8.944   9.796   3.672
    1MUSC O04vC29586   8.830   9.667   1.029
    1MUSC O04vD29587   9.182   9.796   0.025
    1MUSC O04vE29588   9.113   9.667   0.662
    1MUSC O04vF29589   8.922   9.833   0.006
    1MUSC O04vG29590   8.851   9.630   0.681
    1MUSC O04vH29591   9.203   9.833   3.692
    1MUSC O04vI29592   9.091   9.630   1.009
    1MUSC O04vJ29593   8.823   9.590   0.006
    1MUSC O04vK29594   8.951   9.874   0.681
    1MUSC O04vL29595   9.303   9.590   3.691
    1MUSC O04vM29596   8.991   9.874   1.010
    1MUSC O04vN29597   9.084   9.906   3.461
    1MUSC O04vO29598   8.690   9.558   1.240
    1MUSC O04vP29599   9.042   9.906   0.236
    1MUSC O04vQ29600   9.253   9.558   0.451
    1MUSC O04vR29601   9.089   9.275   0.236
    1MUSC O04vS29602   9.206   9.283   0.451
    1MUSC O04vT29603   9.037   9.275   3.461
    1MUSC O04vU29604   8.737   9.283   1.240
    1MUSC O04vV29605   9.344   9.095   3.453
    1MUSC O04vW29606   8.950   9.463   1.248
    1MUSC O04vX29607   8.781   9.095   0.245
    1MUSC O04vY29608   8.993   9.463   0.442
    1MUSC O04vZ29609   9.204   9.344   3.672
    1MUSC O04va29610   9.090   9.214   1.029
    1MUSC O04vb29611   8.921   9.344   0.025
    1MUSC O04vc29612   8.852   9.214   0.662
    1MUSC O04vd29613   9.183   9.381   0.006
    1MUSC O04ve29614   9.112   9.177   0.681
    1MUSC O04vf29615   8.943   9.381   3.692
    1MUSC O04vg29616   8.831   9.177   1.009
    1MUSC O04vh29617   9.083   9.137   0.006
    1MUSC O04vi29618   9.212   9.421   0.681
    1MUSC O04vj29619   9.043   9.137   3.691
    1MUSC O04vk29620   8.731   9.421   1.010
    1MUSC O04vl29621   9.344   9.453   3.461
    1MUSC O04vm29622   8.950   9.105   1.240
    1MUSC O04vn29623   8.781   9.453   0.236
    1MUSC O04vo29624   8.993   9.105   0.451
    1MUSC K00J729625   8.880   9.596   1.849
    1MUSC K00J829626   8.528   9.868   2.852
    1MUSC K00J929627   8.620   9.143   1.849
    1MUSC K00JA29628   8.788   9.415   2.852
    1MUSC Al0oz29629   8.707   9.579   2.350
    1MUSC Al0p029630   8.701   9.884   2.351
    1MUSC Al0p129631   9.052   9.579   1.348
    1MUSC Al0p229632   8.876   9.884   3.353
    1MUSC Al0p329633   8.967   9.126   2.350
    1MUSC Al0p429634   8.961   9.432   2.351
    1MUSC Al0p529635   8.792   9.126   1.348
    1MUSC Al0p629636   8.616   9.432   3.353
    1MUSC Si1dx29637   8.883   9.894   1.614
    1MUSC Si1dy29638   8.525   9.569   3.087
    1MUSC Si1dz29639   8.877   9.894   2.084
    1MUSC Si1e029640   9.052   9.569   2.617
    1MUSC Si1e129641   8.623   9.739   2.084
    1MUSC Si1e229642   8.784   9.724   2.617
    1MUSC Si1e329643   9.136   9.739   1.613
    1MUSC Si1e429644   8.792   9.724   3.088
    1MUSC Si1e529645   9.143   9.441   1.614
    1MUSC Si1e629646   8.785   9.117   3.087
    1MUSC Si1e729647   8.617   9.441   2.084
    1MUSC Si1e829648   8.791   9.117   2.617
    1MUSC Si1e929649   8.884   9.286   2.084
    1MUSC Si1eA29650   9.045   9.272   2.617
    1MUSC Si1eB29651   8.876   9.286   1.613
    1MUSC Si1eC29652   8.532   9.272   3.088
    1MUSC O04vp29653   8.646   9.728   2.243
    1MUSC O04vq29654   8.762   9.736   2.458
    1MUSC O04vr29655   9.114   9.728   1.454
    1MUSC O04vs29656   8.814   9.736   3.247
    1MUSC O04vt29657   8.901   9.548   1.446
    1MUSC O04vu29658   8.507   9.916   3.255
    1MUSC O04vv29659   8.859   9.548   2.252
    1MUSC O04vw29660   9.070   9.916   2.449
    1MUSC O04vx29661   8.761   9.796   1.665
    1MUSC O04vy29662   8.647   9.667   3.036
    1MUSC O04vz29663   8.999   9.796   2.032
    1MUSC O04w029664   8.930   9.667   2.669
    1MUSC O04w129665   8.739   9.833   2.013
    1MUSC O04w229666   8.668   9.630   2.688
    1MUSC O04w329667   9.020   9.833   1.685
    1MUSC O04w429668   8.908   9.630   3.016
    1MUSC O04w529669   8.640   9.590   2.013
    1MUSC O04w629670   8.768   9.874   2.688
    1MUSC O04w729671   9.120   9.590   1.684
    1MUSC O04w829672   8.808   9.874   3.017
    1MUSC O04w929673   8.901   9.906   1.454
    1MUSC O04wA29674   8.507   9.558   3.247
    1MUSC O04wB29675   8.859   9.906   2.243
    1MUSC O04wC29676   9.070   9.558   2.458
    1MUSC O04wD29677   8.906   9.275   2.243
    1MUSC O04wE29678   9.023   9.283   2.458
    1MUSC O04wF29679   8.854   9.275   1.454
    1MUSC O04wG29680   8.554   9.283   3.247
    1MUSC O04wH29681   9.161   9.095   1.446
    1MUSC O04wI29682   8.767   9.463   3.255
    1MUSC O04wJ29683   8.598   9.095   2.252
    1MUSC O04wK29684   8.810   9.463   2.449
    1MUSC O04wL29685   9.021   9.344   1.665
    1MUSC O04wM29686   8.907   9.214   3.036
    1MUSC O04wN29687   8.738   9.344   2.032
    1MUSC O04wO29688   8.669   9.214   2.669
    1MUSC O04wP29689   9.000   9.381   2.013
    1MUSC O04wQ29690   8.929   9.177   2.688
    1MUSC O04wR29691   8.760   9.381   1.685
    1MUSC O04wS29692   8.648   9.177   3.016
    1MUSC O04wT29693   8.900   9.137   2.013
    1MUSC O04wU29694   9.029   9.421   2.688
    1MUSC O04wV29695   8.860   9.137   1.684
    1MUSC O04wW29696   8.548   9.421   3.017
    1MUSC O04wX29697   9.161   9.453   1.454
    1MUSC O04wY29698   8.767   9.105   3.247
    1MUSC O04wZ29699   8.598   9.453   2.243
    1MUSC O04wa29700   8.810   9.105   2.458
    1MUSC K00JB29701   9.232   0.815   0.845
    1MUSC K00JC29702   9.492   0.362   0.845
    1MUSC Al0p729703   9.411   0.526   0.343
    1MUSC Al0p829704   9.404   0.831   0.344
    1MUSC Al0p929705   9.756   0.526   3.355
    1MUSC Al0pA29706   9.579   0.831   1.346
    1MUSC Al0pB29707   9.671   0.074   0.343
    1MUSC Al0pC29708   9.664   0.379   0.344
    1MUSC Al0pD29709   9.496   0.074   3.355
    1MUSC Al0pE29710   9.319   0.379   1.346
    1MUSC Si1eD29711   9.586   0.841   3.621
    1MUSC Si1eE29712   9.228   0.517   1.080
    1MUSC Si1eF29713   9.580   0.841   0.077
    1MUSC Si1eG29714   9.755   0.517   0.610
    1MUSC Si1eH29715   9.327   0.686   0.077
    1MUSC Si1eI29716   9.488   0.672   0.610
    1MUSC Si1eJ29717   9.840   0.686   3.620
    1MUSC Si1eK29718   9.496   0.672   1.081
    1MUSC Si1eL29719   9.847   0.389   3.621
    1MUSC Si1eM29720   9.489   0.064   1.080
    1MUSC Si1eN29721   9.320   0.389   0.077
    1MUSC Si1eO29722   9.495   0.064   0.610
    1MUSC Si1eP29723   9.587   0.233   0.077
    1MUSC Si1eQ29724   9.748   0.219   0.610
    1MUSC Si1eR29725   9.579   0.233   3.620
    1MUSC Si1eS29726   9.235   0.219   1.081
    1MUSC O04wb29727   9.349   0.675   0.236
    1MUSC O04wc29728   9.466   0.683   0.451
    1MUSC O04wd29729   9.818   0.675   3.461
    1MUSC O04we29730   9.518   0.683   1.240
    1MUSC O04wf29731   9.605   0.495   3.453
    1MUSC O04wg29732   9.210   0.863   1.248
    1MUSC O04wh29733   9.562   0.495   0.245
    1MUSC O04wi29734   9.773   0.863   0.442
    1MUSC O04wj29735   9.464   0.744   3.672
    1MUSC O04wk29736   9.350   0.614   1.029
    1MUSC O04wl29737   9.702   0.744   0.025
    1MUSC O04wm29738   9.633   0.614   0.662
    1MUSC O04wn29739   9.443   0.781   0.006
    1MUSC O04wo29740   9.372   0.577   0.681
    1MUSC O04wp29741   9.724   0.781   3.692
    1MUSC O04wq29742   9.612   0.577   1.009
    1MUSC O04wr29743   9.343   0.537   0.006
    1MUSC O04ws29744   9.472   0.821   0.681
    1MUSC O04wt29745   9.824   0.537   3.691
    1MUSC O04wu29746   9.512   0.821   1.010
    1MUSC O04wv29747   9.605   0.853   3.461
    1MUSC O04ww29748   9.210   0.505   1.240
    1MUSC O04wx29749   9.562   0.853   0.236
    1MUSC O04wy29750   9.773   0.505   0.451
    1MUSC O04wz29751   9.609   0.222   0.236
    1MUSC O04x029752   9.726   0.230   0.451
    1MUSC O04x129753   9.557   0.222   3.461
    1MUSC O04x229754   9.258   0.230   1.240
    1MUSC O04x329755   9.865   0.042   3.453
    1MUSC O04x429756   9.471   0.410   1.248
    1MUSC O04x529757   9.302   0.042   0.245
    1MUSC O04x629758   9.513   0.410   0.442
    1MUSC O04x729759   9.725   0.291   3.672
    1MUSC O04x829760   9.611   0.162   1.029
    1MUSC O04x929761   9.442   0.291   0.025
    1MUSC O04xA29762   9.373   0.162   0.662
    1MUSC O04xB29763   9.703   0.328   0.006
    1MUSC O04xC29764   9.632   0.125   0.681
    1MUSC O04xD29765   9.463   0.328   3.692
    1MUSC O04xE29766   9.351   0.125   1.009
    1MUSC O04xF29767   9.603   0.084   0.006
    1MUSC O04xG29768   9.732   0.368   0.681
    1MUSC O04xH29769   9.563   0.084   3.691
    1MUSC O04xI29770   9.252   0.368   1.010
    1MUSC O04xJ29771   9.865   0.400   3.461
    1MUSC O04xK29772   9.471   0.052   1.240
    1MUSC O04xL29773   9.302   0.400   0.236
    1MUSC O04xM29774   9.513   0.052   0.451
    1MUSC K00JD29775   9.400   0.543   1.849
    1MUSC K00JE29776   9.049   0.815   2.852
    1MUSC K00JF29777   9.140   0.090   1.849
    1MUSC K00JG29778   9.309   0.362   2.852
    1MUSC Al0pF29779   9.228   0.526   2.350
    1MUSC Al0pG29780   9.221   0.831   2.351
    1MUSC Al0pH29781   9.573   0.526   1.348
    1MUSC Al0pI29782   9.396   0.831   3.353
    1MUSC Al0pJ29783   9.488   0.074   2.350
    1MUSC Al0pK29784   9.481   0.379   2.351
    1MUSC Al0pL29785   9.313   0.074   1.348
    1MUSC Al0pM29786   9.136   0.379   3.353
    1MUSC Si1eT29787   9.403   0.841   1.614
    1MUSC Si1eU29788   9.045   0.517   3.087
    1MUSC Si1eV29789   9.397   0.841   2.084
    1MUSC Si1eW29790   9.572   0.517   2.617
    1MUSC Si1eX29791   9.144   0.686   2.084
    1MUSC Si1eY29792   9.305   0.672   2.617
    1MUSC Si1eZ29793   9.657   0.686   1.613
    1MUSC Si1ea29794   9.313   0.672   3.088
    1MUSC Si1eb29795   9.664   0.389   1.614
    1MUSC Si1ec29796   9.306   0.064   3.087
    1MUSC Si1ed29797   9.137   0.389   2.084
    1MUSC Si1ee29798   9.312   0.064   2.617
    1MUSC Si1ef29799   9.404   0.233   2.084
    1MUSC Si1eg29800   9.565   0.219   2.617
    1MUSC Si1eh29801   9.396   0.233   1.613
    1MUSC Si1ei29802   9.052   0.219   3.088
    1MUSC O04xN29803   9.166   0.675   2.243
    1MUSC O04xO29804   9.283   0.683   2.458
    1MUSC O04xP29805   9.635   0.675   1.454
    1MUSC O04xQ29806   9.335   0.683   3.247
    1MUSC O04xR29807   9.422   0.495   1.446
    1MUSC O04xS29808   9.027   0.863   3.255
    1MUSC O04xT29809   9.379   0.495   2.252
    1MUSC O04xU29810   9.590   0.863   2.449
    1MUSC O04xV29811   9.281   0.744   1.665
    1MUSC O04xW29812   9.167   0.614   3.036
    1MUSC O04xX29813   9.519   0.744   2.032
    1MUSC O04xY29814   9.450   0.614   2.669
    1MUSC O04xZ29815   9.260   0.781   2.013
    1MUSC O04xa29816   9.189   0.577   2.688
    1MUSC O04xb29817   9.541   0.781   1.685
    1MUSC O04xc29818   9.429   0.577   3.016
    1MUSC O04xd29819   9.160   0.537   2.013
    1MUSC O04xe29820   9.289   0.821   2.688
    1MUSC O04xf29821   9.641   0.537   1.684
    1MUSC O04xg29822   9.329   0.821   3.017
    1MUSC O04xh29823   9.422   0.853   1.454
    1MUSC O04xi29824   9.027   0.505   3.247
    1MUSC O04xj29825   9.379   0.853   2.243
    1MUSC O04xk29826   9.590   0.505   2.458
    1MUSC O04xl29827   9.426   0.222   2.243
    1MUSC O04xm29828   9.543   0.230   2.458
    1MUSC O04xn29829   9.374   0.222   1.454
    1MUSC O04xo29830   9.075   0.230   3.247
    1MUSC O04xp29831   9.682   0.042   1.446
    1MUSC O04xq29832   9.288   0.410   3.255
    1MUSC O04xr29833   9.119   0.042   2.252
    1MUSC O04xs29834   9.330   0.410   2.449
    1MUSC O04xt29835   9.542   0.291   1.665
    1MUSC O04xu29836   9.428   0.162   3.036
    1MUSC O04xv29837   9.259   0.291   2.032
    1MUSC O04xw29838   9.190   0.162   2.669
    1MUSC O04xx29839   9.520   0.328   2.013
    1MUSC O04xy29840   9.449   0.125   2.688
    1MUSC O04xz29841   9.280   0.328   1.685
    1MUSC O04y029842   9.168   0.125   3.016
    1MUSC O04y129843   9.420   0.084   2.013
    1MUSC O04y229844   9.549   0.368   2.688
    1MUSC O04y329845   9.380   0.084   1.684
    1MUSC O04y429846   9.069   0.368   3.017
    1MUSC O04y529847   9.682   0.400   1.454
    1MUSC O04y629848   9.288   0.052   3.247
    1MUSC O04y729849   9.119   0.400   2.243
    1MUSC O04y829850   9.330   0.052   2.458
    1MUSC K00JH29851   9.232   1.720   0.845
    1MUSC K00JI29852   9.492   1.268   0.845
    1MUSC Al0pN29853   9.411   1.432   0.343
    1MUSC Al0pO29854   9.404   1.737   0.344
    1MUSC Al0pP29855   9.756   1.432   3.355
    1MUSC Al0pQ29856   9.579   1.737   1.346
    1MUSC Al0pR29857   9.671   0.979   0.343
    1MUSC Al0pS29858   9.664   1.284   0.344
    1MUSC Al0pT29859   9.496   0.979   3.355
    1MUSC Al0pU29860   9.319   1.284   1.346
    1MUSC Si1ej29861   9.586   1.747   3.621
    1MUSC Si1ek29862   9.228   1.422   1.080
    1MUSC Si1el29863   9.580   1.747   0.077
    1MUSC Si1em29864   9.755   1.422   0.610
    1MUSC Si1en29865   9.327   1.591   0.077
    1MUSC Si1eo29866   9.488   1.577   0.610
    1MUSC Si1ep29867   9.840   1.591   3.620
    1MUSC Si1eq29868   9.496   1.577   1.081
    1MUSC Si1er29869   9.847   1.294   3.621
    1MUSC Si1es29870   9.489   0.969   1.080
    1MUSC Si1et29871   9.320   1.294   0.077
    1MUSC Si1eu29872   9.495   0.969   0.610
    1MUSC Si1ev29873   9.587   1.139   0.077
    1MUSC Si1ew29874   9.748   1.124   0.610
    1MUSC Si1ex29875   9.579   1.139   3.620
    1MUSC Si1ey29876   9.235   1.124   1.081
    1MUSC O04y929877   9.349   1.580   0.236
    1MUSC O04yA29878   9.466   1.588   0.451
    1MUSC O04yB29879   9.818   1.580   3.461
    1MUSC O04yC29880   9.518   1.588   1.240
    1MUSC O04yD29881   9.605   1.400   3.453
    1MUSC O04yE29882   9.210   1.768   1.248
    1MUSC O04yF29883   9.562   1.400   0.245
    1MUSC O04yG29884   9.773   1.768   0.442
    1MUSC O04yH29885   9.464   1.649   3.672
    1MUSC O04yI29886   9.350   1.520   1.029
    1MUSC O04yJ29887   9.702   1.649   0.025
    1MUSC O04yK29888   9.633   1.520   0.662
    1MUSC O04yL29889   9.443   1.686   0.006
    1MUSC O04yM29890   9.372   1.483   0.681
    1MUSC O04yN29891   9.724   1.686   3.692
    1MUSC O04yO29892   9.612   1.483   1.009
    1MUSC O04yP29893   9.343   1.442   0.006
    1MUSC O04yQ29894   9.472   1.726   0.681
    1MUSC O04yR29895   9.824   1.442   3.691
    1MUSC O04yS29896   9.512   1.726   1.010
    1MUSC O04yT29897   9.605   1.758   3.461
    1MUSC O04yU29898   9.210   1.410   1.240
    1MUSC O04yV29899   9.562   1.758   0.236
    1MUSC O04yW29900   9.773   1.410   0.451
    1MUSC O04yX29901   9.609   1.127   0.236
    1MUSC O04yY29902   9.726   1.136   0.451
    1MUSC O04yZ29903   9.557   1.127   3.461
    1MUSC O04ya29904   9.258   1.136   1.240
    1MUSC O04yb29905   9.865   0.948   3.453
    1MUSC O04yc29906   9.471   1.316   1.248
    1MUSC O04yd29907   9.302   0.948   0.245
    1MUSC O04ye29908   9.513   1.316   0.442
    1MUSC O04yf29909   9.725   1.196   3.672
    1MUSC O04yg29910   9.611   1.067   1.029
    1MUSC O04yh29911   9.442   1.196   0.025
    1MUSC O04yi29912   9.373   1.067   0.662
    1MUSC O04yj29913   9.703   1.233   0.006
    1MUSC O04yk29914   9.632   1.030   0.681
    1MUSC O04yl29915   9.463   1.233   3.692
    1MUSC O04ym29916   9.351   1.030   1.009
    1MUSC O04yn29917   9.603   0.990   0.006
    1MUSC O04yo29918   9.732   1.274   0.681
    1MUSC O04yp29919   9.563   0.990   3.691
    1MUSC O04yq29920   9.252   1.274   1.010
    1MUSC O04yr29921   9.865   1.306   3.461
    1MUSC O04ys29922   9.471   0.958   1.240
    1MUSC O04yt29923   9.302   1.306   0.236
    1MUSC O04yu29924   9.513   0.958   0.451
    1MUSC K00JJ29925   9.400   1.448   1.849
    1MUSC K00JK29926   9.049   1.720   2.852
    1MUSC K00JL29927   9.140   0.996   1.849
    1MUSC K00JM29928   9.309   1.268   2.852
    1MUSC Al0pV29929   9.228   1.432   2.350
    1MUSC Al0pW29930   9.221   1.737   2.351
    1MUSC Al0pX29931   9.573   1.432   1.348
    1MUSC Al0pY29932   9.396   1.737   3.353
    1MUSC Al0pZ29933   9.488   0.979   2.350
    1MUSC Al0pa29934   9.481   1.284   2.351
    1MUSC Al0pb29935   9.313   0.979   1.348
    1MUSC Al0pc29936   9.136   1.284   3.353
    1MUSC Si1ez29937   9.403   1.747   1.614
    1MUSC Si1f029938   9.045   1.422   3.087
    1MUSC Si1f129939   9.397   1.747   2.084
    1MUSC Si1f229940   9.572   1.422   2.617
    1MUSC Si1f329941   9.144   1.591   2.084
    1MUSC Si1f429942   9.305   1.577   2.617
    1MUSC Si1f529943   9.657   1.591   1.613
    1MUSC Si1f629944   9.313   1.577   3.088
    1MUSC Si1f729945   9.664   1.294   1.614
    1MUSC Si1f829946   9.306   0.969   3.087
    1MUSC Si1f929947   9.137   1.294   2.084
    1MUSC Si1fA29948   9.312   0.969   2.617
    1MUSC Si1fB29949   9.404   1.139   2.084
    1MUSC Si1fC29950   9.565   1.124   2.617
    1MUSC Si1fD29951   9.396   1.139   1.613
    1MUSC Si1fE29952   9.052   1.124   3.088
    1MUSC O04yv29953   9.166   1.580   2.243
    1MUSC O04yw29954   9.283   1.588   2.458
    1MUSC O04yx29955   9.635   1.580   1.454
    1MUSC O04yy29956   9.335   1.588   3.247
    1MUSC O04yz29957   9.422   1.400   1.446
    1MUSC O04z029958   9.027   1.768   3.255
    1MUSC O04z129959   9.379   1.400   2.252
    1MUSC O04z229960   9.590   1.768   2.449
    1MUSC O04z329961   9.281   1.649   1.665
    1MUSC O04z429962   9.167   1.520   3.036
    1MUSC O04z529963   9.519   1.649   2.032
    1MUSC O04z629964   9.450   1.520   2.669
    1MUSC O04z729965   9.260   1.686   2.013
    1MUSC O04z829966   9.189   1.483   2.688
    1MUSC O04z929967   9.541   1.686   1.685
    1MUSC O04zA29968   9.429   1.483   3.016
    1MUSC O04zB29969   9.160   1.442   2.013
    1MUSC O04zC29970   9.289   1.726   2.688
    1MUSC O04zD29971   9.641   1.442   1.684
    1MUSC O04zE29972   9.329   1.726   3.017
    1MUSC O04zF29973   9.422   1.758   1.454
    1MUSC O04zG29974   9.027   1.410   3.247
    1MUSC O04zH29975   9.379   1.758   2.243
    1MUSC O04zI29976   9.590   1.410   2.458
    1MUSC O04zJ29977   9.426   1.127   2.243
    1MUSC O04zK29978   9.543   1.136   2.458
    1MUSC O04zL29979   9.374   1.127   1.454
    1MUSC O04zM29980   9.075   1.136   3.247
    1MUSC O04zN29981   9.682   0.948   1.446
    1MUSC O04zO29982   9.288   1.316   3.255
    1MUSC O04zP29983   9.119   0.948   2.252
    1MUSC O04zQ29984   9.330   1.316   2.449
    1MUSC O04zR29985   9.542   1.196   1.665
    1MUSC O04zS29986   9.428   1.067   3.036
    1MUSC O04zT29987   9.259   1.196   2.032
    1MUSC O04zU29988   9.190   1.067   2.669
    1MUSC O04zV29989   9.520   1.233   2.013
    1MUSC O04zW29990   9.449   1.030   2.688
    1MUSC O04zX29991   9.280   1.233   1.685
    1MUSC O04zY29992   9.168   1.030   3.016
    1MUSC O04zZ29993   9.420   0.990   2.013
    1MUSC O04za29994   9.549   1.274   2.688
    1MUSC O04zb29995   9.380   0.990   1.684
    1MUSC O04zc29996   9.069   1.274   3.017
    1MUSC O04zd29997   9.682   1.306   1.454
    1MUSC O04ze29998   9.288   0.958   3.247
    1MUSC O04zf29999   9.119   1.306   2.243
    1MUSC O04zg30000   9.330   0.958   2.458
    1MUSC K00JN30001   9.232   2.626   0.845
    1MUSC K00JO30002   9.492   2.173   0.845
    1MUSC Al0pd30003   9.411   2.337   0.343
    1MUSC Al0pe30004   9.404   2.642   0.344
    1MUSC Al0pf30005   9.756   2.337   3.355
    1MUSC Al0pg30006   9.579   2.642   1.346
    1MUSC Al0ph30007   9.671   1.884   0.343
    1MUSC Al0pi30008   9.664   2.189   0.344
    1MUSC Al0pj30009   9.496   1.884   3.355
    1MUSC Al0pk30010   9.319   2.189   1.346
    1MUSC Si1fF30011   9.586   2.652   3.621
    1MUSC Si1fG30012   9.228   2.327   1.080
    1MUSC Si1fH30013   9.580   2.652   0.077
    1MUSC Si1fI30014   9.755   2.327   0.610
    1MUSC Si1fJ30015   9.327   2.497   0.077
    1MUSC Si1fK30016   9.488   2.482   0.610
    1MUSC Si1fL30017   9.840   2.497   3.620
    1MUSC Si1fM30018   9.496   2.482   1.081
    1MUSC Si1fN30019   9.847   2.199   3.621
    1MUSC Si1fO30020   9.489   1.874   1.080
    1MUSC Si1fP30021   9.320   2.199   0.077
    1MUSC Si1fQ30022   9.495   1.874   0.610
    1MUSC Si1fR30023   9.587   2.044   0.077
    1MUSC Si1fS30024   9.748   2.030   0.610
    1MUSC Si1fT30025   9.579   2.044   3.620
    1MUSC Si1fU30026   9.235   2.030   1.081
    1MUSC O04zh30027   9.349   2.485   0.236
    1MUSC O04zi30028   9.466   2.494   0.451
    1MUSC O04zj30029   9.818   2.485   3.461
    1MUSC O04zk30030   9.518   2.494   1.240
    1MUSC O04zl30031   9.605   2.305   3.453
    1MUSC O04zm30032   9.210   2.674   1.248
    1MUSC O04zn30033   9.562   2.305   0.245
    1MUSC O04zo30034   9.773   2.674   0.442
    1MUSC O04zp30035   9.464   2.554   3.672
    1MUSC O04zq30036   9.350   2.425   1.029
    1MUSC O04zr30037   9.702   2.554   0.025
    1MUSC O04zs30038   9.633   2.425   0.662
    1MUSC O04zt30039   9.443   2.591   0.006
    1MUSC O04zu30040   9.372   2.388   0.681
    1MUSC O04zv30041   9.724   2.591   3.692
    1MUSC O04zw30042   9.612   2.388   1.009
    1MUSC O04zx30043   9.343   2.347   0.006
    1MUSC O04zy30044   9.472   2.632   0.681
    1MUSC O04zz30045   9.824   2.347   3.691
    1MUSC O050030046   9.512   2.632   1.010
    1MUSC O050130047   9.605   2.663   3.461
    1MUSC O050230048   9.210   2.316   1.240
    1MUSC O050330049   9.562   2.663   0.236
    1MUSC O050430050   9.773   2.316   0.451
    1MUSC O050530051   9.609   2.033   0.236
    1MUSC O050630052   9.726   2.041   0.451
    1MUSC O050730053   9.557   2.033   3.461
    1MUSC O050830054   9.258   2.041   1.240
    1MUSC O050930055   9.865   1.853   3.453
    1MUSC O050A30056   9.471   2.221   1.248
    1MUSC O050B30057   9.302   1.853   0.245
    1MUSC O050C30058   9.513   2.221   0.442
    1MUSC O050D30059   9.725   2.101   3.672
    1MUSC O050E30060   9.611   1.972   1.029
    1MUSC O050F30061   9.442   2.101   0.025
    1MUSC O050G30062   9.373   1.972   0.662
    1MUSC O050H30063   9.703   2.139   0.006
    1MUSC O050I30064   9.632   1.935   0.681
    1MUSC O050J30065   9.463   2.139   3.692
    1MUSC O050K30066   9.351   1.935   1.009
    1MUSC O050L30067   9.603   1.895   0.006
    1MUSC O050M30068   9.732   2.179   0.681
    1MUSC O050N30069   9.563   1.895   3.691
    1MUSC O050O30070   9.252   2.179   1.010
    1MUSC O050P30071   9.865   2.211   3.461
    1MUSC O050Q30072   9.471   1.863   1.240
    1MUSC O050R30073   9.302   2.211   0.236
    1MUSC O050S30074   9.513   1.863   0.451
    1MUSC K00JP30075   9.400   2.353   1.849
    1MUSC K00JQ30076   9.049   2.626   2.852
    1MUSC K00JR30077   9.140   1.901   1.849
    1MUSC K00JS30078   9.309   2.173   2.852
    1MUSC Al0pl30079   9.228   2.337   2.350
    1MUSC Al0pm30080   9.221   2.642   2.351
    1MUSC Al0pn30081   9.573   2.337   1.348
    1MUSC Al0po30082   9.396   2.642   3.353
    1MUSC Al0pp30083   9.488   1.884   2.350
    1MUSC Al0pq30084   9.481   2.189   2.351
    1MUSC Al0pr30085   9.313   1.884   1.348
    1MUSC Al0ps30086   9.136   2.189   3.353
    1MUSC Si1fV30087   9.403   2.652   1.614
    1MUSC Si1fW30088   9.045   2.327   3.087
    1MUSC Si1fX30089   9.397   2.652   2.084
    1MUSC Si1fY30090   9.572   2.327   2.617
    1MUSC Si1fZ30091   9.144   2.497   2.084
    1MUSC Si1fa30092   9.305   2.482   2.617
    1MUSC Si1fb30093   9.657   2.497   1.613
    1MUSC Si1fc30094   9.313   2.482   3.088
    1MUSC Si1fd30095   9.664   2.199   1.614
    1MUSC Si1fe30096   9.306   1.874   3.087
    1MUSC Si1ff30097   9.137   2.199   2.084
    1MUSC Si1fg30098   9.312   1.874   2.617
    1MUSC Si1fh30099   9.404   2.044   2.084
    1MUSC Si1fi30100   9.565   2.030   2.617
    1MUSC Si1fj30101   9.396   2.044   1.613
    1MUSC Si1fk30102   9.052   2.030   3.088
    1MUSC O050T30103   9.166   2.485   2.243
    1MUSC O050U30104   9.283   2.494   2.458
    1MUSC O050V30105   9.635   2.485   1.454
    1MUSC O050W30106   9.335   2.494   3.247
    1MUSC O050X30107   9.422   2.305   1.446
    1MUSC O050Y30108   9.027   2.674   3.255
    1MUSC O050Z30109   9.379   2.305   2.252
    1MUSC O050a30110   9.590   2.674   2.449
    1MUSC O050b30111   9.281   2.554   1.665
    1MUSC O050c30112   9.167   2.425   3.036
    1MUSC O050d30113   9.519   2.554   2.032
    1MUSC O050e30114   9.450   2.425   2.669
    1MUSC O050f30115   9.260   2.591   2.013
    1MUSC O050g30116   9.189   2.388   2.688
    1MUSC O050h30117   9.541   2.591   1.685
    1MUSC O050i30118   9.429   2.388   3.016
    1MUSC O050j30119   9.160   2.347   2.013
    1MUSC O050k30120   9.289   2.632   2.688
    1MUSC O050l30121   9.641   2.347   1.684
    1MUSC O050m30122   9.329   2.632   3.017
    1MUSC O050n30123   9.422   2.663   1.454
    1MUSC O050o30124   9.027   2.316   3.247
    1MUSC O050p30125   9.379   2.663   2.243
    1MUSC O050q30126   9.590   2.316   2.458
    1MUSC O050r30127   9.426   2.033   2.243
    1MUSC O050s30128   9.543   2.041   2.458
    1MUSC O050t30129   9.374   2.033   1.454
    1MUSC O050u30130   9.075   2.041   3.247
    1MUSC O050v30131   9.682   1.853   1.446
    1MUSC O050w30132   9.288   2.221   3.255
    1MUSC O050x30133   9.119   1.853   2.252
    1MUSC O050y30134   9.330   2.221   2.449
    1MUSC O050z30135   9.542   2.101   1.665
    1MUSC O051030136   9.428   1.972   3.036
    1MUSC O051130137   9.259   2.101   2.032
    1MUSC O051230138   9.190   1.972   2.669
    1MUSC O051330139   9.520   2.139   2.013
    1MUSC O051430140   9.449   1.935   2.688
    1MUSC O051530141   9.280   2.139   1.685
    1MUSC O051630142   9.168   1.935   3.016
    1MUSC O051730143   9.420   1.895   2.013
    1MUSC O051830144   9.549   2.179   2.688
    1MUSC O051930145   9.380   1.895   1.684
    1MUSC O051A30146   9.069   2.179   3.017
    1MUSC O051B30147   9.682   2.211   1.454
    1MUSC O051C30148   9.288   1.863   3.247
    1MUSC O051D30149   9.119   2.211   2.243
    1MUSC O051E30150   9.330   1.863   2.458
    1MUSC K00JT30151   9.232   3.531   0.845
    1MUSC K00JU30152   9.492   3.078   0.845
    1MUSC Al0pt30153   9.411   3.242   0.343
    1MUSC Al0pu30154   9.404   3.547   0.344
    1MUSC Al0pv30155   9.756   3.242   3.355
    1MUSC Al0pw30156   9.579   3.547   1.346
    1MUSC Al0px30157   9.671   2.790   0.343
    1MUSC Al0py30158   9.664   3.095   0.344
    1MUSC Al0pz30159   9.496   2.790   3.355
    1MUSC Al0q030160   9.319   3.095   1.346
    1MUSC Si1fl30161   9.586   3.557   3.621
    1MUSC Si1fm30162   9.228   3.232   1.080
    1MUSC Si1fn30163   9.580   3.557   0.077
    1MUSC Si1fo30164   9.755   3.232   0.610
    1MUSC Si1fp30165   9.327   3.402   0.077
    1MUSC Si1fq30166   9.488   3.388   0.610
    1MUSC Si1fr30167   9.840   3.402   3.620
    1MUSC Si1fs30168   9.496   3.388   1.081
    1MUSC Si1ft30169   9.847   3.105   3.621
    1MUSC Si1fu30170   9.489   2.780   1.080
    1MUSC Si1fv30171   9.320   3.105   0.077
    1MUSC Si1fw30172   9.495   2.780   0.610
    1MUSC Si1fx30173   9.587   2.949   0.077
    1MUSC Si1fy30174   9.748   2.935   0.610
    1MUSC Si1fz30175   9.579   2.949   3.620
    1MUSC Si1g030176   9.235   2.935   1.081
    1MUSC O051F30177   9.349   3.391   0.236
    1MUSC O051G30178   9.466   3.399   0.451
    1MUSC O051H30179   9.818   3.391   3.461
    1MUSC O051I30180   9.518   3.399   1.240
    1MUSC O051J30181   9.605   3.211   3.453
    1MUSC O051K30182   9.210   3.579   1.248
    1MUSC O051L30183   9.562   3.211   0.245
    1MUSC O051M30184   9.773   3.579   0.442
    1MUSC O051N30185   9.464   3.459   3.672
    1MUSC O051O30186   9.350   3.330   1.029
    1MUSC O051P30187   9.702   3.459   0.025
    1MUSC O051Q30188   9.633   3.330   0.662
    1MUSC O051R30189   9.443   3.496   0.006
    1MUSC O051S30190   9.372   3.293   0.681
    1MUSC O051T30191   9.724   3.496   3.692
    1MUSC O051U30192   9.612   3.293   1.009
    1MUSC O051V30193   9.343   3.253   0.006
    1MUSC O051W30194   9.472   3.537   0.681
    1MUSC O051X30195   9.824   3.253   3.691
    1MUSC O051Y30196   9.512   3.537   1.010
    1MUSC O051Z30197   9.605   3.569   3.461
    1MUSC O051a30198   9.210   3.221   1.240
    1MUSC O051b30199   9.562   3.569   0.236
    1MUSC O051c30200   9.773   3.221   0.451
    1MUSC O051d30201   9.609   2.938   0.236
    1MUSC O051e30202   9.726   2.946   0.451
    1MUSC O051f30203   9.557   2.938   3.461
    1MUSC O051g30204   9.258   2.946   1.240
    1MUSC O051h30205   9.865   2.758   3.453
    1MUSC O051i30206   9.471   3.126   1.248
    1MUSC O051j30207   9.302   2.758   0.245
    1MUSC O051k30208   9.513   3.126   0.442
    1MUSC O051l30209   9.725   3.007   3.672
    1MUSC O051m30210   9.611   2.877   1.029
    1MUSC O051n30211   9.442   3.007   0.025
    1MUSC O051o30212   9.373   2.877   0.662
    1MUSC O051p30213   9.703   3.044   0.006
    1MUSC O051q30214   9.632   2.840   0.681
    1MUSC O051r30215   9.463   3.044   3.692
    1MUSC O051s30216   9.351   2.840   1.009
    1MUSC O051t30217   9.603   2.800   0.006
    1MUSC O051u30218   9.732   3.084   0.681
    1MUSC O051v30219   9.563   2.800   3.691
    1MUSC O051w30220   9.252   3.084   1.010
    1MUSC O051x30221   9.865   3.116   3.461
    1MUSC O051y30222   9.471   2.768   1.240
    1MUSC O051z30223   9.302   3.116   0.236
    1MUSC O052030224   9.513   2.768   0.451
    1MUSC K00JV30225   9.400   3.259   1.849
    1MUSC K00JW30226   9.049   3.531   2.852
    1MUSC K00JX30227   9.140   2.806   1.849
    1MUSC K00JY30228   9.309   3.078   2.852
    1MUSC Al0q130229   9.228   3.242   2.350
    1MUSC Al0q230230   9.221   3.547   2.351
    1MUSC Al0q330231   9.573   3.242   1.348
    1MUSC Al0q430232   9.396   3.547   3.353
    1MUSC Al0q530233   9.488   2.790   2.350
    1MUSC Al0q630234   9.481   3.095   2.351
    1MUSC Al0q730235   9.313   2.790   1.348
    1MUSC Al0q830236   9.136   3.095   3.353
    1MUSC Si1g130237   9.403   3.557   1.614
    1MUSC Si1g230238   9.045   3.232   3.087
    1MUSC Si1g330239   9.397   3.557   2.084
    1MUSC Si1g430240   9.572   3.232   2.617
    1MUSC Si1g530241   9.144   3.402   2.084
    1MUSC Si1g630242   9.305   3.388   2.617
    1MUSC Si1g730243   9.657   3.402   1.613
    1MUSC Si1g830244   9.313   3.388   3.088
    1MUSC Si1g930245   9.664   3.105   1.614
    1MUSC Si1gA30246   9.306   2.780   3.087
    1MUSC Si1gB30247   9.137   3.105   2.084
    1MUSC Si1gC30248   9.312   2.780   2.617
    1MUSC Si1gD30249   9.404   2.949   2.084
    1MUSC Si1gE30250   9.565   2.935   2.617
    1MUSC Si1gF30251   9.396   2.949   1.613
    1MUSC Si1gG30252   9.052   2.935   3.088
    1MUSC O052130253   9.166   3.391   2.243
    1MUSC O052230254   9.283   3.399   2.458
    1MUSC O052330255   9.635   3.391   1.454
    1MUSC O052430256   9.335   3.399   3.247
    1MUSC O052530257   9.422   3.211   1.446
    1MUSC O052630258   9.027   3.579   3.255
    1MUSC O052730259   9.379   3.211   2.252
    1MUSC O052830260   9.590   3.579   2.449
    1MUSC O052930261   9.281   3.459   1.665
    1MUSC O052A30262   9.167   3.330   3.036
    1MUSC O052B30263   9.519   3.459   2.032
    1MUSC O052C30264   9.450   3.330   2.669
    1MUSC O052D30265   9.260   3.496   2.013
    1MUSC O052E30266   9.189   3.293   2.688
    1MUSC O052F30267   9.541   3.496   1.685
    1MUSC O052G30268   9.429   3.293   3.016
    1MUSC O052H30269   9.160   3.253   2.013
    1MUSC O052I30270   9.289   3.537   2.688
    1MUSC O052J30271   9.641   3.253   1.684
    1MUSC O052K30272   9.329   3.537   3.017
    1MUSC O052L30273   9.422   3.569   1.454
    1MUSC O052M30274   9.027   3.221   3.247
    1MUSC O052N30275   9.379   3.569   2.243
    1MUSC O052O30276   9.590   3.221   2.458
    1MUSC O052P30277   9.426   2.938   2.243
    1MUSC O052Q30278   9.543   2.946   2.458
    1MUSC O052R30279   9.374   2.938   1.454
    1MUSC O052S30280   9.075   2.946   3.247
    1MUSC O052T30281   9.682   2.758   1.446
    1MUSC O052U30282   9.288   3.126   3.255
    1MUSC O052V30283   9.119   2.758   2.252
    1MUSC O052W30284   9.330   3.126   2.449
    1MUSC O052X30285   9.542   3.007   1.665
    1MUSC O052Y30286   9.428   2.877   3.036
    1MUSC O052Z30287   9.259   3.007   2.032
    1MUSC O052a30288   9.190   2.877   2.669
    1MUSC O052b30289   9.520   3.044   2.013
    1MUSC O052c30290   9.449   2.840   2.688
    1MUSC O052d30291   9.280   3.044   1.685
    1MUSC O052e30292   9.168   2.840   3.016
    1MUSC O052f30293   9.420   2.800   2.013
    1MUSC O052g30294   9.549   3.084   2.688
    1MUSC O052h30295   9.380   2.800   1.684
    1MUSC O052i30296   9.069   3.084   3.017
    1MUSC O052j30297   9.682   3.116   1.454
    1MUSC O052k30298   9.288   2.768   3.247
    1MUSC O052l30299   9.119   3.116   2.243
    1MUSC O052m30300   9.330   2.768   2.458
    1MUSC K00JZ30301   9.232   4.436   0.845
    1MUSC K00Ja30302   9.492   3.983   0.845
    1MUSC Al0q930303   9.411   4.147   0.343
    1MUSC Al0qA30304   9.404   4.453   0.344
    1MUSC Al0qB30305   9.756   4.147   3.355
    1MUSC Al0qC30306   9.579   4.453   1.346
    1MUSC Al0qD30307   9.671   3.695   0.343
    1MUSC Al0qE30308   9.664   4.000   0.344
    1MUSC Al0qF30309   9.496   3.695   3.355
    1MUSC Al0qG30310   9.319   4.000   1.346
    1MUSC Si1gH30311   9.586   4.462   3.621
    1MUSC Si1gI30312   9.228   4.138   1.080
    1MUSC Si1gJ30313   9.580   4.462   0.077
    1MUSC Si1gK30314   9.755   4.138   0.610
    1MUSC Si1gL30315   9.327   4.307   0.077
    1MUSC Si1gM30316   9.488   4.293   0.610
    1MUSC Si1gN30317   9.840   4.307   3.620
    1MUSC Si1gO30318   9.496   4.293   1.081
    1MUSC Si1gP30319   9.847   4.010   3.621
    1MUSC Si1gQ30320   9.489   3.685   1.080
    1MUSC Si1gR30321   9.320   4.010   0.077
    1MUSC Si1gS30322   9.495   3.685   0.610
    1MUSC Si1gT30323   9.587   3.855   0.077
    1MUSC Si1gU30324   9.748   3.840   0.610
    1MUSC Si1gV30325   9.579   3.855   3.620
    1MUSC Si1gW30326   9.235   3.840   1.081
    1MUSC O052n30327   9.349   4.296   0.236
    1MUSC O052o30328   9.466   4.304   0.451
    1MUSC O052p30329   9.818   4.296   3.461
    1MUSC O052q30330   9.518   4.304   1.240
    1MUSC O052r30331   9.605   4.116   3.453
    1MUSC O052s30332   9.210   4.484   1.248
    1MUSC O052t30333   9.562   4.116   0.245
    1MUSC O052u30334   9.773   4.484   0.442
    1MUSC O052v30335   9.464   4.365   3.672
    1MUSC O052w30336   9.350   4.235   1.029
    1MUSC O052x30337   9.702   4.365   0.025
    1MUSC O052y30338   9.633   4.235   0.662
    1MUSC O052z30339   9.443   4.402   0.006
    1MUSC O053030340   9.372   4.198   0.681
    1MUSC O053130341   9.724   4.402   3.692
    1MUSC O053230342   9.612   4.198   1.009
    1MUSC O053330343   9.343   4.158   0.006
    1MUSC O053430344   9.472   4.442   0.681
    1MUSC O053530345   9.824   4.158   3.691
    1MUSC O053630346   9.512   4.442   1.010
    1MUSC O053730347   9.605   4.474   3.461
    1MUSC O053830348   9.210   4.126   1.240
    1MUSC O053930349   9.562   4.474   0.236
    1MUSC O053A30350   9.773   4.126   0.451
    1MUSC O053B30351   9.609   3.843   0.236
    1MUSC O053C30352   9.726   3.852   0.451
    1MUSC O053D30353   9.557   3.843   3.461
    1MUSC O053E30354   9.258   3.852   1.240
    1MUSC O053F30355   9.865   3.663   3.453
    1MUSC O053G30356   9.471   4.031   1.248
    1MUSC O053H30357   9.302   3.663   0.245
    1MUSC O053I30358   9.513   4.031   0.442
    1MUSC O053J30359   9.725   3.912   3.672
    1MUSC O053K30360   9.611   3.783   1.029
    1MUSC O053L30361   9.442   3.912   0.025
    1MUSC O053M30362   9.373   3.783   0.662
    1MUSC O053N30363   9.703   3.949   0.006
    1MUSC O053O30364   9.632   3.746   0.681
    1MUSC O053P30365   9.463   3.949   3.692
    1MUSC O053Q30366   9.351   3.746   1.009
    1MUSC O053R30367   9.603   3.705   0.006
    1MUSC O053S30368   9.732   3.989   0.681
    1MUSC O053T30369   9.563   3.705   3.691
    1MUSC O053U30370   9.252   3.989   1.010
    1MUSC O053V30371   9.865   4.021   3.461
    1MUSC O053W30372   9.471   3.673   1.240
    1MUSC O053X30373   9.302   4.021   0.236
    1MUSC O053Y30374   9.513   3.673   0.451
    1MUSC K00Jb30375   9.400   4.164   1.849
    1MUSC K00Jc30376   9.049   4.436   2.852
    1MUSC K00Jd30377   9.140   3.711   1.849
    1MUSC K00Je30378   9.309   3.983   2.852
    1MUSC Al0qH30379   9.228   4.147   2.350
    1MUSC Al0qI30380   9.221   4.453   2.351
    1MUSC Al0qJ30381   9.573   4.147   1.348
    1MUSC Al0qK30382   9.396   4.453   3.353
    1MUSC Al0qL30383   9.488   3.695   2.350
    1MUSC Al0qM30384   9.481   4.000   2.351
    1MUSC Al0qN30385   9.313   3.695   1.348
    1MUSC Al0qO30386   9.136   4.000   3.353
    1MUSC Si1gX30387   9.403   4.462   1.614
    1MUSC Si1gY30388   9.045   4.138   3.087
    1MUSC Si1gZ30389   9.397   4.462   2.084
    1MUSC Si1ga30390   9.572   4.138   2.617
    1MUSC Si1gb30391   9.144   4.307   2.084
    1MUSC Si1gc30392   9.305   4.293   2.617
    1MUSC Si1gd30393   9.657   4.307   1.613
    1MUSC Si1ge30394   9.313   4.293   3.088
    1MUSC Si1gf30395   9.664   4.010   1.614
    1MUSC Si1gg30396   9.306   3.685   3.087
    1MUSC Si1gh30397   9.137   4.010   2.084
    1MUSC Si1gi30398   9.312   3.685   2.617
    1MUSC Si1gj30399   9.404   3.855   2.084
    1MUSC Si1gk30400   9.565   3.840   2.617
    1MUSC Si1gl30401   9.396   3.855   1.613
    1MUSC Si1gm30402   9.052   3.840   3.088
    1MUSC O053Z30403   9.166   4.296   2.243
    1MUSC O053a30404   9.283   4.304   2.458
    1MUSC O053b30405   9.635   4.296   1.454
    1MUSC O053c30406   9.335   4.304   3.247
    1MUSC O053d30407   9.422   4.116   1.446
    1MUSC O053e30408   9.027   4.484   3.255
    1MUSC O053f30409   9.379   4.116   2.252
    1MUSC O053g30410   9.590   4.484   2.449
    1MUSC O053h30411   9.281   4.365   1.665
    1MUSC O053i30412   9.167   4.235   3.036
    1MUSC O053j30413   9.519   4.365   2.032
    1MUSC O053k30414   9.450   4.235   2.669
    1MUSC O053l30415   9.260   4.402   2.013
    1MUSC O053m30416   9.189   4.198   2.688
    1MUSC O053n30417   9.541   4.402   1.685
    1MUSC O053o30418   9.429   4.198   3.016
    1MUSC O053p30419   9.160   4.158   2.013
    1MUSC O053q30420   9.289   4.442   2.688
    1MUSC O053r30421   9.641   4.158   1.684
    1MUSC O053s30422   9.329   4.442   3.017
    1MUSC O053t30423   9.422   4.474   1.454
    1MUSC O053u30424   9.027   4.126   3.247
    1MUSC O053v30425   9.379   4.474   2.243
    1MUSC O053w30426   9.590   4.126   2.458
    1MUSC O053x30427   9.426   3.843   2.243
    1MUSC O053y30428   9.543   3.852   2.458
    1MUSC O053z30429   9.374   3.843   1.454
    1MUSC O054030430   9.075   3.852   3.247
    1MUSC O054130431   9.682   3.663   1.446
    1MUSC O054230432   9.288   4.031   3.255
    1MUSC O054330433   9.119   3.663   2.252
    1MUSC O054430434   9.330   4.031   2.449
    1MUSC O054530435   9.542   3.912   1.665
    1MUSC O054630436   9.428   3.783   3.036
    1MUSC O054730437   9.259   3.912   2.032
    1MUSC O054830438   9.190   3.783   2.669
    1MUSC O054930439   9.520   3.949   2.013
    1MUSC O054A30440   9.449   3.746   2.688
    1MUSC O054B30441   9.280   3.949   1.685
    1MUSC O054C30442   9.168   3.746   3.016
    1MUSC O054D30443   9.420   3.705   2.013
    1MUSC O054E30444   9.549   3.989   2.688
    1MUSC O054F30445   9.380   3.705   1.684
    1MUSC O054G30446   9.069   3.989   3.017
    1MUSC O054H30447   9.682   4.021   1.454
    1MUSC O054I30448   9.288   3.673   3.247
    1MUSC O054J30449   9.119   4.021   2.243
    1MUSC O054K30450   9.330   3.673   2.458
    1MUSC K00Jf30451   9.232   5.341   0.845
    1MUSC K00Jg30452   9.492   4.889   0.845
    1MUSC Al0qP30453   9.411   5.053   0.343
    1MUSC Al0qQ30454   9.404   5.358   0.344
    1MUSC Al0qR30455   9.756   5.053   3.355
    1MUSC Al0qS30456   9.579   5.358   1.346
    1MUSC Al0qT30457   9.671   4.600   0.343
    1MUSC Al0qU30458   9.664   4.905   0.344
    1MUSC Al0qV30459   9.496   4.600   3.355
    1MUSC Al0qW30460   9.319   4.905   1.346
    1MUSC Si1gn30461   9.586   5.368   3.621
    1MUSC Si1go30462   9.228   5.043   1.080
    1MUSC Si1gp30463   9.580   5.368   0.077
    1MUSC Si1gq30464   9.755   5.043   0.610
    1MUSC Si1gr30465   9.327   5.212   0.077
    1MUSC Si1gs30466   9.488   5.198   0.610
    1MUSC Si1gt30467   9.840   5.212   3.620
    1MUSC Si1gu30468   9.496   5.198   1.081
    1MUSC Si1gv30469   9.847   4.915   3.621
    1MUSC Si1gw30470   9.489   4.590   1.080
    1MUSC Si1gx30471   9.320   4.915   0.077
    1MUSC Si1gy30472   9.495   4.590   0.610
    1MUSC Si1gz30473   9.587   4.760   0.077
    1MUSC Si1h030474   9.748   4.746   0.610
    1MUSC Si1h130475   9.579   4.760   3.620
    1MUSC Si1h230476   9.235   4.746   1.081
    1MUSC O054L30477   9.349   5.201   0.236
    1MUSC O054M30478   9.466   5.209   0.451
    1MUSC O054N30479   9.818   5.201   3.461
    1MUSC O054O30480   9.518   5.209   1.240
    1MUSC O054P30481   9.605   5.021   3.453
    1MUSC O054Q30482   9.210   5.389   1.248
    1MUSC O054R30483   9.562   5.021   0.245
    1MUSC O054S30484   9.773   5.389   0.442
    1MUSC O054T30485   9.464   5.270   3.672
    1MUSC O054U30486   9.350   5.141   1.029
    1MUSC O054V30487   9.702   5.270   0.025
    1MUSC O054W30488   9.633   5.141   0.662
    1MUSC O054X30489   9.443   5.307   0.006
    1MUSC O054Y30490   9.372   5.104   0.681
    1MUSC O054Z30491   9.724   5.307   3.692
    1MUSC O054a30492   9.612   5.104   1.009
    1MUSC O054b30493   9.343   5.063   0.006
    1MUSC O054c30494   9.472   5.347   0.681
    1MUSC O054d30495   9.824   5.063   3.691
    1MUSC O054e30496   9.512   5.347   1.010
    1MUSC O054f30497   9.605   5.379   3.461
    1MUSC O054g30498   9.210   5.031   1.240
    1MUSC O054h30499   9.562   5.379   0.236
    1MUSC O054i30500   9.773   5.031   0.451
    1MUSC O054j30501   9.609   4.749   0.236
    1MUSC O054k30502   9.726   4.757   0.451
    1MUSC O054l30503   9.557   4.749   3.461
    1MUSC O054m30504   9.258   4.757   1.240
    1MUSC O054n30505   9.865   4.569   3.453
    1MUSC O054o30506   9.471   4.937   1.248
    1MUSC O054p30507   9.302   4.569   0.245
    1MUSC O054q30508   9.513   4.937   0.442
    1MUSC O054r30509   9.725   4.817   3.672
    1MUSC O054s30510   9.611   4.688   1.029
    1MUSC O054t30511   9.442   4.817   0.025
    1MUSC O054u30512   9.373   4.688   0.662
    1MUSC O054v30513   9.703   4.854   0.006
    1MUSC O054w30514   9.632   4.651   0.681
    1MUSC O054x30515   9.463   4.854   3.692
    1MUSC O054y30516   9.351   4.651   1.009
    1MUSC O054z30517   9.603   4.611   0.006
    1MUSC O055030518   9.732   4.895   0.681
    1MUSC O055130519   9.563   4.611   3.691
    1MUSC O055230520   9.252   4.895   1.010
    1MUSC O055330521   9.865   4.927   3.461
    1MUSC O055430522   9.471   4.579   1.240
    1MUSC O055530523   9.302   4.927   0.236
    1MUSC O055630524   9.513   4.579   0.451
    1MUSC K00Jh30525   9.400   5.069   1.849
    1MUSC K00Ji30526   9.049   5.341   2.852
    1MUSC K00Jj30527   9.140   4.617   1.849
    1MUSC K00Jk30528   9.309   4.889   2.852
    1MUSC Al0qX30529   9.228   5.053   2.350
    1MUSC Al0qY30530   9.221   5.358   2.351
    1MUSC Al0qZ30531   9.573   5.053   1.348
    1MUSC Al0qa30532   9.396   5.358   3.353
    1MUSC Al0qb30533   9.488   4.600   2.350
    1MUSC Al0qc30534   9.481   4.905   2.351
    1MUSC Al0qd30535   9.313   4.600   1.348
    1MUSC Al0qe30536   9.136   4.905   3.353
    1MUSC Si1h330537   9.403   5.368   1.614
    1MUSC Si1h430538   9.045   5.043   3.087
    1MUSC Si1h530539   9.397   5.368   2.084
    1MUSC Si1h630540   9.572   5.043   2.617
    1MUSC Si1h730541   9.144   5.212   2.084
    1MUSC Si1h830542   9.305   5.198   2.617
    1MUSC Si1h930543   9.657   5.212   1.613
    1MUSC Si1hA30544   9.313   5.198   3.088
    1MUSC Si1hB30545   9.664   4.915   1.614
    1MUSC Si1hC30546   9.306   4.590   3.087
    1MUSC Si1hD30547   9.137   4.915   2.084
    1MUSC Si1hE30548   9.312   4.590   2.617
    1MUSC Si1hF30549   9.404   4.760   2.084
    1MUSC Si1hG30550   9.565   4.746   2.617
    1MUSC Si1hH30551   9.396   4.760   1.613
    1MUSC Si1hI30552   9.052   4.746   3.088
    1MUSC O055730553   9.166   5.201   2.243
    1MUSC O055830554   9.283   5.209   2.458
    1MUSC O055930555   9.635   5.201   1.454
    1MUSC O055A30556   9.335   5.209   3.247
    1MUSC O055B30557   9.422   5.021   1.446
    1MUSC O055C30558   9.027   5.389   3.255
    1MUSC O055D30559   9.379   5.021   2.252
    1MUSC O055E30560   9.590   5.389   2.449
    1MUSC O055F30561   9.281   5.270   1.665
    1MUSC O055G30562   9.167   5.141   3.036
    1MUSC O055H30563   9.519   5.270   2.032
    1MUSC O055I30564   9.450   5.141   2.669
    1MUSC O055J30565   9.260   5.307   2.013
    1MUSC O055K30566   9.189   5.104   2.688
    1MUSC O055L30567   9.541   5.307   1.685
    1MUSC O055M30568   9.429   5.104   3.016
    1MUSC O055N30569   9.160   5.063   2.013
    1MUSC O055O30570   9.289   5.347   2.688
    1MUSC O055P30571   9.641   5.063   1.684
    1MUSC O055Q30572   9.329   5.347   3.017
    1MUSC O055R30573   9.422   5.379   1.454
    1MUSC O055S30574   9.027   5.031   3.247
    1MUSC O055T30575   9.379   5.379   2.243
    1MUSC O055U30576   9.590   5.031   2.458
    1MUSC O055V30577   9.426   4.749   2.243
    1MUSC O055W30578   9.543   4.757   2.458
    1MUSC O055X30579   9.374   4.749   1.454
    1MUSC O055Y30580   9.075   4.757   3.247
    1MUSC O055Z30581   9.682   4.569   1.446
    1MUSC O055a30582   9.288   4.937   3.255
    1MUSC O055b30583   9.119   4.569   2.252
    1MUSC O055c30584   9.330   4.937   2.449
    1MUSC O055d30585   9.542   4.817   1.665
    1MUSC O055e30586   9.428   4.688   3.036
    1MUSC O055f30587   9.259   4.817   2.032
    1MUSC O055g30588   9.190   4.688   2.669
    1MUSC O055h30589   9.520   4.854   2.013
    1MUSC O055i30590   9.449   4.651   2.688
    1MUSC O055j30591   9.280   4.854   1.685
    1MUSC O055k30592   9.168   4.651   3.016
    1MUSC O055l30593   9.420   4.611   2.013
    1MUSC O055m30594   9.549   4.895   2.688
    1MUSC O055n30595   9.380   4.611   1.684
    1MUSC O055o30596   9.069   4.895   3.017
    1MUSC O055p30597   9.682   4.927   1.454
    1MUSC O055q30598   9.288   4.579   3.247
    1MUSC O055r30599   9.119   4.927   2.243
    1MUSC O055s30600   9.330   4.579   2.458
    1MUSC K00Jl30601   9.232   6.247   0.845
    1MUSC K00Jm30602   9.492   5.794   0.845
    1MUSC Al0qf30603   9.411   5.958   0.343
    1MUSC Al0qg30604   9.404   6.263   0.344
    1MUSC Al0qh30605   9.756   5.958   3.355
    1MUSC Al0qi30606   9.579   6.263   1.346
    1MUSC Al0qj30607   9.671   5.505   0.343
    1MUSC Al0qk30608   9.664   5.810   0.344
    1MUSC Al0ql30609   9.496   5.505   3.355
    1MUSC Al0qm30610   9.319   5.810   1.346
    1MUSC Si1hJ30611   9.586   6.273   3.621
    1MUSC Si1hK30612   9.228   5.948   1.080
    1MUSC Si1hL30613   9.580   6.273   0.077
    1MUSC Si1hM30614   9.755   5.948   0.610
    1MUSC Si1hN30615   9.327   6.118   0.077
    1MUSC Si1hO30616   9.488   6.103   0.610
    1MUSC Si1hP30617   9.840   6.118   3.620
    1MUSC Si1hQ30618   9.496   6.103   1.081
    1MUSC Si1hR30619   9.847   5.820   3.621
    1MUSC Si1hS30620   9.489   5.495   1.080
    1MUSC Si1hT30621   9.320   5.820   0.077
    1MUSC Si1hU30622   9.495   5.495   0.610
    1MUSC Si1hV30623   9.587   5.665   0.077
    1MUSC Si1hW30624   9.748   5.651   0.610
    1MUSC Si1hX30625   9.579   5.665   3.620
    1MUSC Si1hY30626   9.235   5.651   1.081
    1MUSC O055t30627   9.349   6.106   0.236
    1MUSC O055u30628   9.466   6.115   0.451
    1MUSC O055v30629   9.818   6.106   3.461
    1MUSC O055w30630   9.518   6.115   1.240
    1MUSC O055x30631   9.605   5.927   3.453
    1MUSC O055y30632   9.210   6.295   1.248
    1MUSC O055z30633   9.562   5.927   0.245
    1MUSC O056030634   9.773   6.295   0.442
    1MUSC O056130635   9.464   6.175   3.672
    1MUSC O056230636   9.350   6.046   1.029
    1MUSC O056330637   9.702   6.175   0.025
    1MUSC O056430638   9.633   6.046   0.662
    1MUSC O056530639   9.443   6.212   0.006
    1MUSC O056630640   9.372   6.009   0.681
    1MUSC O056730641   9.724   6.212   3.692
    1MUSC O056830642   9.612   6.009   1.009
    1MUSC O056930643   9.343   5.969   0.006
    1MUSC O056A30644   9.472   6.253   0.681
    1MUSC O056B30645   9.824   5.969   3.691
    1MUSC O056C30646   9.512   6.253   1.010
    1MUSC O056D30647   9.605   6.285   3.461
    1MUSC O056E30648   9.210   5.937   1.240
    1MUSC O056F30649   9.562   6.285   0.236
    1MUSC O056G30650   9.773   5.937   0.451
    1MUSC O056H30651   9.609   5.654   0.236
    1MUSC O056I30652   9.726   5.662   0.451
    1MUSC O056J30653   9.557   5.654   3.461
    1MUSC O056K30654   9.258   5.662   1.240
    1MUSC O056L30655   9.865   5.474   3.453
    1MUSC O056M30656   9.471   5.842   1.248
    1MUSC O056N30657   9.302   5.474   0.245
    1MUSC O056O30658   9.513   5.842   0.442
    1MUSC O056P30659   9.725   5.723   3.672
    1MUSC O056Q30660   9.611   5.593   1.029
    1MUSC O056R30661   9.442   5.723   0.025
    1MUSC O056S30662   9.373   5.593   0.662
    1MUSC O056T30663   9.703   5.760   0.006
    1MUSC O056U30664   9.632   5.556   0.681
    1MUSC O056V30665   9.463   5.760   3.692
    1MUSC O056W30666   9.351   5.556   1.009
    1MUSC O056X30667   9.603   5.516   0.006
    1MUSC O056Y30668   9.732   5.800   0.681
    1MUSC O056Z30669   9.563   5.516   3.691
    1MUSC O056a30670   9.252   5.800   1.010
    1MUSC O056b30671   9.865   5.832   3.461
    1MUSC O056c30672   9.471   5.484   1.240
    1MUSC O056d30673   9.302   5.832   0.236
    1MUSC O056e30674   9.513   5.484   0.451
    1MUSC K00Jn30675   9.400   5.975   1.849
    1MUSC K00Jo30676   9.049   6.247   2.852
    1MUSC K00Jp30677   9.140   5.522   1.849
    1MUSC K00Jq30678   9.309   5.794   2.852
    1MUSC Al0qn30679   9.228   5.958   2.350
    1MUSC Al0qo30680   9.221   6.263   2.351
    1MUSC Al0qp30681   9.573   5.958   1.348
    1MUSC Al0qq30682   9.396   6.263   3.353
    1MUSC Al0qr30683   9.488   5.505   2.350
    1MUSC Al0qs30684   9.481   5.810   2.351
    1MUSC Al0qt30685   9.313   5.505   1.348
    1MUSC Al0qu30686   9.136   5.810   3.353
    1MUSC Si1hZ30687   9.403   6.273   1.614
    1MUSC Si1ha30688   9.045   5.948   3.087
    1MUSC Si1hb30689   9.397   6.273   2.084
    1MUSC Si1hc30690   9.572   5.948   2.617
    1MUSC Si1hd30691   9.144   6.118   2.084
    1MUSC Si1he30692   9.305   6.103   2.617
    1MUSC Si1hf30693   9.657   6.118   1.613
    1MUSC Si1hg30694   9.313   6.103   3.088
    1MUSC Si1hh30695   9.664   5.820   1.614
    1MUSC Si1hi30696   9.306   5.495   3.087
    1MUSC Si1hj30697   9.137   5.820   2.084
    1MUSC Si1hk30698   9.312   5.495   2.617
    1MUSC Si1hl30699   9.404   5.665   2.084
    1MUSC Si1hm30700   9.565   5.651   2.617
    1MUSC Si1hn30701   9.396   5.665   1.613
    1MUSC Si1ho30702   9.052   5.651   3.088
    1MUSC O056f30703   9.166   6.106   2.243
    1MUSC O056g30704   9.283   6.115   2.458
    1MUSC O056h30705   9.635   6.106   1.454
    1MUSC O056i30706   9.335   6.115   3.247
    1MUSC O056j30707   9.422   5.927   1.446
    1MUSC O056k30708   9.027   6.295   3.255
    1MUSC O056l30709   9.379   5.927   2.252
    1MUSC O056m30710   9.590   6.295   2.449
    1MUSC O056n30711   9.281   6.175   1.665
    1MUSC O056o30712   9.167   6.046   3.036
    1MUSC O056p30713   9.519   6.175   2.032
    1MUSC O056q30714   9.450   6.046   2.669
    1MUSC O056r30715   9.260   6.212   2.013
    1MUSC O056s30716   9.189   6.009   2.688
    1MUSC O056t30717   9.541   6.212   1.685
    1MUSC O056u30718   9.429   6.009   3.016
    1MUSC O056v30719   9.160   5.969   2.013
    1MUSC O056w30720   9.289   6.253   2.688
    1MUSC O056x30721   9.641   5.969   1.684
    1MUSC O056y30722   9.329   6.253   3.017
    1MUSC O056z30723   9.422   6.285   1.454
    1MUSC O057030724   9.027   5.937   3.247
    1MUSC O057130725   9.379   6.285   2.243
    1MUSC O057230726   9.590   5.937   2.458
    1MUSC O057330727   9.426   5.654   2.243
    1MUSC O057430728   9.543   5.662   2.458
    1MUSC O057530729   9.374   5.654   1.454
    1MUSC O057630730   9.075   5.662   3.247
    1MUSC O057730731   9.682   5.474   1.446
    1MUSC O057830732   9.288   5.842   3.255
    1MUSC O057930733   9.119   5.474   2.252
    1MUSC O057A30734   9.330   5.842   2.449
    1MUSC O057B30735   9.542   5.723   1.665
    1MUSC O057C30736   9.428   5.593   3.036
    1MUSC O057D30737   9.259   5.723   2.032
    1MUSC O057E30738   9.190   5.593   2.669
    1MUSC O057F30739   9.520   5.760   2.013
    1MUSC O057G30740   9.449   5.556   2.688
    1MUSC O057H30741   9.280   5.760   1.685
    1MUSC O057I30742   9.168   5.556   3.016
    1MUSC O057J30743   9.420   5.516   2.013
    1MUSC O057K30744   9.549   5.800   2.688
    1MUSC O057L30745   9.380   5.516   1.684
    1MUSC O057M30746   9.069   5.800   3.017
    1MUSC O057N30747   9.682   5.832   1.454
    1MUSC O057O30748   9.288   5.484   3.247
    1MUSC O057P30749   9.119   5.832   2.243
    1MUSC O057Q30750   9.330   5.484   2.458
    1MUSC K00Jr30751   9.232   7.152   0.845
    1MUSC K00Js30752   9.492   6.699   0.845
    1MUSC Al0qv30753   9.411   6.863   0.343
    1MUSC Al0qw30754   9.404   7.168   0.344
    1MUSC Al0qx30755   9.756   6.863   3.355
    1MUSC Al0qy30756   9.579   7.168   1.346
    1MUSC Al0qz30757   9.671   6.411   0.343
    1MUSC Al0r030758   9.664   6.716   0.344
    1MUSC Al0r130759   9.496   6.411   3.355
    1MUSC Al0r230760   9.319   6.716   1.346
    1MUSC Si1hp30761   9.586   7.178   3.621
    1MUSC Si1hq30762   9.228   6.853   1.080
    1MUSC Si1hr30763   9.580   7.178   0.077
    1MUSC Si1hs30764   9.755   6.853   0.610
    1MUSC Si1ht30765   9.327   7.023   0.077
    1MUSC Si1hu30766   9.488   7.009   0.610
    1MUSC Si1hv30767   9.840   7.023   3.620
    1MUSC Si1hw30768   9.496   7.009   1.081
    1MUSC Si1hx30769   9.847   6.726   3.621
    1MUSC Si1hy30770   9.489   6.401   1.080
    1MUSC Si1hz30771   9.320   6.726   0.077
    1MUSC Si1i030772   9.495   6.401   0.610
    1MUSC Si1i130773   9.587   6.570   0.077
    1MUSC Si1i230774   9.748   6.556   0.610
    1MUSC Si1i330775   9.579   6.570   3.620
    1MUSC Si1i430776   9.235   6.556   1.081
    1MUSC O057R30777   9.349   7.012   0.236
    1MUSC O057S30778   9.466   7.020   0.451
    1MUSC O057T30779   9.818   7.012   3.461
    1MUSC O057U30780   9.518   7.020   1.240
    1MUSC O057V30781   9.605   6.832   3.453
    1MUSC O057W30782   9.210   7.200   1.248
    1MUSC O057X30783   9.562   6.832   0.245
    1MUSC O057Y30784   9.773   7.200   0.442
    1MUSC O057Z30785   9.464   7.080   3.672
    1MUSC O057a30786   9.350   6.951   1.029
    1MUSC O057b30787   9.702   7.080   0.025
    1MUSC O057c30788   9.633   6.951   0.662
    1MUSC O057d30789   9.443   7.117   0.006
    1MUSC O057e30790   9.372   6.914   0.681
    1MUSC O057f30791   9.724   7.117   3.692
    1MUSC O057g30792   9.612   6.914   1.009
    1MUSC O057h30793   9.343   6.874   0.006
    1MUSC O057i30794   9.472   7.158   0.681
    1MUSC O057j30795   9.824   6.874   3.691
    1MUSC O057k30796   9.512   7.158   1.010
    1MUSC O057l30797   9.605   7.190   3.461
    1MUSC O057m30798   9.210   6.842   1.240
    1MUSC O057n30799   9.562   7.190   0.236
    1MUSC O057o30800   9.773   6.842   0.451
    1MUSC O057p30801   9.609   6.559   0.236
    1MUSC O057q30802   9.726   6.567   0.451
    1MUSC O057r30803   9.557   6.559   3.461
    1MUSC O057s30804   9.258   6.567   1.240
    1MUSC O057t30805   9.865   6.379   3.453
    1MUSC O057u30806   9.471   6.747   1.248
    1MUSC O057v30807   9.302   6.379   0.245
    1MUSC O057w30808   9.513   6.747   0.442
    1MUSC O057x30809   9.725   6.628   3.672
    1MUSC O057y30810   9.611   6.499   1.029
    1MUSC O057z30811   9.442   6.628   0.025
    1MUSC O058030812   9.373   6.499   0.662
    1MUSC O058130813   9.703   6.665   0.006
    1MUSC O058230814   9.632   6.462   0.681
    1MUSC O058330815   9.463   6.665   3.692
    1MUSC O058430816   9.351   6.462   1.009
    1MUSC O058530817   9.603   6.421   0.006
    1MUSC O058630818   9.732   6.705   0.681
    1MUSC O058730819   9.563   6.421   3.691
    1MUSC O058830820   9.252   6.705   1.010
    1MUSC O058930821   9.865   6.737   3.461
    1MUSC O058A30822   9.471   6.389   1.240
    1MUSC O058B30823   9.302   6.737   0.236
    1MUSC O058C30824   9.513   6.389   0.451
    1MUSC K00Jt30825   9.400   6.880   1.849
    1MUSC K00Ju30826   9.049   7.152   2.852
    1MUSC K00Jv30827   9.140   6.427   1.849
    1MUSC K00Jw30828   9.309   6.699   2.852
    1MUSC Al0r330829   9.228   6.863   2.350
    1MUSC Al0r430830   9.221   7.168   2.351
    1MUSC Al0r530831   9.573   6.863   1.348
    1MUSC Al0r630832   9.396   7.168   3.353
    1MUSC Al0r730833   9.488   6.411   2.350
    1MUSC Al0r830834   9.481   6.716   2.351
    1MUSC Al0r930835   9.313   6.411   1.348
    1MUSC Al0rA30836   9.136   6.716   3.353
    1MUSC Si1i530837   9.403   7.178   1.614
    1MUSC Si1i630838   9.045   6.853   3.087
    1MUSC Si1i730839   9.397   7.178   2.084
    1MUSC Si1i830840   9.572   6.853   2.617
    1MUSC Si1i930841   9.144   7.023   2.084
    1MUSC Si1iA30842   9.305   7.009   2.617
    1MUSC Si1iB30843   9.657   7.023   1.613
    1MUSC Si1iC30844   9.313   7.009   3.088
    1MUSC Si1iD30845   9.664   6.726   1.614
    1MUSC Si1iE30846   9.306   6.401   3.087
    1MUSC Si1iF30847   9.137   6.726   2.084
    1MUSC Si1iG30848   9.312   6.401   2.617
    1MUSC Si1iH30849   9.404   6.570   2.084
    1MUSC Si1iI30850   9.565   6.556   2.617
    1MUSC Si1iJ30851   9.396   6.570   1.613
    1MUSC Si1iK30852   9.052   6.556   3.088
    1MUSC O058D30853   9.166   7.012   2.243
    1MUSC O058E30854   9.283   7.020   2.458
    1MUSC O058F30855   9.635   7.012   1.454
    1MUSC O058G30856   9.335   7.020   3.247
    1MUSC O058H30857   9.422   6.832   1.446
    1MUSC O058I30858   9.027   7.200   3.255
    1MUSC O058J30859   9.379   6.832   2.252
    1MUSC O058K30860   9.590   7.200   2.449
    1MUSC O058L30861   9.281   7.080   1.665
    1MUSC O058M30862   9.167   6.951   3.036
    1MUSC O058N30863   9.519   7.080   2.032
    1MUSC O058O30864   9.450   6.951   2.669
    1MUSC O058P30865   9.260   7.117   2.013
    1MUSC O058Q30866   9.189   6.914   2.688
    1MUSC O058R30867   9.541   7.117   1.685
    1MUSC O058S30868   9.429   6.914   3.016
    1MUSC O058T30869   9.160   6.874   2.013
    1MUSC O058U30870   9.289   7.158   2.688
    1MUSC O058V30871   9.641   6.874   1.684
    1MUSC O058W30872   9.329   7.158   3.017
    1MUSC O058X30873   9.422   7.190   1.454
    1MUSC O058Y30874   9.027   6.842   3.247
    1MUSC O058Z30875   9.379   7.190   2.243
    1MUSC O058a30876   9.590   6.842   2.458
    1MUSC O058b30877   9.426   6.559   2.243
    1MUSC O058c30878   9.543   6.567   2.458
    1MUSC O058d30879   9.374   6.559   1.454
    1MUSC O058e30880   9.075   6.567   3.247
    1MUSC O058f30881   9.682   6.379   1.446
    1MUSC O058g30882   9.288   6.747   3.255
    1MUSC O058h30883   9.119   6.379   2.252
    1MUSC O058i30884   9.330   6.747   2.449
    1MUSC O058j30885   9.542   6.628   1.665
    1MUSC O058k30886   9.428   6.499   3.036
    1MUSC O058l30887   9.259   6.628   2.032
    1MUSC O058m30888   9.190   6.499   2.669
    1MUSC O058n30889   9.520   6.665   2.013
    1MUSC O058o30890   9.449   6.462   2.688
    1MUSC O058p30891   9.280   6.665   1.685
    1MUSC O058q30892   9.168   6.462   3.016
    1MUSC O058r30893   9.420   6.421   2.013
    1MUSC O058s30894   9.549   6.705   2.688
    1MUSC O058t30895   9.380   6.421   1.684
    1MUSC O058u30896   9.069   6.705   3.017
    1MUSC O058v30897   9.682   6.737   1.454
    1MUSC O058w30898   9.288   6.389   3.247
    1MUSC O058x30899   9.119   6.737   2.243
    1MUSC O058y30900   9.330   6.389   2.458
    1MUSC K00Jx30901   9.232   8.057   0.845
    1MUSC K00Jy30902   9.492   7.605   0.845
    1MUSC Al0rB30903   9.411   7.769   0.343
    1MUSC Al0rC30904   9.404   8.074   0.344
    1MUSC Al0rD30905   9.756   7.769   3.355
    1MUSC Al0rE30906   9.579   8.074   1.346
    1MUSC Al0rF30907   9.671   7.316   0.343
    1MUSC Al0rG30908   9.664   7.621   0.344
    1MUSC Al0rH30909   9.496   7.316   3.355
    1MUSC Al0rI30910   9.319   7.621   1.346
    1MUSC Si1iL30911   9.586   8.084   3.621
    1MUSC Si1iM30912   9.228   7.759   1.080
    1MUSC Si1iN30913   9.580   8.084   0.077
    1MUSC Si1iO30914   9.755   7.759   0.610
    1MUSC Si1iP30915   9.327   7.928   0.077
    1MUSC Si1iQ30916   9.488   7.914   0.610
    1MUSC Si1iR30917   9.840   7.928   3.620
    1MUSC Si1iS30918   9.496   7.914   1.081
    1MUSC Si1iT30919   9.847   7.631   3.621
    1MUSC Si1iU30920   9.489   7.306   1.080
    1MUSC Si1iV30921   9.320   7.631   0.077
    1MUSC Si1iW30922   9.495   7.306   0.610
    1MUSC Si1iX30923   9.587   7.476   0.077
    1MUSC Si1iY30924   9.748   7.461   0.610
    1MUSC Si1iZ30925   9.579   7.476   3.620
    1MUSC Si1ia30926   9.235   7.461   1.081
    1MUSC O058z30927   9.349   7.917   0.236
    1MUSC O059030928   9.466   7.925   0.451
    1MUSC O059130929   9.818   7.917   3.461
    1MUSC O059230930   9.518   7.925   1.240
    1MUSC O059330931   9.605   7.737   3.453
    1MUSC O059430932   9.210   8.105   1.248
    1MUSC O059530933   9.562   7.737   0.245
    1MUSC O059630934   9.773   8.105   0.442
    1MUSC O059730935   9.464   7.986   3.672
    1MUSC O059830936   9.350   7.856   1.029
    1MUSC O059930937   9.702   7.986   0.025
    1MUSC O059A30938   9.633   7.856   0.662
    1MUSC O059B30939   9.443   8.023   0.006
    1MUSC O059C30940   9.372   7.819   0.681
    1MUSC O059D30941   9.724   8.023   3.692
    1MUSC O059E30942   9.612   7.819   1.009
    1MUSC O059F30943   9.343   7.779   0.006
    1MUSC O059G30944   9.472   8.063   0.681
    1MUSC O059H30945   9.824   7.779   3.691
    1MUSC O059I30946   9.512   8.063   1.010
    1MUSC O059J30947   9.605   8.095   3.461
    1MUSC O059K30948   9.210   7.747   1.240
    1MUSC O059L30949   9.562   8.095   0.236
    1MUSC O059M30950   9.773   7.747   0.451
    1MUSC O059N30951   9.609   7.464   0.236
    1MUSC O059O30952   9.726   7.473   0.451
    1MUSC O059P30953   9.557   7.464   3.461
    1MUSC O059Q30954   9.258   7.473   1.240
    1MUSC O059R30955   9.865   7.284   3.453
    1MUSC O059S30956   9.471   7.653   1.248
    1MUSC O059T30957   9.302   7.284   0.245
    1MUSC O059U30958   9.513   7.653   0.442
    1MUSC O059V30959   9.725   7.533   3.672
    1MUSC O059W30960   9.611   7.404   1.029
    1MUSC O059X30961   9.442   7.533   0.025
    1MUSC O059Y30962   9.373   7.404   0.662
    1MUSC O059Z30963   9.703   7.570   0.006
    1MUSC O059a30964   9.632   7.367   0.681
    1MUSC O059b30965   9.463   7.570   3.692
    1MUSC O059c30966   9.351   7.367   1.009
    1MUSC O059d30967   9.603   7.326   0.006
    1MUSC O059e30968   9.732   7.611   0.681
    1MUSC O059f30969   9.563   7.326   3.691
    1MUSC O059g30970   9.252   7.611   1.010
    1MUSC O059h30971   9.865   7.642   3.461
    1MUSC O059i30972   9.471   7.295   1.240
    1MUSC O059j30973   9.302   7.642   0.236
    1MUSC O059k30974   9.513   7.295   0.451
    1MUSC K00Jz30975   9.400   7.785   1.849
    1MUSC K00K030976   9.049   8.057   2.852
    1MUSC K00K130977   9.140   7.332   1.849
    1MUSC K00K230978   9.309   7.605   2.852
    1MUSC Al0rJ30979   9.228   7.769   2.350
    1MUSC Al0rK30980   9.221   8.074   2.351
    1MUSC Al0rL30981   9.573   7.769   1.348
    1MUSC Al0rM30982   9.396   8.074   3.353
    1MUSC Al0rN30983   9.488   7.316   2.350
    1MUSC Al0rO30984   9.481   7.621   2.351
    1MUSC Al0rP30985   9.313   7.316   1.348
    1MUSC Al0rQ30986   9.136   7.621   3.353
    1MUSC Si1ib30987   9.403   8.084   1.614
    1MUSC Si1ic30988   9.045   7.759   3.087
    1MUSC Si1id30989   9.397   8.084   2.084
    1MUSC Si1ie30990   9.572   7.759   2.617
    1MUSC Si1if30991   9.144   7.928   2.084
    1MUSC Si1ig30992   9.305   7.914   2.617
    1MUSC Si1ih30993   9.657   7.928   1.613
    1MUSC Si1ii30994   9.313   7.914   3.088
    1MUSC Si1ij30995   9.664   7.631   1.614
    1MUSC Si1ik30996   9.306   7.306   3.087
    1MUSC Si1il30997   9.137   7.631   2.084
    1MUSC Si1im30998   9.312   7.306   2.617
    1MUSC Si1in30999   9.404   7.476   2.084
    1MUSC Si1io31000   9.565   7.461   2.617
    1MUSC Si1ip31001   9.396   7.476   1.613
    1MUSC Si1iq31002   9.052   7.461   3.088
    1MUSC O059l31003   9.166   7.917   2.243
    1MUSC O059m31004   9.283   7.925   2.458
    1MUSC O059n31005   9.635   7.917   1.454
    1MUSC O059o31006   9.335   7.925   3.247
    1MUSC O059p31007   9.422   7.737   1.446
    1MUSC O059q31008   9.027   8.105   3.255
    1MUSC O059r31009   9.379   7.737   2.252
    1MUSC O059s31010   9.590   8.105   2.449
    1MUSC O059t31011   9.281   7.986   1.665
    1MUSC O059u31012   9.167   7.856   3.036
    1MUSC O059v31013   9.519   7.986   2.032
    1MUSC O059w31014   9.450   7.856   2.669
    1MUSC O059x31015   9.260   8.023   2.013
    1MUSC O059y31016   9.189   7.819   2.688
    1MUSC O059z31017   9.541   8.023   1.685
    1MUSC O05A031018   9.429   7.819   3.016
    1MUSC O05A131019   9.160   7.779   2.013
    1MUSC O05A231020   9.289   8.063   2.688
    1MUSC O05A331021   9.641   7.779   1.684
    1MUSC O05A431022   9.329   8.063   3.017
    1MUSC O05A531023   9.422   8.095   1.454
    1MUSC O05A631024   9.027   7.747   3.247
    1MUSC O05A731025   9.379   8.095   2.243
    1MUSC O05A831026   9.590   7.747   2.458
    1MUSC O05A931027   9.426   7.464   2.243
    1MUSC O05AA31028   9.543   7.473   2.458
    1MUSC O05AB31029   9.374   7.464   1.454
    1MUSC O05AC31030   9.075   7.473   3.247
    1MUSC O05AD31031   9.682   7.284   1.446
    1MUSC O05AE31032   9.288   7.653   3.255
    1MUSC O05AF31033   9.119   7.284   2.252
    1MUSC O05AG31034   9.330   7.653   2.449
    1MUSC O05AH31035   9.542   7.533   1.665
    1MUSC O05AI31036   9.428   7.404   3.036
    1MUSC O05AJ31037   9.259   7.533   2.032
    1MUSC O05AK31038   9.190   7.404   2.669
    1MUSC O05AL31039   9.520   7.570   2.013
    1MUSC O05AM31040   9.449   7.367   2.688
    1MUSC O05AN31041   9.280   7.570   1.685
    1MUSC O05AO31042   9.168   7.367   3.016
    1MUSC O05AP31043   9.420   7.326   2.013
    1MUSC O05AQ31044   9.549   7.611   2.688
    1MUSC O05AR31045   9.380   7.326   1.684
    1MUSC O05AS31046   9.069   7.611   3.017
    1MUSC O05AT31047   9.682   7.642   1.454
    1MUSC O05AU31048   9.288   7.295   3.247
    1MUSC O05AV31049   9.119   7.642   2.243
    1MUSC O05AW31050   9.330   7.295   2.458
    1MUSC K00K331051   9.232   8.962   0.845
    1MUSC K00K431052   9.492   8.510   0.845
    1MUSC Al0rR31053   9.411   8.674   0.343
    1MUSC Al0rS31054   9.404   8.979   0.344
    1MUSC Al0rT31055   9.756   8.674   3.355
    1MUSC Al0rU31056   9.579   8.979   1.346
    1MUSC Al0rV31057   9.671   8.221   0.343
    1MUSC Al0rW31058   9.664   8.526   0.344
    1MUSC Al0rX31059   9.496   8.221   3.355
    1MUSC Al0rY31060   9.319   8.526   1.346
    1MUSC Si1ir31061   9.586   8.989   3.621
    1MUSC Si1is31062   9.228   8.664   1.080
    1MUSC Si1it31063   9.580   8.989   0.077
    1MUSC Si1iu31064   9.755   8.664   0.610
    1MUSC Si1iv31065   9.327   8.834   0.077
    1MUSC Si1iw31066   9.488   8.819   0.610
    1MUSC Si1ix31067   9.840   8.834   3.620
    1MUSC Si1iy31068   9.496   8.819   1.081
    1MUSC Si1iz31069   9.847   8.536   3.621
    1MUSC Si1j031070   9.489   8.211   1.080
    1MUSC Si1j131071   9.320   8.536   0.077
    1MUSC Si1j231072   9.495   8.211   0.610
    1MUSC Si1j331073   9.587   8.381   0.077
    1MUSC Si1j431074   9.748   8.367   0.610
    1MUSC Si1j531075   9.579   8.381   3.620
    1MUSC Si1j631076   9.235   8.367   1.081
    1MUSC O05AX31077   9.349   8.822   0.236
    1MUSC O05AY31078   9.466   8.831   0.451
    1MUSC O05AZ31079   9.818   8.822   3.461
    1MUSC O05Aa31080   9.518   8.831   1.240
    1MUSC O05Ab31081   9.605   8.642   3.453
    1MUSC O05Ac31082   9.210   9.010   1.248
    1MUSC O05Ad31083   9.562   8.642   0.245
    1MUSC O05Ae31084   9.773   9.010   0.442
    1MUSC O05Af31085   9.464   8.891   3.672
    1MUSC O05Ag31086   9.350   8.762   1.029
    1MUSC O05Ah31087   9.702   8.891   0.025
    1MUSC O05Ai31088   9.633   8.762   0.662
    1MUSC O05Aj31089   9.443   8.928   0.006
    1MUSC O05Ak31090   9.372   8.725   0.681
    1MUSC O05Al31091   9.724   8.928   3.692
    1MUSC O05Am31092   9.612   8.725   1.009
    1MUSC O05An31093   9.343   8.684   0.006
    1MUSC O05Ao31094   9.472   8.968   0.681
    1MUSC O05Ap31095   9.824   8.684   3.691
    1MUSC O05Aq31096   9.512   8.968   1.010
    1MUSC O05Ar31097   9.605   9.000   3.461
    1MUSC O05As31098   9.210   8.652   1.240
    1MUSC O05At31099   9.562   9.000   0.236
    1MUSC O05Au31100   9.773   8.652   0.451
    1MUSC O05Av31101   9.609   8.370   0.236
    1MUSC O05Aw31102   9.726   8.378   0.451
    1MUSC O05Ax31103   9.557   8.370   3.461
    1MUSC O05Ay31104   9.258   8.378   1.240
    1MUSC O05Az31105   9.865   8.190   3.453
    1MUSC O05B031106   9.471   8.558   1.248
    1MUSC O05B131107   9.302   8.190   0.245
    1MUSC O05B231108   9.513   8.558   0.442
    1MUSC O05B331109   9.725   8.438   3.672
    1MUSC O05B431110   9.611   8.309   1.029
    1MUSC O05B531111   9.442   8.438   0.025
    1MUSC O05B631112   9.373   8.309   0.662
    1MUSC O05B731113   9.703   8.475   0.006
    1MUSC O05B831114   9.632   8.272   0.681
    1MUSC O05B931115   9.463   8.475   3.692
    1MUSC O05BA31116   9.351   8.272   1.009
    1MUSC O05BB31117   9.603   8.232   0.006
    1MUSC O05BC31118   9.732   8.516   0.681
    1MUSC O05BD31119   9.563   8.232   3.691
    1MUSC O05BE31120   9.252   8.516   1.010
    1MUSC O05BF31121   9.865   8.548   3.461
    1MUSC O05BG31122   9.471   8.200   1.240
    1MUSC O05BH31123   9.302   8.548   0.236
    1MUSC O05BI31124   9.513   8.200   0.451
    1MUSC K00K531125   9.400   8.690   1.849
    1MUSC K00K631126   9.049   8.962   2.852
    1MUSC K00K731127   9.140   8.238   1.849
    1MUSC K00K831128   9.309   8.510   2.852
    1MUSC Al0rZ31129   9.228   8.674   2.350
    1MUSC Al0ra31130   9.221   8.979   2.351
    1MUSC Al0rb31131   9.573   8.674   1.348
    1MUSC Al0rc31132   9.396   8.979   3.353
    1MUSC Al0rd31133   9.488   8.221   2.350
    1MUSC Al0re31134   9.481   8.526   2.351
    1MUSC Al0rf31135   9.313   8.221   1.348
    1MUSC Al0rg31136   9.136   8.526   3.353
    1MUSC Si1j731137   9.403   8.989   1.614
    1MUSC Si1j831138   9.045   8.664   3.087
    1MUSC Si1j931139   9.397   8.989   2.084
    1MUSC Si1jA31140   9.572   8.664   2.617
    1MUSC Si1jB31141   9.144   8.834   2.084
    1MUSC Si1jC31142   9.305   8.819   2.617
    1MUSC Si1jD31143   9.657   8.834   1.613
    1MUSC Si1jE31144   9.313   8.819   3.088
    1MUSC Si1jF31145   9.664   8.536   1.614
    1MUSC Si1jG31146   9.306   8.211   3.087
    1MUSC Si1jH31147   9.137   8.536   2.084
    1MUSC Si1jI31148   9.312   8.211   2.617
    1MUSC Si1jJ31149   9.404   8.381   2.084
    1MUSC Si1jK31150   9.565   8.367   2.617
    1MUSC Si1jL31151   9.396   8.381   1.613
    1MUSC Si1jM31152   9.052   8.367   3.088
    1MUSC O05BJ31153   9.166   8.822   2.243
    1MUSC O05BK31154   9.283   8.831   2.458
    1MUSC O05BL31155   9.635   8.822   1.454
    1MUSC O05BM31156   9.335   8.831   3.247
    1MUSC O05BN31157   9.422   8.642   1.446
    1MUSC O05BO31158   9.027   9.010   3.255
    1MUSC O05BP31159   9.379   8.642   2.252
    1MUSC O05BQ31160   9.590   9.010   2.449
    1MUSC O05BR31161   9.281   8.891   1.665
    1MUSC O05BS31162   9.167   8.762   3.036
    1MUSC O05BT31163   9.519   8.891   2.032
    1MUSC O05BU31164   9.450   8.762   2.669
    1MUSC O05BV31165   9.260   8.928   2.013
    1MUSC O05BW31166   9.189   8.725   2.688
    1MUSC O05BX31167   9.541   8.928   1.685
    1MUSC O05BY31168   9.429   8.725   3.016
    1MUSC O05BZ31169   9.160   8.684   2.013
    1MUSC O05Ba31170   9.289   8.968   2.688
    1MUSC O05Bb31171   9.641   8.684   1.684
    1MUSC O05Bc31172   9.329   8.968   3.017
    1MUSC O05Bd31173   9.422   9.000   1.454
    1MUSC O05Be31174   9.027   8.652   3.247
    1MUSC O05Bf31175   9.379   9.000   2.243
    1MUSC O05Bg31176   9.590   8.652   2.458
    1MUSC O05Bh31177   9.426   8.370   2.243
    1MUSC O05Bi31178   9.543   8.378   2.458
    1MUSC O05Bj31179   9.374   8.370   1.454
    1MUSC O05Bk31180   9.075   8.378   3.247
    1MUSC O05Bl31181   9.682   8.190   1.446
    1MUSC O05Bm31182   9.288   8.558   3.255
    1MUSC O05Bn31183   9.119   8.190   2.252
    1MUSC O05Bo31184   9.330   8.558   2.449
    1MUSC O05Bp31185   9.542   8.438   1.665
    1MUSC O05Bq31186   9.428   8.309   3.036
    1MUSC O05Br31187   9.259   8.438   2.032
    1MUSC O05Bs31188   9.190   8.309   2.669
    1MUSC O05Bt31189   9.520   8.475   2.013
    1MUSC O05Bu31190   9.449   8.272   2.688
    1MUSC O05Bv31191   9.280   8.475   1.685
    1MUSC O05Bw31192   9.168   8.272   3.016
    1MUSC O05Bx31193   9.420   8.232   2.013
    1MUSC O05By31194   9.549   8.516   2.688
    1MUSC O05Bz31195   9.380   8.232   1.684
    1MUSC O05C031196   9.069   8.516   3.017
    1MUSC O05C131197   9.682   8.548   1.454
    1MUSC O05C231198   9.288   8.200   3.247
    1MUSC O05C331199   9.119   8.548   2.243
    1MUSC O05C431200   9.330   8.200   2.458
    1MUSC K00K931201   9.232   9.868   0.845
    1MUSC K00KA31202   9.492   9.415   0.845
    1MUSC Al0rh31203   9.411   9.579   0.343
    1MUSC Al0ri31204   9.404   9.884   0.344
    1MUSC Al0rj31205   9.756   9.579   3.355
    1MUSC Al0rk31206   9.579   9.884   1.346
    1MUSC Al0rl31207   9.671   9.126   0.343
    1MUSC Al0rm31208   9.664   9.432   0.344
    1MUSC Al0rn31209   9.496   9.126   3.355
    1MUSC Al0ro31210   9.319   9.432   1.346
    1MUSC Si1jN31211   9.586   9.894   3.621
    1MUSC Si1jO31212   9.228   9.569   1.080
    1MUSC Si1jP31213   9.580   9.894   0.077
    1MUSC Si1jQ31214   9.755   9.569   0.610
    1MUSC Si1jR31215   9.327   9.739   0.077
    1MUSC Si1jS31216   9.488   9.724   0.610
    1MUSC Si1jT31217   9.840   9.739   3.620
    1MUSC Si1jU31218   9.496   9.724   1.081
    1MUSC Si1jV31219   9.847   9.441   3.621
    1MUSC Si1jW31220   9.489   9.117   1.080
    1MUSC Si1jX31221   9.320   9.441   0.077
    1MUSC Si1jY31222   9.495   9.117   0.610
    1MUSC Si1jZ31223   9.587   9.286   0.077
    1MUSC Si1ja31224   9.748   9.272   0.610
    1MUSC Si1jb31225   9.579   9.286   3.620
    1MUSC Si1jc31226   9.235   9.272   1.081
    1MUSC O05C531227   9.349   9.728   0.236
    1MUSC O05C631228   9.466   9.736   0.451
    1MUSC O05C731229   9.818   9.728   3.461
    1MUSC O05C831230   9.518   9.736   1.240
    1MUSC O05C931231   9.605   9.548   3.453
    1MUSC O05CA31232   9.210   9.916   1.248
    1MUSC O05CB31233   9.562   9.548   0.245
    1MUSC O05CC31234   9.773   9.916   0.442
    1MUSC O05CD31235   9.464   9.796   3.672
    1MUSC O05CE31236   9.350   9.667   1.029
    1MUSC O05CF31237   9.702   9.796   0.025
    1MUSC O05CG31238   9.633   9.667   0.662
    1MUSC O05CH31239   9.443   9.833   0.006
    1MUSC O05CI31240   9.372   9.630   0.681
    1MUSC O05CJ31241   9.724   9.833   3.692
    1MUSC O05CK31242   9.612   9.630   1.009
    1MUSC O05CL31243   9.343   9.590   0.006
    1MUSC O05CM31244   9.472   9.874   0.681
    1MUSC O05CN31245   9.824   9.590   3.691
    1MUSC O05CO31246   9.512   9.874   1.010
    1MUSC O05CP31247   9.605   9.906   3.461
    1MUSC O05CQ31248   9.210   9.558   1.240
    1MUSC O05CR31249   9.562   9.906   0.236
    1MUSC O05CS31250   9.773   9.558   0.451
    1MUSC O05CT31251   9.609   9.275   0.236
    1MUSC O05CU31252   9.726   9.283   0.451
    1MUSC O05CV31253   9.557   9.275   3.461
    1MUSC O05CW31254   9.258   9.283   1.240
    1MUSC O05CX31255   9.865   9.095   3.453
    1MUSC O05CY31256   9.471   9.463   1.248
    1MUSC O05CZ31257   9.302   9.095   0.245
    1MUSC O05Ca31258   9.513   9.463   0.442
    1MUSC O05Cb31259   9.725   9.344   3.672
    1MUSC O05Cc31260   9.611   9.214   1.029
    1MUSC O05Cd31261   9.442   9.344   0.025
    1MUSC O05Ce31262   9.373   9.214   0.662
    1MUSC O05Cf31263   9.703   9.381   0.006
    1MUSC O05Cg31264   9.632   9.177   0.681
    1MUSC O05Ch31265   9.463   9.381   3.692
    1MUSC O05Ci31266   9.351   9.177   1.009
    1MUSC O05Cj31267   9.603   9.137   0.006
    1MUSC O05Ck31268   9.732   9.421   0.681
    1MUSC O05Cl31269   9.563   9.137   3.691
    1MUSC O05Cm31270   9.252   9.421   1.010
    1MUSC O05Cn31271   9.865   9.453   3.461
    1MUSC O05Co31272   9.471   9.105   1.240
    1MUSC O05Cp31273   9.302   9.453   0.236
    1MUSC O05Cq31274   9.513   9.105   0.451
    1MUSC K00KB31275   9.400   9.596   1.849
    1MUSC K00KC31276   9.049   9.868   2.852
    1MUSC K00KD31277   9.140   9.143   1.849
    1MUSC K00KE31278   9.309   9.415   2.852
    1MUSC Al0rp31279   9.228   9.579   2.350
    1MUSC Al0rq31280   9.221   9.884   2.351
    1MUSC Al0rr31281   9.573   9.579   1.348
    1MUSC Al0rs31282   9.396   9.884   3.353
    1MUSC Al0rt31283   9.488   9.126   2.350
    1MUSC Al0ru31284   9.481   9.432   2.351
    1MUSC Al0rv31285   9.313   9.126   1.348
    1MUSC Al0rw31286   9.136   9.432   3.353
    1MUSC Si1jd31287   9.403   9.894   1.614
    1MUSC Si1je31288   9.045   9.569   3.087
    1MUSC Si1jf31289   9.397   9.894   2.084
    1MUSC Si1jg31290   9.572   9.569   2.617
    1MUSC Si1jh31291   9.144   9.739   2.084
    1MUSC Si1ji31292   9.305   9.724   2.617
    1MUSC Si1jj31293   9.657   9.739   1.613
    1MUSC Si1jk31294   9.313   9.724   3.088
    1MUSC Si1jl31295   9.664   9.441   1.614
    1MUSC Si1jm31296   9.306   9.117   3.087
    1MUSC Si1jn31297   9.137   9.441   2.084
    1MUSC Si1jo31298   9.312   9.117   2.617
    1MUSC Si1jp31299   9.404   9.286   2.084
    1MUSC Si1jq31300   9.565   9.272   2.617
    1MUSC Si1jr31301   9.396   9.286   1.613
    1MUSC Si1js31302   9.052   9.272   3.088
    1MUSC O05Cr31303   9.166   9.728   2.243
    1MUSC O05Cs31304   9.283   9.736   2.458
    1MUSC O05Ct31305   9.635   9.728   1.454
    1MUSC O05Cu31306   9.335   9.736   3.247
    1MUSC O05Cv31307   9.422   9.548   1.446
    1MUSC O05Cw31308   9.027   9.916   3.255
    1MUSC O05Cx31309   9.379   9.548   2.252
    1MUSC O05Cy31310   9.590   9.916   2.449
    1MUSC O05Cz31311   9.281   9.796   1.665
    1MUSC O05D031312   9.167   9.667   3.036
    1MUSC O05D131313   9.519   9.796   2.032
    1MUSC O05D231314   9.450   9.667   2.669
    1MUSC O05D331315   9.260   9.833   2.013
    1MUSC O05D431316   9.189   9.630   2.688
    1MUSC O05D531317   9.541   9.833   1.685
    1MUSC O05D631318   9.429   9.630   3.016
    1MUSC O05D731319   9.160   9.590   2.013
    1MUSC O05D831320   9.289   9.874   2.688
    1MUSC O05D931321   9.641   9.590   1.684
    1MUSC O05DA31322   9.329   9.874   3.017
    1MUSC O05DB31323   9.422   9.906   1.454
    1MUSC O05DC31324   9.027   9.558   3.247
    1MUSC O05DD31325   9.379   9.906   2.243
    1MUSC O05DE31326   9.590   9.558   2.458
    1MUSC O05DF31327   9.426   9.275   2.243
    1MUSC O05DG31328   9.543   9.283   2.458
    1MUSC O05DH31329   9.374   9.275   1.454
    1MUSC O05DI31330   9.075   9.283   3.247
    1MUSC O05DJ31331   9.682   9.095   1.446
    1MUSC O05DK31332   9.288   9.463   3.255
    1MUSC O05DL31333   9.119   9.095   2.252
    1MUSC O05DM31334   9.330   9.463   2.449
    1MUSC O05DN31335   9.542   9.344   1.665
    1MUSC O05DO31336   9.428   9.214   3.036
    1MUSC O05DP31337   9.259   9.344   2.032
    1MUSC O05DQ31338   9.190   9.214   2.669
    1MUSC O05DR31339   9.520   9.381   2.013
    1MUSC O05DS31340   9.449   9.177   2.688
    1MUSC O05DT31341   9.280   9.381   1.685
    1MUSC O05DU31342   9.168   9.177   3.016
    1MUSC O05DV31343   9.420   9.137   2.013
    1MUSC O05DW31344   9.549   9.421   2.688
    1MUSC O05DX31345   9.380   9.137   1.684
    1MUSC O05DY31346   9.069   9.421   3.017
    1MUSC O05DZ31347   9.682   9.453   1.454
    1MUSC O05Da31348   9.288   9.105   3.247
    1MUSC O05Db31349   9.119   9.453   2.243
    1MUSC O05Dc31350   9.330   9.105   2.458
    1MUSC H000131351   0.236   0.495   3.548
    1MUSC H000231352   9.731   0.863   1.153
    1MUSC H000331353   0.193   0.495   0.150
    1MUSC H000431354   0.404   0.863   0.537
    1MUSC H000531355   0.496   0.042   3.548
    1MUSC H000631356   0.102   0.410   1.153
    1MUSC H000731357   9.822   0.042   0.150
    1MUSC H000831358   0.144   0.410   0.537
    1MUSC H000931359   0.053   0.495   1.541
    1MUSC H000A31360   9.548   0.863   3.160
    1MUSC H000B31361   0.010   0.495   2.157
    1MUSC H000C31362   0.221   0.863   2.544
    1MUSC H000D31363   0.313   0.042   1.541
    1MUSC H000E31364   9.808   0.410   3.160
    1MUSC H000F31365   9.639   0.042   2.157
    1MUSC H000G31366   9.850   0.410   2.544
    1MUSC H000H31367   0.236   1.400   3.548
    1MUSC H000I31368   9.731   1.768   1.153
    1MUSC H000J31369   0.193   1.400   0.150
    1MUSC H000K31370   0.404   1.768   0.537
    1MUSC H000L31371   0.496   0.948   3.548
    1MUSC H000M31372   0.102   1.316   1.153
    1MUSC H000N31373   9.822   0.948   0.150
    1MUSC H000O31374   0.144   1.316   0.537
    1MUSC H000P31375   0.053   1.400   1.541
    1MUSC H000Q31376   9.548   1.768   3.160
    1MUSC H000R31377   0.010   1.400   2.157
    1MUSC H000S31378   0.221   1.768   2.544
    1MUSC H000T31379   0.313   0.948   1.541
    1MUSC H000U31380   9.808   1.316   3.160
    1MUSC H000V31381   9.639   0.948   2.157
    1MUSC H000W31382   9.850   1.316   2.544
    1MUSC H000X31383   0.236   2.305   3.548
    1MUSC H000Y31384   9.731   2.674   1.153
    1MUSC H000Z31385   0.193   2.305   0.150
    1MUSC H000a31386   0.404   2.674   0.537
    1MUSC H000b31387   0.496   1.853   3.548
    1MUSC H000c31388   0.102   2.221   1.153
    1MUSC H000d31389   9.822   1.853   0.150
    1MUSC H000e31390   0.144   2.221   0.537
    1MUSC H000f31391   0.053   2.305   1.541
    1MUSC H000g31392   9.548   2.674   3.160
    1MUSC H000h31393   0.010   2.305   2.157
    1MUSC H000i31394   0.221   2.674   2.544
    1MUSC H000j31395   0.313   1.853   1.541
    1MUSC H000k31396   9.808   2.221   3.160
    1MUSC H000l31397   9.639   1.853   2.157
    1MUSC H000m31398   9.850   2.221   2.544
    1MUSC H000n31399   0.236   3.211   3.548
    1MUSC H000o31400   9.731   3.579   1.153
    1MUSC H000p31401   0.193   3.211   0.150
    1MUSC H000q31402   0.404   3.579   0.537
    1MUSC H000r31403   0.496   2.758   3.548
    1MUSC H000s31404   0.102   3.126   1.153
    1MUSC H000t31405   9.822   2.758   0.150
    1MUSC H000u31406   0.144   3.126   0.537
    1MUSC H000v31407   0.053   3.211   1.541
    1MUSC H000w31408   9.548   3.579   3.160
    1MUSC H000x31409   0.010   3.211   2.157
    1MUSC H000y31410   0.221   3.579   2.544
    1MUSC H000z31411   0.313   2.758   1.541
    1MUSC H001031412   9.808   3.126   3.160
    1MUSC H001131413   9.639   2.758   2.157
    1MUSC H001231414   9.850   3.126   2.544
    1MUSC H001331415   0.236   4.116   3.548
    1MUSC H001431416   9.731   4.484   1.153
    1MUSC H001531417   0.193   4.116   0.150
    1MUSC H001631418   0.404   4.484   0.537
    1MUSC H001731419   0.496   3.663   3.548
    1MUSC H001831420   0.102   4.031   1.153
    1MUSC H001931421   9.822   3.663   0.150
    1MUSC H001A31422   0.144   4.031   0.537
    1MUSC H001B31423   0.053   4.116   1.541
    1MUSC H001C31424   9.548   4.484   3.160
    1MUSC H001D31425   0.010   4.116   2.157
    1MUSC H001E31426   0.221   4.484   2.544
    1MUSC H001F31427   0.313   3.663   1.541
    1MUSC H001G31428   9.808   4.031   3.160
    1MUSC H001H31429   9.639   3.663   2.157
    1MUSC H001I31430   9.850   4.031   2.544
    1MUSC H001J31431   0.236   5.021   3.548
    1MUSC H001K31432   9.731   5.389   1.153
    1MUSC H001L31433   0.193   5.021   0.150
    1MUSC H001M31434   0.404   5.389   0.537
    1MUSC H001N31435   0.496   4.569   3.548
    1MUSC H001O31436   0.102   4.937   1.153
    1MUSC H001P31437   9.822   4.569   0.150
    1MUSC H001Q31438   0.144   4.937   0.537
    1MUSC H001R31439   0.053   5.021   1.541
    1MUSC H001S31440   9.548   5.389   3.160
    1MUSC H001T31441   0.010   5.021   2.157
    1MUSC H001U31442   0.221   5.389   2.544
    1MUSC H001V31443   0.313   4.569   1.541
    1MUSC H001W31444   9.808   4.937   3.160
    1MUSC H001X31445   9.639   4.569   2.157
    1MUSC H001Y31446   9.850   4.937   2.544
    1MUSC H001Z31447   0.236   5.927   3.548
    1MUSC H001a31448   9.731   6.295   1.153
    1MUSC H001b31449   0.193   5.927   0.150
    1MUSC H001c31450   0.404   6.295   0.537
    1MUSC H001d31451   0.496   5.474   3.548
    1MUSC H001e31452   0.102   5.842   1.153
    1MUSC H001f31453   9.822   5.474   0.150
    1MUSC H001g31454   0.144   5.842   0.537
    1MUSC H001h31455   0.053   5.927   1.541
    1MUSC H001i31456   9.548   6.295   3.160
    1MUSC H001j31457   0.010   5.927   2.157
    1MUSC H001k31458   0.221   6.295   2.544
    1MUSC H001l31459   0.313   5.474   1.541
    1MUSC H001m31460   9.808   5.842   3.160
    1MUSC H001n31461   9.639   5.474   2.157
    1MUSC H001o31462   9.850   5.842   2.544
    1MUSC H001p31463   0.236   6.832   3.548
    1MUSC H001q31464   9.731   7.200   1.153
    1MUSC H001r31465   0.193   6.832   0.150
    1MUSC H001s31466   0.404   7.200   0.537
    1MUSC H001t31467   0.496   6.379   3.548
    1MUSC H001u31468   0.102   6.747   1.153
    1MUSC H001v31469   9.822   6.379   0.150
    1MUSC H001w31470   0.144   6.747   0.537
    1MUSC H001x31471   0.053   6.832   1.541
    1MUSC H001y31472   9.548   7.200   3.160
    1MUSC H001z31473   0.010   6.832   2.157
    1MUSC H002031474   0.221   7.200   2.544
    1MUSC H002131475   0.313   6.379   1.541
    1MUSC H002231476   9.808   6.747   3.160
    1MUSC H002331477   9.639   6.379   2.157
    1MUSC H002431478   9.850   6.747   2.544
    1MUSC H002531479   0.236   7.737   3.548
    1MUSC H002631480   9.731   8.105   1.153
    1MUSC H002731481   0.193   7.737   0.150
    1MUSC H002831482   0.404   8.105   0.537
    1MUSC H002931483   0.496   7.284   3.548
    1MUSC H002A31484   0.102   7.653   1.153
    1MUSC H002B31485   9.822   7.284   0.150
    1MUSC H002C31486   0.144   7.653   0.537
    1MUSC H002D31487   0.053   7.737   1.541
    1MUSC H002E31488   9.548   8.105   3.160
    1MUSC H002F31489   0.010   7.737   2.157
    1MUSC H002G31490   0.221   8.105   2.544
    1MUSC H002H31491   0.313   7.284   1.541
    1MUSC H002I31492   9.808   7.653   3.160
    1MUSC H002J31493   9.639   7.284   2.157
    1MUSC H002K31494   9.850   7.653   2.544
    1MUSC H002L31495   0.236   8.642   3.548
    1MUSC H002M31496   9.731   9.010   1.153
    1MUSC H002N31497   0.193   8.642   0.150
    1MUSC H002O31498   0.404   9.010   0.537
    1MUSC H002P31499   0.496   8.190   3.548
    1MUSC H002Q31500   0.102   8.558   1.153
    1MUSC H002R31501   9.822   8.190   0.150
    1MUSC H002S31502   0.144   8.558   0.537
    1MUSC H002T31503   0.053   8.642   1.541
    1MUSC H002U31504   9.548   9.010   3.160
    1MUSC H002V31505   0.010   8.642   2.157
    1MUSC H002W31506   0.221   9.010   2.544
    1MUSC H002X31507   0.313   8.190   1.541
    1MUSC H002Y31508   9.808   8.558   3.160
    1MUSC H002Z31509   9.639   8.190   2.157
    1MUSC H002a31510   9.850   8.558   2.544
    1MUSC H002b31511   0.236   9.548   3.548
    1MUSC H002c31512   9.731   9.916   1.153
    1MUSC H002d31513   0.193   9.548   0.150
    1MUSC H002e31514   0.404   9.916   0.537
    1MUSC H002f31515   0.496   9.095   3.548
    1MUSC H002g31516   0.102   9.463   1.153
    1MUSC H002h31517   9.822   9.095   0.150
    1MUSC H002i31518   0.144   9.463   0.537
    1MUSC H002j31519   0.053   9.548   1.541
    1MUSC H002k31520   9.548   9.916   3.160
    1MUSC H002l31521   0.010   9.548   2.157
    1MUSC H002m31522   0.221   9.916   2.544
    1MUSC H002n31523   0.313   9.095   1.541
    1MUSC H002o31524   9.808   9.463   3.160
    1MUSC H002p31525   9.639   9.095   2.157
    1MUSC H002q31526   9.850   9.463   2.544
    1MUSC H002r31527   0.756   0.495   3.548
    1MUSC H002s31528   0.362   0.863   1.153
    1MUSC H002t31529   0.714   0.495   0.150
    1MUSC H002u31530   0.925   0.863   0.537
    1MUSC H002v31531   1.016   0.042   3.548
    1MUSC H002w31532   0.622   0.410   1.153
    1MUSC H002x31533   0.454   0.042   0.150
    1MUSC H002y31534   0.665   0.410   0.537
    1MUSC H002z31535   0.573   0.495   1.541
    1MUSC H003031536   0.179   0.863   3.160
    1MUSC H003131537   0.531   0.495   2.157
    1MUSC H003231538   0.742   0.863   2.544
    1MUSC H003331539   0.833   0.042   1.541
    1MUSC H003431540   0.439   0.410   3.160
    1MUSC H003531541   0.271   0.042   2.157
    1MUSC H003631542   0.482   0.410   2.544
    1MUSC H003731543   0.756   1.400   3.548
    1MUSC H003831544   0.362   1.768   1.153
    1MUSC H003931545   0.714   1.400   0.150
    1MUSC H003A31546   0.925   1.768   0.537
    1MUSC H003B31547   1.016   0.948   3.548
    1MUSC H003C31548   0.622   1.316   1.153
    1MUSC H003D31549   0.454   0.948   0.150
    1MUSC H003E31550   0.665   1.316   0.537
    1MUSC H003F31551   0.573   1.400   1.541
    1MUSC H003G31552   0.179   1.768   3.160
    1MUSC H003H31553   0.531   1.400   2.157
    1MUSC H003I31554   0.742   1.768   2.544
    1MUSC H003J31555   0.833   0.948   1.541
    1MUSC H003K31556   0.439   1.316   3.160
    1MUSC H003L31557   0.271   0.948   2.157
    1MUSC H003M31558   0.482   1.316   2.544
    1MUSC H003N31559   0.756   2.305   3.548
    1MUSC H003O31560   0.362   2.674   1.153
    1MUSC H003P31561   0.714   2.305   0.150
    1MUSC H003Q31562   0.925   2.674   0.537
    1MUSC H003R31563   1.016   1.853   3.548
    1MUSC H003S31564   0.622   2.221   1.153
    1MUSC H003T31565   0.454   1.853   0.150
    1MUSC H003U31566   0.665   2.221   0.537
    1MUSC H003V31567   0.573   2.305   1.541
    1MUSC H003W31568   0.179   2.674   3.160
    1MUSC H003X31569   0.531   2.305   2.157
    1MUSC H003Y31570   0.742   2.674   2.544
    1MUSC H003Z31571   0.833   1.853   1.541
    1MUSC H003a31572   0.439   2.221   3.160
    1MUSC H003b31573   0.271   1.853   2.157
    1MUSC H003c31574   0.482   2.221   2.544
    1MUSC H003d31575   0.756   3.211   3.548
    1MUSC H003e31576   0.362   3.579   1.153
    1MUSC H003f31577   0.714   3.211   0.150
    1MUSC H003g31578   0.925   3.579   0.537
    1MUSC H003h31579   1.016   2.758   3.548
    1MUSC H003i31580   0.622   3.126   1.153
    1MUSC H003j31581   0.454   2.758   0.150
    1MUSC H003k31582   0.665   3.126   0.537
    1MUSC H003l31583   0.573   3.211   1.541
    1MUSC H003m31584   0.179   3.579   3.160
    1MUSC H003n31585   0.531   3.211   2.157
    1MUSC H003o31586   0.742   3.579   2.544
    1MUSC H003p31587   0.833   2.758   1.541
    1MUSC H003q31588   0.439   3.126   3.160
    1MUSC H003r31589   0.271   2.758   2.157
    1MUSC H003s31590   0.482   3.126   2.544
    1MUSC H003t31591   0.756   4.116   3.548
    1MUSC H003u31592   0.362   4.484   1.153
    1MUSC H003v31593   0.714   4.116   0.150
    1MUSC H003w31594   0.925   4.484   0.537
    1MUSC H003x31595   1.016   3.663   3.548
    1MUSC H003y31596   0.622   4.031   1.153
    1MUSC H003z31597   0.454   3.663   0.150
    1MUSC H004031598   0.665   4.031   0.537
    1MUSC H004131599   0.573   4.116   1.541
    1MUSC H004231600   0.179   4.484   3.160
    1MUSC H004331601   0.531   4.116   2.157
    1MUSC H004431602   0.742   4.484   2.544
    1MUSC H004531603   0.833   3.663   1.541
    1MUSC H004631604   0.439   4.031   3.160
    1MUSC H004731605   0.271   3.663   2.157
    1MUSC H004831606   0.482   4.031   2.544
    1MUSC H004931607   0.756   5.021   3.548
    1MUSC H004A31608   0.362   5.389   1.153
    1MUSC H004B31609   0.714   5.021   0.150
    1MUSC H004C31610   0.925   5.389   0.537
    1MUSC H004D31611   1.016   4.569   3.548
    1MUSC H004E31612   0.622   4.937   1.153
    1MUSC H004F31613   0.454   4.569   0.150
    1MUSC H004G31614   0.665   4.937   0.537
    1MUSC H004H31615   0.573   5.021   1.541
    1MUSC H004I31616   0.179   5.389   3.160
    1MUSC H004J31617   0.531   5.021   2.157
    1MUSC H004K31618   0.742   5.389   2.544
    1MUSC H004L31619   0.833   4.569   1.541
    1MUSC H004M31620   0.439   4.937   3.160
    1MUSC H004N31621   0.271   4.569   2.157
    1MUSC H004O31622   0.482   4.937   2.544
    1MUSC H004P31623   0.756   5.927   3.548
    1MUSC H004Q31624   0.362   6.295   1.153
    1MUSC H004R31625   0.714   5.927   0.150
    1MUSC H004S31626   0.925   6.295   0.537
    1MUSC H004T31627   1.016   5.474   3.548
    1MUSC H004U31628   0.622   5.842   1.153
    1MUSC H004V31629   0.454   5.474   0.150
    1MUSC H004W31630   0.665   5.842   0.537
    1MUSC H004X31631   0.573   5.927   1.541
    1MUSC H004Y31632   0.179   6.295   3.160
    1MUSC H004Z31633   0.531   5.927   2.157
    1MUSC H004a31634   0.742   6.295   2.544
    1MUSC H004b31635   0.833   5.474   1.541
    1MUSC H004c31636   0.439   5.842   3.160
    1MUSC H004d31637   0.271   5.474   2.157
    1MUSC H004e31638   0.482   5.842   2.544
    1MUSC H004f31639   0.756   6.832   3.548
    1MUSC H004g31640   0.362   7.200   1.153
    1MUSC H004h31641   0.714   6.832   0.150
    1MUSC H004i31642   0.925   7.200   0.537
    1MUSC H004j31643   1.016   6.379   3.548
    1MUSC H004k31644   0.622   6.747   1.153
    1MUSC H004l31645   0.454   6.379   0.150
    1MUSC H004m31646   0.665   6.747   0.537
    1MUSC H004n31647   0.573   6.832   1.541
    1MUSC H004o31648   0.179   7.200   3.160
    1MUSC H004p31649   0.531   6.832   2.157
    1MUSC H004q31650   0.742   7.200   2.544
    1MUSC H004r31651   0.833   6.379   1.541
    1MUSC H004s31652   0.439   6.747   3.160
    1MUSC H004t31653   0.271   6.379   2.157
    1MUSC H004u31654   0.482   6.747   2.544
    1MUSC H004v31655   0.756   7.737   3.548
    1MUSC H004w31656   0.362   8.105   1.153
    1MUSC H004x31657   0.714   7.737   0.150
    1MUSC H004y31658   0.925   8.105   0.537
    1MUSC H004z31659   1.016   7.284   3.548
    1MUSC H005031660   0.622   7.653   1.153
    1MUSC H005131661   0.454   7.284   0.150
    1MUSC H005231662   0.665   7.653   0.537
    1MUSC H005331663   0.573   7.737   1.541
    1MUSC H005431664   0.179   8.105   3.160
    1MUSC H005531665   0.531   7.737   2.157
    1MUSC H005631666   0.742   8.105   2.544
    1MUSC H005731667   0.833   7.284   1.541
    1MUSC H005831668   0.439   7.653   3.160
    1MUSC H005931669   0.271   7.284   2.157
    1MUSC H005A31670   0.482   7.653   2.544
    1MUSC H005B31671   0.756   8.642   3.548
    1MUSC H005C31672   0.362   9.010   1.153
    1MUSC H005D31673   0.714   8.642   0.150
    1MUSC H005E31674   0.925   9.010   0.537
    1MUSC H005F31675   1.016   8.190   3.548
    1MUSC H005G31676   0.622   8.558   1.153
    1MUSC H005H31677   0.454   8.190   0.150
    1MUSC H005I31678   0.665   8.558   0.537
    1MUSC H005J31679   0.573   8.642   1.541
    1MUSC H005K31680   0.179   9.010   3.160
    1MUSC H005L31681   0.531   8.642   2.157
    1MUSC H005M31682   0.742   9.010   2.544
    1MUSC H005N31683   0.833   8.190   1.541
    1MUSC H005O31684   0.439   8.558   3.160
    1MUSC H005P31685   0.271   8.190   2.157
    1MUSC H005Q31686   0.482   8.558   2.544
    1MUSC H005R31687   0.756   9.548   3.548
    1MUSC H005S31688   0.362   9.916   1.153
    1MUSC H005T31689   0.714   9.548   0.150
    1MUSC H005U31690   0.925   9.916   0.537
    1MUSC H005V31691   1.016   9.095   3.548
    1MUSC H005W31692   0.622   9.463   1.153
    1MUSC H005X31693   0.454   9.095   0.150
    1MUSC H005Y31694   0.665   9.463   0.537
    1MUSC H005Z31695   0.573   9.548   1.541
    1MUSC H005a31696   0.179   9.916   3.160
    1MUSC H005b31697   0.531   9.548   2.157
    1MUSC H005c31698   0.742   9.916   2.544
    1MUSC H005d31699   0.833   9.095   1.541
    1MUSC H005e31700   0.439   9.463   3.160
    1MUSC H005f31701   0.271   9.095   2.157
    1MUSC H005g31702   0.482   9.463   2.544
    1MUSC H005h31703   1.277   0.495   3.548
    1MUSC H005i31704   0.883   0.863   1.153
    1MUSC H005j31705   1.234   0.495   0.150
    1MUSC H005k31706   1.445   0.863   0.537
    1MUSC H005l31707   1.537   0.042   3.548
    1MUSC H005m31708   1.143   0.410   1.153
    1MUSC H005n31709   0.974   0.042   0.150
    1MUSC H005o31710   1.185   0.410   0.537
    1MUSC H005p31711   1.094   0.495   1.541
    1MUSC H005q31712   0.700   0.863   3.160
    1MUSC H005r31713   1.051   0.495   2.157
    1MUSC H005s31714   1.262   0.863   2.544
    1MUSC H005t31715   1.354   0.042   1.541
    1MUSC H005u31716   0.960   0.410   3.160
    1MUSC H005v31717   0.791   0.042   2.157
    1MUSC H005w31718   1.002   0.410   2.544
    1MUSC H005x31719   1.277   1.400   3.548
    1MUSC H005y31720   0.883   1.768   1.153
    1MUSC H005z31721   1.234   1.400   0.150
    1MUSC H006031722   1.445   1.768   0.537
    1MUSC H006131723   1.537   0.948   3.548
    1MUSC H006231724   1.143   1.316   1.153
    1MUSC H006331725   0.974   0.948   0.150
    1MUSC H006431726   1.185   1.316   0.537
    1MUSC H006531727   1.094   1.400   1.541
    1MUSC H006631728   0.700   1.768   3.160
    1MUSC H006731729   1.051   1.400   2.157
    1MUSC H006831730   1.262   1.768   2.544
    1MUSC H006931731   1.354   0.948   1.541
    1MUSC H006A31732   0.960   1.316   3.160
    1MUSC H006B31733   0.791   0.948   2.157
    1MUSC H006C31734   1.002   1.316   2.544
    1MUSC H006D31735   1.277   2.305   3.548
    1MUSC H006E31736   0.883   2.674   1.153
    1MUSC H006F31737   1.234   2.305   0.150
    1MUSC H006G31738   1.445   2.674   0.537
    1MUSC H006H31739   1.537   1.853   3.548
    1MUSC H006I31740   1.143   2.221   1.153
    1MUSC H006J31741   0.974   1.853   0.150
    1MUSC H006K31742   1.185   2.221   0.537
    1MUSC H006L31743   1.094   2.305   1.541
    1MUSC H006M31744   0.700   2.674   3.160
    1MUSC H006N31745   1.051   2.305   2.157
    1MUSC H006O31746   1.262   2.674   2.544
    1MUSC H006P31747   1.354   1.853   1.541
    1MUSC H006Q31748   0.960   2.221   3.160
    1MUSC H006R31749   0.791   1.853   2.157
    1MUSC H006S31750   1.002   2.221   2.544
    1MUSC H006T31751   1.277   3.211   3.548
    1MUSC H006U31752   0.883   3.579   1.153
    1MUSC H006V31753   1.234   3.211   0.150
    1MUSC H006W31754   1.445   3.579   0.537
    1MUSC H006X31755   1.537   2.758   3.548
    1MUSC H006Y31756   1.143   3.126   1.153
    1MUSC H006Z31757   0.974   2.758   0.150
    1MUSC H006a31758   1.185   3.126   0.537
    1MUSC H006b31759   1.094   3.211   1.541
    1MUSC H006c31760   0.700   3.579   3.160
    1MUSC H006d31761   1.051   3.211   2.157
    1MUSC H006e31762   1.262   3.579   2.544
    1MUSC H006f31763   1.354   2.758   1.541
    1MUSC H006g31764   0.960   3.126   3.160
    1MUSC H006h31765   0.791   2.758   2.157
    1MUSC H006i31766   1.002   3.126   2.544
    1MUSC H006j31767   1.277   4.116   3.548
    1MUSC H006k31768   0.883   4.484   1.153
    1MUSC H006l31769   1.234   4.116   0.150
    1MUSC H006m31770   1.445   4.484   0.537
    1MUSC H006n31771   1.537   3.663   3.548
    1MUSC H006o31772   1.143   4.031   1.153
    1MUSC H006p31773   0.974   3.663   0.150
    1MUSC H006q31774   1.185   4.031   0.537
    1MUSC H006r31775   1.094   4.116   1.541
    1MUSC H006s31776   0.700   4.484   3.160
    1MUSC H006t31777   1.051   4.116   2.157
    1MUSC H006u31778   1.262   4.484   2.544
    1MUSC H006v31779   1.354   3.663   1.541
    1MUSC H006w31780   0.960   4.031   3.160
    1MUSC H006x31781   0.791   3.663   2.157
    1MUSC H006y31782   1.002   4.031   2.544
    1MUSC H006z31783   1.277   5.021   3.548
    1MUSC H007031784   0.883   5.389   1.153
    1MUSC H007131785   1.234   5.021   0.150
    1MUSC H007231786   1.445   5.389   0.537
    1MUSC H007331787   1.537   4.569   3.548
    1MUSC H007431788   1.143   4.937   1.153
    1MUSC H007531789   0.974   4.569   0.150
    1MUSC H007631790   1.185   4.937   0.537
    1MUSC H007731791   1.094   5.021   1.541
    1MUSC H007831792   0.700   5.389   3.160
    1MUSC H007931793   1.051   5.021   2.157
    1MUSC H007A31794   1.262   5.389   2.544
    1MUSC H007B31795   1.354   4.569   1.541
    1MUSC H007C31796   0.960   4.937   3.160
    1MUSC H007D31797   0.791   4.569   2.157
    1MUSC H007E31798   1.002   4.937   2.544
    1MUSC H007F31799   1.277   5.927   3.548
    1MUSC H007G31800   0.883   6.295   1.153
    1MUSC H007H31801   1.234   5.927   0.150
    1MUSC H007I31802   1.445   6.295   0.537
    1MUSC H007J31803   1.537   5.474   3.548
    1MUSC H007K31804   1.143   5.842   1.153
    1MUSC H007L31805   0.974   5.474   0.150
    1MUSC H007M31806   1.185   5.842   0.537
    1MUSC H007N31807   1.094   5.927   1.541
    1MUSC H007O31808   0.700   6.295   3.160
    1MUSC H007P31809   1.051   5.927   2.157
    1MUSC H007Q31810   1.262   6.295   2.544
    1MUSC H007R31811   1.354   5.474   1.541
    1MUSC H007S31812   0.960   5.842   3.160
    1MUSC H007T31813   0.791   5.474   2.157
    1MUSC H007U31814   1.002   5.842   2.544
    1MUSC H007V31815   1.277   6.832   3.548
    1MUSC H007W31816   0.883   7.200   1.153
    1MUSC H007X31817   1.234   6.832   0.150
    1MUSC H007Y31818   1.445   7.200   0.537
    1MUSC H007Z31819   1.537   6.379   3.548
    1MUSC H007a31820   1.143   6.747   1.153
    1MUSC H007b31821   0.974   6.379   0.150
    1MUSC H007c31822   1.185   6.747   0.537
    1MUSC H007d31823   1.094   6.832   1.541
    1MUSC H007e31824   0.700   7.200   3.160
    1MUSC H007f31825   1.051   6.832   2.157
    1MUSC H007g31826   1.262   7.200   2.544
    1MUSC H007h31827   1.354   6.379   1.541
    1MUSC H007i31828   0.960   6.747   3.160
    1MUSC H007j31829   0.791   6.379   2.157
    1MUSC H007k31830   1.002   6.747   2.544
    1MUSC H007l31831   1.277   7.737   3.548
    1MUSC H007m31832   0.883   8.105   1.153
    1MUSC H007n31833   1.234   7.737   0.150
    1MUSC H007o31834   1.445   8.105   0.537
    1MUSC H007p31835   1.537   7.284   3.548
    1MUSC H007q31836   1.143   7.653   1.153
    1MUSC H007r31837   0.974   7.284   0.150
    1MUSC H007s31838   1.185   7.653   0.537
    1MUSC H007t31839   1.094   7.737   1.541
    1MUSC H007u31840   0.700   8.105   3.160
    1MUSC H007v31841   1.051   7.737   2.157
    1MUSC H007w31842   1.262   8.105   2.544
    1MUSC H007x31843   1.354   7.284   1.541
    1MUSC H007y31844   0.960   7.653   3.160
    1MUSC H007z31845   0.791   7.284   2.157
    1MUSC H008031846   1.002   7.653   2.544
    1MUSC H008131847   1.277   8.642   3.548
    1MUSC H008231848   0.883   9.010   1.153
    1MUSC H008331849   1.234   8.642   0.150
    1MUSC H008431850   1.445   9.010   0.537
    1MUSC H008531851   1.537   8.190   3.548
    1MUSC H008631852   1.143   8.558   1.153
    1MUSC H008731853   0.974   8.190   0.150
    1MUSC H008831854   1.185   8.558   0.537
    1MUSC H008931855   1.094   8.642   1.541
    1MUSC H008A31856   0.700   9.010   3.160
    1MUSC H008B31857   1.051   8.642   2.157
    1MUSC H008C31858   1.262   9.010   2.544
    1MUSC H008D31859   1.354   8.190   1.541
    1MUSC H008E31860   0.960   8.558   3.160
    1MUSC H008F31861   0.791   8.190   2.157
    1MUSC H008G31862   1.002   8.558   2.544
    1MUSC H008H31863   1.277   9.548   3.548
    1MUSC H008I31864   0.883   9.916   1.153
    1MUSC H008J31865   1.234   9.548   0.150
    1MUSC H008K31866   1.445   9.916   0.537
    1MUSC H008L31867   1.537   9.095   3.548
    1MUSC H008M31868   1.143   9.463   1.153
    1MUSC H008N31869   0.974   9.095   0.150
    1MUSC H008O31870   1.185   9.463   0.537
    1MUSC H008P31871   1.094   9.548   1.541
    1MUSC H008Q31872   0.700   9.916   3.160
    1MUSC H008R31873   1.051   9.548   2.157
    1MUSC H008S31874   1.262   9.916   2.544
    1MUSC H008T31875   1.354   9.095   1.541
    1MUSC H008U31876   0.960   9.463   3.160
    1MUSC H008V31877   0.791   9.095   2.157
    1MUSC H008W31878   1.002   9.463   2.544
    1MUSC H008X31879   1.797   0.495   3.548
    1MUSC H008Y31880   1.403   0.863   1.153
    1MUSC H008Z31881   1.755   0.495   0.150
    1MUSC H008a31882   1.966   0.863   0.537
    1MUSC H008b31883   2.057   0.042   3.548
    1MUSC H008c31884   1.663   0.410   1.153
    1MUSC H008d31885   1.495   0.042   0.150
    1MUSC H008e31886   1.706   0.410   0.537
    1MUSC H008f31887   1.614   0.495   1.541
    1MUSC H008g31888   1.220   0.863   3.160
    1MUSC H008h31889   1.572   0.495   2.157
    1MUSC H008i31890   1.783   0.863   2.544
    1MUSC H008j31891   1.874   0.042   1.541
    1MUSC H008k31892   1.480   0.410   3.160
    1MUSC H008l31893   1.312   0.042   2.157
    1MUSC H008m31894   1.523   0.410   2.544
    1MUSC H008n31895   1.797   1.400   3.548
    1MUSC H008o31896   1.403   1.768   1.153
    1MUSC H008p31897   1.755   1.400   0.150
    1MUSC H008q31898   1.966   1.768   0.537
    1MUSC H008r31899   2.057   0.948   3.548
    1MUSC H008s31900   1.663   1.316   1.153
    1MUSC H008t31901   1.495   0.948   0.150
    1MUSC H008u31902   1.706   1.316   0.537
    1MUSC H008v31903   1.614   1.400   1.541
    1MUSC H008w31904   1.220   1.768   3.160
    1MUSC H008x31905   1.572   1.400   2.157
    1MUSC H008y31906   1.783   1.768   2.544
    1MUSC H008z31907   1.874   0.948   1.541
    1MUSC H009031908   1.480   1.316   3.160
    1MUSC H009131909   1.312   0.948   2.157
    1MUSC H009231910   1.523   1.316   2.544
    1MUSC H009331911   1.797   2.305   3.548
    1MUSC H009431912   1.403   2.674   1.153
    1MUSC H009531913   1.755   2.305   0.150
    1MUSC H009631914   1.966   2.674   0.537
    1MUSC H009731915   2.057   1.853   3.548
    1MUSC H009831916   1.663   2.221   1.153
    1MUSC H009931917   1.495   1.853   0.150
    1MUSC H009A31918   1.706   2.221   0.537
    1MUSC H009B31919   1.614   2.305   1.541
    1MUSC H009C31920   1.220   2.674   3.160
    1MUSC H009D31921   1.572   2.305   2.157
    1MUSC H009E31922   1.783   2.674   2.544
    1MUSC H009F31923   1.874   1.853   1.541
    1MUSC H009G31924   1.480   2.221   3.160
    1MUSC H009H31925   1.312   1.853   2.157
    1MUSC H009I31926   1.523   2.221   2.544
    1MUSC H009J31927   1.797   3.211   3.548
    1MUSC H009K31928   1.403   3.579   1.153
    1MUSC H009L31929   1.755   3.211   0.150
    1MUSC H009M31930   1.966   3.579   0.537
    1MUSC H009N31931   2.057   2.758   3.548
    1MUSC H009O31932   1.663   3.126   1.153
    1MUSC H009P31933   1.495   2.758   0.150
    1MUSC H009Q31934   1.706   3.126   0.537
    1MUSC H009R31935   1.614   3.211   1.541
    1MUSC H009S31936   1.220   3.579   3.160
    1MUSC H009T31937   1.572   3.211   2.157
    1MUSC H009U31938   1.783   3.579   2.544
    1MUSC H009V31939   1.874   2.758   1.541
    1MUSC H009W31940   1.480   3.126   3.160
    1MUSC H009X31941   1.312   2.758   2.157
    1MUSC H009Y31942   1.523   3.126   2.544
    1MUSC H009Z31943   1.797   4.116   3.548
    1MUSC H009a31944   1.403   4.484   1.153
    1MUSC H009b31945   1.755   4.116   0.150
    1MUSC H009c31946   1.966   4.484   0.537
    1MUSC H009d31947   2.057   3.663   3.548
    1MUSC H009e31948   1.663   4.031   1.153
    1MUSC H009f31949   1.495   3.663   0.150
    1MUSC H009g31950   1.706   4.031   0.537
    1MUSC H009h31951   1.614   4.116   1.541
    1MUSC H009i31952   1.220   4.484   3.160
    1MUSC H009j31953   1.572   4.116   2.157
    1MUSC H009k31954   1.783   4.484   2.544
    1MUSC H009l31955   1.874   3.663   1.541
    1MUSC H009m31956   1.480   4.031   3.160
    1MUSC H009n31957   1.312   3.663   2.157
    1MUSC H009o31958   1.523   4.031   2.544
    1MUSC H009p31959   1.797   5.021   3.548
    1MUSC H009q31960   1.403   5.389   1.153
    1MUSC H009r31961   1.755   5.021   0.150
    1MUSC H009s31962   1.966   5.389   0.537
    1MUSC H009t31963   2.057   4.569   3.548
    1MUSC H009u31964   1.663   4.937   1.153
    1MUSC H009v31965   1.495   4.569   0.150
    1MUSC H009w31966   1.706   4.937   0.537
    1MUSC H009x31967   1.614   5.021   1.541
    1MUSC H009y31968   1.220   5.389   3.160
    1MUSC H009z31969   1.572   5.021   2.157
    1MUSC H00A031970   1.783   5.389   2.544
    1MUSC H00A131971   1.874   4.569   1.541
    1MUSC H00A231972   1.480   4.937   3.160
    1MUSC H00A331973   1.312   4.569   2.157
    1MUSC H00A431974   1.523   4.937   2.544
    1MUSC H00A531975   1.797   5.927   3.548
    1MUSC H00A631976   1.403   6.295   1.153
    1MUSC H00A731977   1.755   5.927   0.150
    1MUSC H00A831978   1.966   6.295   0.537
    1MUSC H00A931979   2.057   5.474   3.548
    1MUSC H00AA31980   1.663   5.842   1.153
    1MUSC H00AB31981   1.495   5.474   0.150
    1MUSC H00AC31982   1.706   5.842   0.537
    1MUSC H00AD31983   1.614   5.927   1.541
    1MUSC H00AE31984   1.220   6.295   3.160
    1MUSC H00AF31985   1.572   5.927   2.157
    1MUSC H00AG31986   1.783   6.295   2.544
    1MUSC H00AH31987   1.874   5.474   1.541
    1MUSC H00AI31988   1.480   5.842   3.160
    1MUSC H00AJ31989   1.312   5.474   2.157
    1MUSC H00AK31990   1.523   5.842   2.544
    1MUSC H00AL31991   1.797   6.832   3.548
    1MUSC H00AM31992   1.403   7.200   1.153
    1MUSC H00AN31993   1.755   6.832   0.150
    1MUSC H00AO31994   1.966   7.200   0.537
    1MUSC H00AP31995   2.057   6.379   3.548
    1MUSC H00AQ31996   1.663   6.747   1.153
    1MUSC H00AR31997   1.495   6.379   0.150
    1MUSC H00AS31998   1.706   6.747   0.537
    1MUSC H00AT31999   1.614   6.832   1.541
    1MUSC H00AU32000   1.220   7.200   3.160
    1MUSC H00AV32001   1.572   6.832   2.157
    1MUSC H00AW32002   1.783   7.200   2.544
    1MUSC H00AX32003   1.874   6.379   1.541
    1MUSC H00AY32004   1.480   6.747   3.160
    1MUSC H00AZ32005   1.312   6.379   2.157
    1MUSC H00Aa32006   1.523   6.747   2.544
    1MUSC H00Ab32007   1.797   7.737   3.548
    1MUSC H00Ac32008   1.403   8.105   1.153
    1MUSC H00Ad32009   1.755   7.737   0.150
    1MUSC H00Ae32010   1.966   8.105   0.537
    1MUSC H00Af32011   2.057   7.284   3.548
    1MUSC H00Ag32012   1.663   7.653   1.153
    1MUSC H00Ah32013   1.495   7.284   0.150
    1MUSC H00Ai32014   1.706   7.653   0.537
    1MUSC H00Aj32015   1.614   7.737   1.541
    1MUSC H00Ak32016   1.220   8.105   3.160
    1MUSC H00Al32017   1.572   7.737   2.157
    1MUSC H00Am32018   1.783   8.105   2.544
    1MUSC H00An32019   1.874   7.284   1.541
    1MUSC H00Ao32020   1.480   7.653   3.160
    1MUSC H00Ap32021   1.312   7.284   2.157
    1MUSC H00Aq32022   1.523   7.653   2.544
    1MUSC H00Ar32023   1.797   8.642   3.548
    1MUSC H00As32024   1.403   9.010   1.153
    1MUSC H00At32025   1.755   8.642   0.150
    1MUSC H00Au32026   1.966   9.010   0.537
    1MUSC H00Av32027   2.057   8.190   3.548
    1MUSC H00Aw32028   1.663   8.558   1.153
    1MUSC H00Ax32029   1.495   8.190   0.150
    1MUSC H00Ay32030   1.706   8.558   0.537
    1MUSC H00Az32031   1.614   8.642   1.541
    1MUSC H00B032032   1.220   9.010   3.160
    1MUSC H00B132033   1.572   8.642   2.157
    1MUSC H00B232034   1.783   9.010   2.544
    1MUSC H00B332035   1.874   8.190   1.541
    1MUSC H00B432036   1.480   8.558   3.160
    1MUSC H00B532037   1.312   8.190   2.157
    1MUSC H00B632038   1.523   8.558   2.544
    1MUSC H00B732039   1.797   9.548   3.548
    1MUSC H00B832040   1.403   9.916   1.153
    1MUSC H00B932041   1.755   9.548   0.150
    1MUSC H00BA32042   1.966   9.916   0.537
    1MUSC H00BB32043   2.057   9.095   3.548
    1MUSC H00BC32044   1.663   9.463   1.153
    1MUSC H00BD32045   1.495   9.095   0.150
    1MUSC H00BE32046   1.706   9.463   0.537
    1MUSC H00BF32047   1.614   9.548   1.541
    1MUSC H00BG32048   1.220   9.916   3.160
    1MUSC H00BH32049   1.572   9.548   2.157
    1MUSC H00BI32050   1.783   9.916   2.544
    1MUSC H00BJ32051   1.874   9.095   1.541
    1MUSC H00BK32052   1.480   9.463   3.160
    1MUSC H00BL32053   1.312   9.095   2.157
    1MUSC H00BM32054   1.523   9.463   2.544
    1MUSC H00BN32055   2.318   0.495   3.548
    1MUSC H00BO32056   1.924   0.863   1.153
    1MUSC H00BP32057   2.275   0.495   0.150
    1MUSC H00BQ32058   2.486   0.863   0.537
    1MUSC H00BR32059   2.578   0.042   3.548
    1MUSC H00BS32060   2.184   0.410   1.153
    1MUSC H00BT32061   2.015   0.042   0.150
    1MUSC H00BU32062   2.226   0.410   0.537
    1MUSC H00BV32063   2.135   0.495   1.541
    1MUSC H00BW32064   1.741   0.863   3.160
    1MUSC H00BX32065   2.092   0.495   2.157
    1MUSC H00BY32066   2.303   0.863   2.544
    1MUSC H00BZ32067   2.395   0.042   1.541
    1MUSC H00Ba32068   2.001   0.410   3.160
    1MUSC H00Bb32069   1.832   0.042   2.157
    1MUSC H00Bc32070   2.043   0.410   2.544
    1MUSC H00Bd32071   2.318   1.400   3.548
    1MUSC H00Be32072   1.924   1.768   1.153
    1MUSC H00Bf32073   2.275   1.400   0.150
    1MUSC H00Bg32074   2.486   1.768   0.537
    1MUSC H00Bh32075   2.578   0.948   3.548
    1MUSC H00Bi32076   2.184   1.316   1.153
    1MUSC H00Bj32077   2.015   0.948   0.150
    1MUSC H00Bk32078   2.226   1.316   0.537
    1MUSC H00Bl32079   2.135   1.400   1.541
    1MUSC H00Bm32080   1.741   1.768   3.160
    1MUSC H00Bn32081   2.092   1.400   2.157
    1MUSC H00Bo32082   2.303   1.768   2.544
    1MUSC H00Bp32083   2.395   0.948   1.541
    1MUSC H00Bq32084   2.001   1.316   3.160
    1MUSC H00Br32085   1.832   0.948   2.157
    1MUSC H00Bs32086   2.043   1.316   2.544
    1MUSC H00Bt32087   2.318   2.305   3.548
    1MUSC H00Bu32088   1.924   2.674   1.153
    1MUSC H00Bv32089   2.275   2.305   0.150
    1MUSC H00Bw32090   2.486   2.674   0.537
    1MUSC H00Bx32091   2.578   1.853   3.548
    1MUSC H00By32092   2.184   2.221   1.153
    1MUSC H00Bz32093   2.015   1.853   0.150
    1MUSC H00C032094   2.226   2.221   0.537
    1MUSC H00C132095   2.135   2.305   1.541
    1MUSC H00C232096   1.741   2.674   3.160
    1MUSC H00C332097   2.092   2.305   2.157
    1MUSC H00C432098   2.303   2.674   2.544
    1MUSC H00C532099   2.395   1.853   1.541
    1MUSC H00C632100   2.001   2.221   3.160
    1MUSC H00C732101   1.832   1.853   2.157
    1MUSC H00C832102   2.043   2.221   2.544
    1MUSC H00C932103   2.318   3.211   3.548
    1MUSC H00CA32104   1.924   3.579   1.153
    1MUSC H00CB32105   2.275   3.211   0.150
    1MUSC H00CC32106   2.486   3.579   0.537
    1MUSC H00CD32107   2.578   2.758   3.548
    1MUSC H00CE32108   2.184   3.126   1.153
    1MUSC H00CF32109   2.015   2.758   0.150
    1MUSC H00CG32110   2.226   3.126   0.537
    1MUSC H00CH32111   2.135   3.211   1.541
    1MUSC H00CI32112   1.741   3.579   3.160
    1MUSC H00CJ32113   2.092   3.211   2.157
    1MUSC H00CK32114   2.303   3.579   2.544
    1MUSC H00CL32115   2.395   2.758   1.541
    1MUSC H00CM32116   2.001   3.126   3.160
    1MUSC H00CN32117   1.832   2.758   2.157
    1MUSC H00CO32118   2.043   3.126   2.544
    1MUSC H00CP32119   2.318   4.116   3.548
    1MUSC H00CQ32120   1.924   4.484   1.153
    1MUSC H00CR32121   2.275   4.116   0.150
    1MUSC H00CS32122   2.486   4.484   0.537
    1MUSC H00CT32123   2.578   3.663   3.548
    1MUSC H00CU32124   2.184   4.031   1.153
    1MUSC H00CV32125   2.015   3.663   0.150
    1MUSC H00CW32126   2.226   4.031   0.537
    1MUSC H00CX32127   2.135   4.116   1.541
    1MUSC H00CY32128   1.741   4.484   3.160
    1MUSC H00CZ32129   2.092   4.116   2.157
    1MUSC H00Ca32130   2.303   4.484   2.544
    1MUSC H00Cb32131   2.395   3.663   1.541
    1MUSC H00Cc32132   2.001   4.031   3.160
    1MUSC H00Cd32133   1.832   3.663   2.157
    1MUSC H00Ce32134   2.043   4.031   2.544
    1MUSC H00Cf32135   2.318   5.021   3.548
    1MUSC H00Cg32136   1.924   5.389   1.153
    1MUSC H00Ch32137   2.275   5.021   0.150
    1MUSC H00Ci32138   2.486   5.389   0.537
    1MUSC H00Cj32139   2.578   4.569   3.548
    1MUSC H00Ck32140   2.184   4.937   1.153
    1MUSC H00Cl32141   2.015   4.569   0.150
    1MUSC H00Cm32142   2.226   4.937   0.537
    1MUSC H00Cn32143   2.135   5.021   1.541
    1MUSC H00Co32144   1.741   5.389   3.160
    1MUSC H00Cp32145   2.092   5.021   2.157
    1MUSC H00Cq32146   2.303   5.389   2.544
    1MUSC H00Cr32147   2.395   4.569   1.541
    1MUSC H00Cs32148   2.001   4.937   3.160
    1MUSC H00Ct32149   1.832   4.569   2.157
    1MUSC H00Cu32150   2.043   4.937   2.544
    1MUSC H00Cv32151   2.318   5.927   3.548
    1MUSC H00Cw32152   1.924   6.295   1.153
    1MUSC H00Cx32153   2.275   5.927   0.150
    1MUSC H00Cy32154   2.486   6.295   0.537
    1MUSC H00Cz32155   2.578   5.474   3.548
    1MUSC H00D032156   2.184   5.842   1.153
    1MUSC H00D132157   2.015   5.474   0.150
    1MUSC H00D232158   2.226   5.842   0.537
    1MUSC H00D332159   2.135   5.927   1.541
    1MUSC H00D432160   1.741   6.295   3.160
    1MUSC H00D532161   2.092   5.927   2.157
    1MUSC H00D632162   2.303   6.295   2.544
    1MUSC H00D732163   2.395   5.474   1.541
    1MUSC H00D832164   2.001   5.842   3.160
    1MUSC H00D932165   1.832   5.474   2.157
    1MUSC H00DA32166   2.043   5.842   2.544
    1MUSC H00DB32167   2.318   6.832   3.548
    1MUSC H00DC32168   1.924   7.200   1.153
    1MUSC H00DD32169   2.275   6.832   0.150
    1MUSC H00DE32170   2.486   7.200   0.537
    1MUSC H00DF32171   2.578   6.379   3.548
    1MUSC H00DG32172   2.184   6.747   1.153
    1MUSC H00DH32173   2.015   6.379   0.150
    1MUSC H00DI32174   2.226   6.747   0.537
    1MUSC H00DJ32175   2.135   6.832   1.541
    1MUSC H00DK32176   1.741   7.200   3.160
    1MUSC H00DL32177   2.092   6.832   2.157
    1MUSC H00DM32178   2.303   7.200   2.544
    1MUSC H00DN32179   2.395   6.379   1.541
    1MUSC H00DO32180   2.001   6.747   3.160
    1MUSC H00DP32181   1.832   6.379   2.157
    1MUSC H00DQ32182   2.043   6.747   2.544
    1MUSC H00DR32183   2.318   7.737   3.548
    1MUSC H00DS32184   1.924   8.105   1.153
    1MUSC H00DT32185   2.275   7.737   0.150
    1MUSC H00DU32186   2.486   8.105   0.537
    1MUSC H00DV32187   2.578   7.284   3.548
    1MUSC H00DW32188   2.184   7.653   1.153
    1MUSC H00DX32189   2.015   7.284   0.150
    1MUSC H00DY32190   2.226   7.653   0.537
    1MUSC H00DZ32191   2.135   7.737   1.541
    1MUSC H00Da32192   1.741   8.105   3.160
    1MUSC H00Db32193   2.092   7.737   2.157
    1MUSC H00Dc32194   2.303   8.105   2.544
    1MUSC H00Dd32195   2.395   7.284   1.541
    1MUSC H00De32196   2.001   7.653   3.160
    1MUSC H00Df32197   1.832   7.284   2.157
    1MUSC H00Dg32198   2.043   7.653   2.544
    1MUSC H00Dh32199   2.318   8.642   3.548
    1MUSC H00Di32200   1.924   9.010   1.153
    1MUSC H00Dj32201   2.275   8.642   0.150
    1MUSC H00Dk32202   2.486   9.010   0.537
    1MUSC H00Dl32203   2.578   8.190   3.548
    1MUSC H00Dm32204   2.184   8.558   1.153
    1MUSC H00Dn32205   2.015   8.190   0.150
    1MUSC H00Do32206   2.226   8.558   0.537
    1MUSC H00Dp32207   2.135   8.642   1.541
    1MUSC H00Dq32208   1.741   9.010   3.160
    1MUSC H00Dr32209   2.092   8.642   2.157
    1MUSC H00Ds32210   2.303   9.010   2.544
    1MUSC H00Dt32211   2.395   8.190   1.541
    1MUSC H00Du32212   2.001   8.558   3.160
    1MUSC H00Dv32213   1.832   8.190   2.157
    1MUSC H00Dw32214   2.043   8.558   2.544
    1MUSC H00Dx32215   2.318   9.548   3.548
    1MUSC H00Dy32216   1.924   9.916   1.153
    1MUSC H00Dz32217   2.275   9.548   0.150
    1MUSC H00E032218   2.486   9.916   0.537
    1MUSC H00E132219   2.578   9.095   3.548
    1MUSC H00E232220   2.184   9.463   1.153
    1MUSC H00E332221   2.015   9.095   0.150
    1MUSC H00E432222   2.226   9.463   0.537
    1MUSC H00E532223   2.135   9.548   1.541
    1MUSC H00E632224   1.741   9.916   3.160
    1MUSC H00E732225   2.092   9.548   2.157
    1MUSC H00E832226   2.303   9.916   2.544
    1MUSC H00E932227   2.395   9.095   1.541
    1MUSC H00EA32228   2.001   9.463   3.160
    1MUSC H00EB32229   1.832   9.095   2.157
    1MUSC H00EC32230   2.043   9.463   2.544
    1MUSC H00ED32231   2.838   0.495   3.548
    1MUSC H00EE32232   2.444   0.863   1.153
    1MUSC H00EF32233   2.796   0.495   0.150
    1MUSC H00EG32234   3.007   0.863   0.537
    1MUSC H00EH32235   3.098   0.042   3.548
    1MUSC H00EI32236   2.704   0.410   1.153
    1MUSC H00EJ32237   2.535   0.042   0.150
    1MUSC H00EK32238   2.747   0.410   0.537
    1MUSC H00EL32239   2.655   0.495   1.541
    1MUSC H00EM32240   2.261   0.863   3.160
    1MUSC H00EN32241   2.613   0.495   2.157
    1MUSC H00EO32242   2.824   0.863   2.544
    1MUSC H00EP32243   2.915   0.042   1.541
    1MUSC H00EQ32244   2.521   0.410   3.160
    1MUSC H00ER32245   2.352   0.042   2.157
    1MUSC H00ES32246   2.564   0.410   2.544
    1MUSC H00ET32247   2.838   1.400   3.548
    1MUSC H00EU32248   2.444   1.768   1.153
    1MUSC H00EV32249   2.796   1.400   0.150
    1MUSC H00EW32250   3.007   1.768   0.537
    1MUSC H00EX32251   3.098   0.948   3.548
    1MUSC H00EY32252   2.704   1.316   1.153
    1MUSC H00EZ32253   2.535   0.948   0.150
    1MUSC H00Ea32254   2.747   1.316   0.537
    1MUSC H00Eb32255   2.655   1.400   1.541
    1MUSC H00Ec32256   2.261   1.768   3.160
    1MUSC H00Ed32257   2.613   1.400   2.157
    1MUSC H00Ee32258   2.824   1.768   2.544
    1MUSC H00Ef32259   2.915   0.948   1.541
    1MUSC H00Eg32260   2.521   1.316   3.160
    1MUSC H00Eh32261   2.352   0.948   2.157
    1MUSC H00Ei32262   2.564   1.316   2.544
    1MUSC H00Ej32263   2.838   2.305   3.548
    1MUSC H00Ek32264   2.444   2.674   1.153
    1MUSC H00El32265   2.796   2.305   0.150
    1MUSC H00Em32266   3.007   2.674   0.537
    1MUSC H00En32267   3.098   1.853   3.548
    1MUSC H00Eo32268   2.704   2.221   1.153
    1MUSC H00Ep32269   2.535   1.853   0.150
    1MUSC H00Eq32270   2.747   2.221   0.537
    1MUSC H00Er32271   2.655   2.305   1.541
    1MUSC H00Es32272   2.261   2.674   3.160
    1MUSC H00Et32273   2.613   2.305   2.157
    1MUSC H00Eu32274   2.824   2.674   2.544
    1MUSC H00Ev32275   2.915   1.853   1.541
    1MUSC H00Ew32276   2.521   2.221   3.160
    1MUSC H00Ex32277   2.352   1.853   2.157
    1MUSC H00Ey32278   2.564   2.221   2.544
    1MUSC H00Ez32279   2.838   3.211   3.548
    1MUSC H00F032280   2.444   3.579   1.153
    1MUSC H00F132281   2.796   3.211   0.150
    1MUSC H00F232282   3.007   3.579   0.537
    1MUSC H00F332283   3.098   2.758   3.548
    1MUSC H00F432284   2.704   3.126   1.153
    1MUSC H00F532285   2.535   2.758   0.150
    1MUSC H00F632286   2.747   3.126   0.537
    1MUSC H00F732287   2.655   3.211   1.541
    1MUSC H00F832288   2.261   3.579   3.160
    1MUSC H00F932289   2.613   3.211   2.157
    1MUSC H00FA32290   2.824   3.579   2.544
    1MUSC H00FB32291   2.915   2.758   1.541
    1MUSC H00FC32292   2.521   3.126   3.160
    1MUSC H00FD32293   2.352   2.758   2.157
    1MUSC H00FE32294   2.564   3.126   2.544
    1MUSC H00FF32295   2.838   4.116   3.548
    1MUSC H00FG32296   2.444   4.484   1.153
    1MUSC H00FH32297   2.796   4.116   0.150
    1MUSC H00FI32298   3.007   4.484   0.537
    1MUSC H00FJ32299   3.098   3.663   3.548
    1MUSC H00FK32300   2.704   4.031   1.153
    1MUSC H00FL32301   2.535   3.663   0.150
    1MUSC H00FM32302   2.747   4.031   0.537
    1MUSC H00FN32303   2.655   4.116   1.541
    1MUSC H00FO32304   2.261   4.484   3.160
    1MUSC H00FP32305   2.613   4.116   2.157
    1MUSC H00FQ32306   2.824   4.484   2.544
    1MUSC H00FR32307   2.915   3.663   1.541
    1MUSC H00FS32308   2.521   4.031   3.160
    1MUSC H00FT32309   2.352   3.663   2.157
    1MUSC H00FU32310   2.564   4.031   2.544
    1MUSC H00FV32311   2.838   5.021   3.548
    1MUSC H00FW32312   2.444   5.389   1.153
    1MUSC H00FX32313   2.796   5.021   0.150
    1MUSC H00FY32314   3.007   5.389   0.537
    1MUSC H00FZ32315   3.098   4.569   3.548
    1MUSC H00Fa32316   2.704   4.937   1.153
    1MUSC H00Fb32317   2.535   4.569   0.150
    1MUSC H00Fc32318   2.747   4.937   0.537
    1MUSC H00Fd32319   2.655   5.021   1.541
    1MUSC H00Fe32320   2.261   5.389   3.160
    1MUSC H00Ff32321   2.613   5.021   2.157
    1MUSC H00Fg32322   2.824   5.389   2.544
    1MUSC H00Fh32323   2.915   4.569   1.541
    1MUSC H00Fi32324   2.521   4.937   3.160
    1MUSC H00Fj32325   2.352   4.569   2.157
    1MUSC H00Fk32326   2.564   4.937   2.544
    1MUSC H00Fl32327   2.838   5.927   3.548
    1MUSC H00Fm32328   2.444   6.295   1.153
    1MUSC H00Fn32329   2.796   5.927   0.150
    1MUSC H00Fo32330   3.007   6.295   0.537
    1MUSC H00Fp32331   3.098   5.474   3.548
    1MUSC H00Fq32332   2.704   5.842   1.153
    1MUSC H00Fr32333   2.535   5.474   0.150
    1MUSC H00Fs32334   2.747   5.842   0.537
    1MUSC H00Ft32335   2.655   5.927   1.541
    1MUSC H00Fu32336   2.261   6.295   3.160
    1MUSC H00Fv32337   2.613   5.927   2.157
    1MUSC H00Fw32338   2.824   6.295   2.544
    1MUSC H00Fx32339   2.915   5.474   1.541
    1MUSC H00Fy32340   2.521   5.842   3.160
    1MUSC H00Fz32341   2.352   5.474   2.157
    1MUSC H00G032342   2.564   5.842   2.544
    1MUSC H00G132343   2.838   6.832   3.548
    1MUSC H00G232344   2.444   7.200   1.153
    1MUSC H00G332345   2.796   6.832   0.150
    1MUSC H00G432346   3.007   7.200   0.537
    1MUSC H00G532347   3.098   6.379   3.548
    1MUSC H00G632348   2.704   6.747   1.153
    1MUSC H00G732349   2.535   6.379   0.150
    1MUSC H00G832350   2.747   6.747   0.537
    1MUSC H00G932351   2.655   6.832   1.541
    1MUSC H00GA32352   2.261   7.200   3.160
    1MUSC H00GB32353   2.613   6.832   2.157
    1MUSC H00GC32354   2.824   7.200   2.544
    1MUSC H00GD32355   2.915   6.379   1.541
    1MUSC H00GE32356   2.521   6.747   3.160
    1MUSC H00GF32357   2.352   6.379   2.157
    1MUSC H00GG32358   2.564   6.747   2.544
    1MUSC H00GH32359   2.838   7.737   3.548
    1MUSC H00GI32360   2.444   8.105   1.153
    1MUSC H00GJ32361   2.796   7.737   0.150
    1MUSC H00GK32362   3.007   8.105   0.537
    1MUSC H00GL32363   3.098   7.284   3.548
    1MUSC H00GM32364   2.704   7.653   1.153
    1MUSC H00GN32365   2.535   7.284   0.150
    1MUSC H00GO32366   2.747   7.653   0.537
    1MUSC H00GP32367   2.655   7.737   1.541
    1MUSC H00GQ32368   2.261   8.105   3.160
    1MUSC H00GR32369   2.613   7.737   2.157
    1MUSC H00GS32370   2.824   8.105   2.544
    1MUSC H00GT32371   2.915   7.284   1.541
    1MUSC H00GU32372   2.521   7.653   3.160
    1MUSC H00GV32373   2.352   7.284   2.157
    1MUSC H00GW32374   2.564   7.653   2.544
    1MUSC H00GX32375   2.838   8.642   3.548
    1MUSC H00GY32376   2.444   9.010   1.153
    1MUSC H00GZ32377   2.796   8.642   0.150
    1MUSC H00Ga32378   3.007   9.010   0.537
    1MUSC H00Gb32379   3.098   8.190   3.548
    1MUSC H00Gc32380   2.704   8.558   1.153
    1MUSC H00Gd32381   2.535   8.190   0.150
    1MUSC H00Ge32382   2.747   8.558   0.537
    1MUSC H00Gf32383   2.655   8.642   1.541
    1MUSC H00Gg32384   2.261   9.010   3.160
    1MUSC H00Gh32385   2.613   8.642   2.157
    1MUSC H00Gi32386   2.824   9.010   2.544
    1MUSC H00Gj32387   2.915   8.190   1.541
    1MUSC H00Gk32388   2.521   8.558   3.160
    1MUSC H00Gl32389   2.352   8.190   2.157
    1MUSC H00Gm32390   2.564   8.558   2.544
    1MUSC H00Gn32391   2.838   9.548   3.548
    1MUSC H00Go32392   2.444   9.916   1.153
    1MUSC H00Gp32393   2.796   9.548   0.150
    1MUSC H00Gq32394   3.007   9.916   0.537
    1MUSC H00Gr32395   3.098   9.095   3.548
    1MUSC H00Gs32396   2.704   9.463   1.153
    1MUSC H00Gt32397   2.535   9.095   0.150
    1MUSC H00Gu32398   2.747   9.463   0.537
    1MUSC H00Gv32399   2.655   9.548   1.541
    1MUSC H00Gw32400   2.261   9.916   3.160
    1MUSC H00Gx32401   2.613   9.548   2.157
    1MUSC H00Gy32402   2.824   9.916   2.544
    1MUSC H00Gz32403   2.915   9.095   1.541
    1MUSC H00H032404   2.521   9.463   3.160
    1MUSC H00H132405   2.352   9.095   2.157
    1MUSC H00H232406   2.564   9.463   2.544
    1MUSC H00H332407   3.359   0.495   3.548
    1MUSC H00H432408   2.964   0.863   1.153
    1MUSC H00H532409   3.316   0.495   0.150
    1MUSC H00H632410   3.527   0.863   0.537
    1MUSC H00H732411   3.619   0.042   3.548
    1MUSC H00H832412   3.225   0.410   1.153
    1MUSC H00H932413   3.056   0.042   0.150
    1MUSC H00HA32414   3.267   0.410   0.537
    1MUSC H00HB32415   3.176   0.495   1.541
    1MUSC H00HC32416   2.781   0.863   3.160
    1MUSC H00HD32417   3.133   0.495   2.157
    1MUSC H00HE32418   3.344   0.863   2.544
    1MUSC H00HF32419   3.436   0.042   1.541
    1MUSC H00HG32420   3.042   0.410   3.160
    1MUSC H00HH32421   2.873   0.042   2.157
    1MUSC H00HI32422   3.084   0.410   2.544
    1MUSC H00HJ32423   3.359   1.400   3.548
    1MUSC H00HK32424   2.964   1.768   1.153
    1MUSC H00HL32425   3.316   1.400   0.150
    1MUSC H00HM32426   3.527   1.768   0.537
    1MUSC H00HN32427   3.619   0.948   3.548
    1MUSC H00HO32428   3.225   1.316   1.153
    1MUSC H00HP32429   3.056   0.948   0.150
    1MUSC H00HQ32430   3.267   1.316   0.537
    1MUSC H00HR32431   3.176   1.400   1.541
    1MUSC H00HS32432   2.781   1.768   3.160
    1MUSC H00HT32433   3.133   1.400   2.157
    1MUSC H00HU32434   3.344   1.768   2.544
    1MUSC H00HV32435   3.436   0.948   1.541
    1MUSC H00HW32436   3.042   1.316   3.160
    1MUSC H00HX32437   2.873   0.948   2.157
    1MUSC H00HY32438   3.084   1.316   2.544
    1MUSC H00HZ32439   3.359   2.305   3.548
    1MUSC H00Ha32440   2.964   2.674   1.153
    1MUSC H00Hb32441   3.316   2.305   0.150
    1MUSC H00Hc32442   3.527   2.674   0.537
    1MUSC H00Hd32443   3.619   1.853   3.548
    1MUSC H00He32444   3.225   2.221   1.153
    1MUSC H00Hf32445   3.056   1.853   0.150
    1MUSC H00Hg32446   3.267   2.221   0.537
    1MUSC H00Hh32447   3.176   2.305   1.541
    1MUSC H00Hi32448   2.781   2.674   3.160
    1MUSC H00Hj32449   3.133   2.305   2.157
    1MUSC H00Hk32450   3.344   2.674   2.544
    1MUSC H00Hl32451   3.436   1.853   1.541
    1MUSC H00Hm32452   3.042   2.221   3.160
    1MUSC H00Hn32453   2.873   1.853   2.157
    1MUSC H00Ho32454   3.084   2.221   2.544
    1MUSC H00Hp32455   3.359   3.211   3.548
    1MUSC H00Hq32456   2.964   3.579   1.153
    1MUSC H00Hr32457   3.316   3.211   0.150
    1MUSC H00Hs32458   3.527   3.579   0.537
    1MUSC H00Ht32459   3.619   2.758   3.548
    1MUSC H00Hu32460   3.225   3.126   1.153
    1MUSC H00Hv32461   3.056   2.758   0.150
    1MUSC H00Hw32462   3.267   3.126   0.537
    1MUSC H00Hx32463   3.176   3.211   1.541
    1MUSC H00Hy32464   2.781   3.579   3.160
    1MUSC H00Hz32465   3.133   3.211   2.157
    1MUSC H00I032466   3.344   3.579   2.544
    1MUSC H00I132467   3.436   2.758   1.541
    1MUSC H00I232468   3.042   3.126   3.160
    1MUSC H00I332469   2.873   2.758   2.157
    1MUSC H00I432470   3.084   3.126   2.544
    1MUSC H00I532471   3.359   4.116   3.548
    1MUSC H00I632472   2.964   4.484   1.153
    1MUSC H00I732473   3.316   4.116   0.150
    1MUSC H00I832474   3.527   4.484   0.537
    1MUSC H00I932475   3.619   3.663   3.548
    1MUSC H00IA32476   3.225   4.031   1.153
    1MUSC H00IB32477   3.056   3.663   0.150
    1MUSC H00IC32478   3.267   4.031   0.537
    1MUSC H00ID32479   3.176   4.116   1.541
    1MUSC H00IE32480   2.781   4.484   3.160
    1MUSC H00IF32481   3.133   4.116   2.157
    1MUSC H00IG32482   3.344   4.484   2.544
    1MUSC H00IH32483   3.436   3.663   1.541
    1MUSC H00II32484   3.042   4.031   3.160
    1MUSC H00IJ32485   2.873   3.663   2.157
    1MUSC H00IK32486   3.084   4.031   2.544
    1MUSC H00IL32487   3.359   5.021   3.548
    1MUSC H00IM32488   2.964   5.389   1.153
    1MUSC H00IN32489   3.316   5.021   0.150
    1MUSC H00IO32490   3.527   5.389   0.537
    1MUSC H00IP32491   3.619   4.569   3.548
    1MUSC H00IQ32492   3.225   4.937   1.153
    1MUSC H00IR32493   3.056   4.569   0.150
    1MUSC H00IS32494   3.267   4.937   0.537
    1MUSC H00IT32495   3.176   5.021   1.541
    1MUSC H00IU32496   2.781   5.389   3.160
    1MUSC H00IV32497   3.133   5.021   2.157
    1MUSC H00IW32498   3.344   5.389   2.544
    1MUSC H00IX32499   3.436   4.569   1.541
    1MUSC H00IY32500   3.042   4.937   3.160
    1MUSC H00IZ32501   2.873   4.569   2.157
    1MUSC H00Ia32502   3.084   4.937   2.544
    1MUSC H00Ib32503   3.359   5.927   3.548
    1MUSC H00Ic32504   2.964   6.295   1.153
    1MUSC H00Id32505   3.316   5.927   0.150
    1MUSC H00Ie32506   3.527   6.295   0.537
    1MUSC H00If32507   3.619   5.474   3.548
    1MUSC H00Ig32508   3.225   5.842   1.153
    1MUSC H00Ih32509   3.056   5.474   0.150
    1MUSC H00Ii32510   3.267   5.842   0.537
    1MUSC H00Ij32511   3.176   5.927   1.541
    1MUSC H00Ik32512   2.781   6.295   3.160
    1MUSC H00Il32513   3.133   5.927   2.157
    1MUSC H00Im32514   3.344   6.295   2.544
    1MUSC H00In32515   3.436   5.474   1.541
    1MUSC H00Io32516   3.042   5.842   3.160
    1MUSC H00Ip32517   2.873   5.474   2.157
    1MUSC H00Iq32518   3.084   5.842   2.544
    1MUSC H00Ir32519   3.359   6.832   3.548
    1MUSC H00Is32520   2.964   7.200   1.153
    1MUSC H00It32521   3.316   6.832   0.150
    1MUSC H00Iu32522   3.527   7.200   0.537
    1MUSC H00Iv32523   3.619   6.379   3.548
    1MUSC H00Iw32524   3.225   6.747   1.153
    1MUSC H00Ix32525   3.056   6.379   0.150
    1MUSC H00Iy32526   3.267   6.747   0.537
    1MUSC H00Iz32527   3.176   6.832   1.541
    1MUSC H00J032528   2.781   7.200   3.160
    1MUSC H00J132529   3.133   6.832   2.157
    1MUSC H00J232530   3.344   7.200   2.544
    1MUSC H00J332531   3.436   6.379   1.541
    1MUSC H00J432532   3.042   6.747   3.160
    1MUSC H00J532533   2.873   6.379   2.157
    1MUSC H00J632534   3.084   6.747   2.544
    1MUSC H00J732535   3.359   7.737   3.548
    1MUSC H00J832536   2.964   8.105   1.153
    1MUSC H00J932537   3.316   7.737   0.150
    1MUSC H00JA32538   3.527   8.105   0.537
    1MUSC H00JB32539   3.619   7.284   3.548
    1MUSC H00JC32540   3.225   7.653   1.153
    1MUSC H00JD32541   3.056   7.284   0.150
    1MUSC H00JE32542   3.267   7.653   0.537
    1MUSC H00JF32543   3.176   7.737   1.541
    1MUSC H00JG32544   2.781   8.105   3.160
    1MUSC H00JH32545   3.133   7.737   2.157
    1MUSC H00JI32546   3.344   8.105   2.544
    1MUSC H00JJ32547   3.436   7.284   1.541
    1MUSC H00JK32548   3.042   7.653   3.160
    1MUSC H00JL32549   2.873   7.284   2.157
    1MUSC H00JM32550   3.084   7.653   2.544
    1MUSC H00JN32551   3.359   8.642   3.548
    1MUSC H00JO32552   2.964   9.010   1.153
    1MUSC H00JP32553   3.316   8.642   0.150
    1MUSC H00JQ32554   3.527   9.010   0.537
    1MUSC H00JR32555   3.619   8.190   3.548
    1MUSC H00JS32556   3.225   8.558   1.153
    1MUSC H00JT32557   3.056   8.190   0.150
    1MUSC H00JU32558   3.267   8.558   0.537
    1MUSC H00JV32559   3.176   8.642   1.541
    1MUSC H00JW32560   2.781   9.010   3.160
    1MUSC H00JX32561   3.133   8.642   2.157
    1MUSC H00JY32562   3.344   9.010   2.544
    1MUSC H00JZ32563   3.436   8.190   1.541
    1MUSC H00Ja32564   3.042   8.558   3.160
    1MUSC H00Jb32565   2.873   8.190   2.157
    1MUSC H00Jc32566   3.084   8.558   2.544
    1MUSC H00Jd32567   3.359   9.548   3.548
    1MUSC H00Je32568   2.964   9.916   1.153
    1MUSC H00Jf32569   3.316   9.548   0.150
    1MUSC H00Jg32570   3.527   9.916   0.537
    1MUSC H00Jh32571   3.619   9.095   3.548
    1MUSC H00Ji32572   3.225   9.463   1.153
    1MUSC H00Jj32573   3.056   9.095   0.150
    1MUSC H00Jk32574   3.267   9.463   0.537
    1MUSC H00Jl32575   3.176   9.548   1.541
    1MUSC H00Jm32576   2.781   9.916   3.160
    1MUSC H00Jn32577   3.133   9.548   2.157
    1MUSC H00Jo32578   3.344   9.916   2.544
    1MUSC H00Jp32579   3.436   9.095   1.541
    1MUSC H00Jq32580   3.042   9.463   3.160
    1MUSC H00Jr32581   2.873   9.095   2.157
    1MUSC H00Js32582   3.084   9.463   2.544
    1MUSC H00Jt32583   3.879   0.495   3.548
    1MUSC H00Ju32584   3.485   0.863   1.153
    1MUSC H00Jv32585   3.837   0.495   0.150
    1MUSC H00Jw32586   4.048   0.863   0.537
    1MUSC H00Jx32587   4.139   0.042   3.548
    1MUSC H00Jy32588   3.745   0.410   1.153
    1MUSC H00Jz32589   3.576   0.042   0.150
    1MUSC H00K032590   3.788   0.410   0.537
    1MUSC H00K132591   3.696   0.495   1.541
    1MUSC H00K232592   3.302   0.863   3.160
    1MUSC H00K332593   3.654   0.495   2.157
    1MUSC H00K432594   3.865   0.863   2.544
    1MUSC H00K532595   3.956   0.042   1.541
    1MUSC H00K632596   3.562   0.410   3.160
    1MUSC H00K732597   3.393   0.042   2.157
    1MUSC H00K832598   3.605   0.410   2.544
    1MUSC H00K932599   3.879   1.400   3.548
    1MUSC H00KA32600   3.485   1.768   1.153
    1MUSC H00KB32601   3.837   1.400   0.150
    1MUSC H00KC32602   4.048   1.768   0.537
    1MUSC H00KD32603   4.139   0.948   3.548
    1MUSC H00KE32604   3.745   1.316   1.153
    1MUSC H00KF32605   3.576   0.948   0.150
    1MUSC H00KG32606   3.788   1.316   0.537
    1MUSC H00KH32607   3.696   1.400   1.541
    1MUSC H00KI32608   3.302   1.768   3.160
    1MUSC H00KJ32609   3.654   1.400   2.157
    1MUSC H00KK32610   3.865   1.768   2.544
    1MUSC H00KL32611   3.956   0.948   1.541
    1MUSC H00KM32612   3.562   1.316   3.160
    1MUSC H00KN32613   3.393   0.948   2.157
    1MUSC H00KO32614   3.605   1.316   2.544
    1MUSC H00KP32615   3.879   2.305   3.548
    1MUSC H00KQ32616   3.485   2.674   1.153
    1MUSC H00KR32617   3.837   2.305   0.150
    1MUSC H00KS32618   4.048   2.674   0.537
    1MUSC H00KT32619   4.139   1.853   3.548
    1MUSC H00KU32620   3.745   2.221   1.153
    1MUSC H00KV32621   3.576   1.853   0.150
    1MUSC H00KW32622   3.788   2.221   0.537
    1MUSC H00KX32623   3.696   2.305   1.541
    1MUSC H00KY32624   3.302   2.674   3.160
    1MUSC H00KZ32625   3.654   2.305   2.157
    1MUSC H00Ka32626   3.865   2.674   2.544
    1MUSC H00Kb32627   3.956   1.853   1.541
    1MUSC H00Kc32628   3.562   2.221   3.160
    1MUSC H00Kd32629   3.393   1.853   2.157
    1MUSC H00Ke32630   3.605   2.221   2.544
    1MUSC H00Kf32631   3.879   3.211   3.548
    1MUSC H00Kg32632   3.485   3.579   1.153
    1MUSC H00Kh32633   3.837   3.211   0.150
    1MUSC H00Ki32634   4.048   3.579   0.537
    1MUSC H00Kj32635   4.139   2.758   3.548
    1MUSC H00Kk32636   3.745   3.126   1.153
    1MUSC H00Kl32637   3.576   2.758   0.150
    1MUSC H00Km32638   3.788   3.126   0.537
    1MUSC H00Kn32639   3.696   3.211   1.541
    1MUSC H00Ko32640   3.302   3.579   3.160
    1MUSC H00Kp32641   3.654   3.211   2.157
    1MUSC H00Kq32642   3.865   3.579   2.544
    1MUSC H00Kr32643   3.956   2.758   1.541
    1MUSC H00Ks32644   3.562   3.126   3.160
    1MUSC H00Kt32645   3.393   2.758   2.157
    1MUSC H00Ku32646   3.605   3.126   2.544
    1MUSC H00Kv32647   3.879   4.116   3.548
    1MUSC H00Kw32648   3.485   4.484   1.153
    1MUSC H00Kx32649   3.837   4.116   0.150
    1MUSC H00Ky32650   4.048   4.484   0.537
    1MUSC H00Kz32651   4.139   3.663   3.548
    1MUSC H00L032652   3.745   4.031   1.153
    1MUSC H00L132653   3.576   3.663   0.150
    1MUSC H00L232654   3.788   4.031   0.537
    1MUSC H00L332655   3.696   4.116   1.541
    1MUSC H00L432656   3.302   4.484   3.160
    1MUSC H00L532657   3.654   4.116   2.157
    1MUSC H00L632658   3.865   4.484   2.544
    1MUSC H00L732659   3.956   3.663   1.541
    1MUSC H00L832660   3.562   4.031   3.160
    1MUSC H00L932661   3.393   3.663   2.157
    1MUSC H00LA32662   3.605   4.031   2.544
    1MUSC H00LB32663   3.879   5.021   3.548
    1MUSC H00LC32664   3.485   5.389   1.153
    1MUSC H00LD32665   3.837   5.021   0.150
    1MUSC H00LE32666   4.048   5.389   0.537
    1MUSC H00LF32667   4.139   4.569   3.548
    1MUSC H00LG32668   3.745   4.937   1.153
    1MUSC H00LH32669   3.576   4.569   0.150
    1MUSC H00LI32670   3.788   4.937   0.537
    1MUSC H00LJ32671   3.696   5.021   1.541
    1MUSC H00LK32672   3.302   5.389   3.160
    1MUSC H00LL32673   3.654   5.021   2.157
    1MUSC H00LM32674   3.865   5.389   2.544
    1MUSC H00LN32675   3.956   4.569   1.541
    1MUSC H00LO32676   3.562   4.937   3.160
    1MUSC H00LP32677   3.393   4.569   2.157
    1MUSC H00LQ32678   3.605   4.937   2.544
    1MUSC H00LR32679   3.879   5.927   3.548
    1MUSC H00LS32680   3.485   6.295   1.153
    1MUSC H00LT32681   3.837   5.927   0.150
    1MUSC H00LU32682   4.048   6.295   0.537
    1MUSC H00LV32683   4.139   5.474   3.548
    1MUSC H00LW32684   3.745   5.842   1.153
    1MUSC H00LX32685   3.576   5.474   0.150
    1MUSC H00LY32686   3.788   5.842   0.537
    1MUSC H00LZ32687   3.696   5.927   1.541
    1MUSC H00La32688   3.302   6.295   3.160
    1MUSC H00Lb32689   3.654   5.927   2.157
    1MUSC H00Lc32690   3.865   6.295   2.544
    1MUSC H00Ld32691   3.956   5.474   1.541
    1MUSC H00Le32692   3.562   5.842   3.160
    1MUSC H00Lf32693   3.393   5.474   2.157
    1MUSC H00Lg32694   3.605   5.842   2.544
    1MUSC H00Lh32695   3.879   6.832   3.548
    1MUSC H00Li32696   3.485   7.200   1.153
    1MUSC H00Lj32697   3.837   6.832   0.150
    1MUSC H00Lk32698   4.048   7.200   0.537
    1MUSC H00Ll32699   4.139   6.379   3.548
    1MUSC H00Lm32700   3.745   6.747   1.153
    1MUSC H00Ln32701   3.576   6.379   0.150
    1MUSC H00Lo32702   3.788   6.747   0.537
    1MUSC H00Lp32703   3.696   6.832   1.541
    1MUSC H00Lq32704   3.302   7.200   3.160
    1MUSC H00Lr32705   3.654   6.832   2.157
    1MUSC H00Ls32706   3.865   7.200   2.544
    1MUSC H00Lt32707   3.956   6.379   1.541
    1MUSC H00Lu32708   3.562   6.747   3.160
    1MUSC H00Lv32709   3.393   6.379   2.157
    1MUSC H00Lw32710   3.605   6.747   2.544
    1MUSC H00Lx32711   3.879   7.737   3.548
    1MUSC H00Ly32712   3.485   8.105   1.153
    1MUSC H00Lz32713   3.837   7.737   0.150
    1MUSC H00M032714   4.048   8.105   0.537
    1MUSC H00M132715   4.139   7.284   3.548
    1MUSC H00M232716   3.745   7.653   1.153
    1MUSC H00M332717   3.576   7.284   0.150
    1MUSC H00M432718   3.788   7.653   0.537
    1MUSC H00M532719   3.696   7.737   1.541
    1MUSC H00M632720   3.302   8.105   3.160
    1MUSC H00M732721   3.654   7.737   2.157
    1MUSC H00M832722   3.865   8.105   2.544
    1MUSC H00M932723   3.956   7.284   1.541
    1MUSC H00MA32724   3.562   7.653   3.160
    1MUSC H00MB32725   3.393   7.284   2.157
    1MUSC H00MC32726   3.605   7.653   2.544
    1MUSC H00MD32727   3.879   8.642   3.548
    1MUSC H00ME32728   3.485   9.010   1.153
    1MUSC H00MF32729   3.837   8.642   0.150
    1MUSC H00MG32730   4.048   9.010   0.537
    1MUSC H00MH32731   4.139   8.190   3.548
    1MUSC H00MI32732   3.745   8.558   1.153
    1MUSC H00MJ32733   3.576   8.190   0.150
    1MUSC H00MK32734   3.788   8.558   0.537
    1MUSC H00ML32735   3.696   8.642   1.541
    1MUSC H00MM32736   3.302   9.010   3.160
    1MUSC H00MN32737   3.654   8.642   2.157
    1MUSC H00MO32738   3.865   9.010   2.544
    1MUSC H00MP32739   3.956   8.190   1.541
    1MUSC H00MQ32740   3.562   8.558   3.160
    1MUSC H00MR32741   3.393   8.190   2.157
    1MUSC H00MS32742   3.605   8.558   2.544
    1MUSC H00MT32743   3.879   9.548   3.548
    1MUSC H00MU32744   3.485   9.916   1.153
    1MUSC H00MV32745   3.837   9.548   0.150
    1MUSC H00MW32746   4.048   9.916   0.537
    1MUSC H00MX32747   4.139   9.095   3.548
    1MUSC H00MY32748   3.745   9.463   1.153
    1MUSC H00MZ32749   3.576   9.095   0.150
    1MUSC H00Ma32750   3.788   9.463   0.537
    1MUSC H00Mb32751   3.696   9.548   1.541
    1MUSC H00Mc32752   3.302   9.916   3.160
    1MUSC H00Md32753   3.654   9.548   2.157
    1MUSC H00Me32754   3.865   9.916   2.544
    1MUSC H00Mf32755   3.956   9.095   1.541
    1MUSC H00Mg32756   3.562   9.463   3.160
    1MUSC H00Mh32757   3.393   9.095   2.157
    1MUSC H00Mi32758   3.605   9.463   2.544
    1MUSC H00Mj32759   4.400   0.495   3.548
    1MUSC H00Mk32760   4.005   0.863   1.153
    1MUSC H00Ml32761   4.357   0.495   0.150
    1MUSC H00Mm32762   4.568   0.863   0.537
    1MUSC H00Mn32763   4.660   0.042   3.548
    1MUSC H00Mo32764   4.266   0.410   1.153
    1MUSC H00Mp32765   4.097   0.042   0.150
    1MUSC H00Mq32766   4.308   0.410   0.537
    1MUSC H00Mr32767   4.217   0.495   1.541
    1MUSC H00Ms32768   3.822   0.863   3.160
    1MUSC H00Mt32769   4.174   0.495   2.157
    1MUSC H00Mu32770   4.385   0.863   2.544
    1MUSC H00Mv32771   4.477   0.042   1.541
    1MUSC H00Mw32772   4.083   0.410   3.160
    1MUSC H00Mx32773   3.914   0.042   2.157
    1MUSC H00My32774   4.125   0.410   2.544
    1MUSC H00Mz32775   4.400   1.400   3.548
    1MUSC H00N032776   4.005   1.768   1.153
    1MUSC H00N132777   4.357   1.400   0.150
    1MUSC H00N232778   4.568   1.768   0.537
    1MUSC H00N332779   4.660   0.948   3.548
    1MUSC H00N432780   4.266   1.316   1.153
    1MUSC H00N532781   4.097   0.948   0.150
    1MUSC H00N632782   4.308   1.316   0.537
    1MUSC H00N732783   4.217   1.400   1.541
    1MUSC H00N832784   3.822   1.768   3.160
    1MUSC H00N932785   4.174   1.400   2.157
    1MUSC H00NA32786   4.385   1.768   2.544
    1MUSC H00NB32787   4.477   0.948   1.541
    1MUSC H00NC32788   4.083   1.316   3.160
    1MUSC H00ND32789   3.914   0.948   2.157
    1MUSC H00NE32790   4.125   1.316   2.544
    1MUSC H00NF32791   4.400   2.305   3.548
    1MUSC H00NG32792   4.005   2.674   1.153
    1MUSC H00NH32793   4.357   2.305   0.150
    1MUSC H00NI32794   4.568   2.674   0.537
    1MUSC H00NJ32795   4.660   1.853   3.548
    1MUSC H00NK32796   4.266   2.221   1.153
    1MUSC H00NL32797   4.097   1.853   0.150
    1MUSC H00NM32798   4.308   2.221   0.537
    1MUSC H00NN32799   4.217   2.305   1.541
    1MUSC H00NO32800   3.822   2.674   3.160
    1MUSC H00NP32801   4.174   2.305   2.157
    1MUSC H00NQ32802   4.385   2.674   2.544
    1MUSC H00NR32803   4.477   1.853   1.541
    1MUSC H00NS32804   4.083   2.221   3.160
    1MUSC H00NT32805   3.914   1.853   2.157
    1MUSC H00NU32806   4.125   2.221   2.544
    1MUSC H00NV32807   4.400   3.211   3.548
    1MUSC H00NW32808   4.005   3.579   1.153
    1MUSC H00NX32809   4.357   3.211   0.150
    1MUSC H00NY32810   4.568   3.579   0.537
    1MUSC H00NZ32811   4.660   2.758   3.548
    1MUSC H00Na32812   4.266   3.126   1.153
    1MUSC H00Nb32813   4.097   2.758   0.150
    1MUSC H00Nc32814   4.308   3.126   0.537
    1MUSC H00Nd32815   4.217   3.211   1.541
    1MUSC H00Ne32816   3.822   3.579   3.160
    1MUSC H00Nf32817   4.174   3.211   2.157
    1MUSC H00Ng32818   4.385   3.579   2.544
    1MUSC H00Nh32819   4.477   2.758   1.541
    1MUSC H00Ni32820   4.083   3.126   3.160
    1MUSC H00Nj32821   3.914   2.758   2.157
    1MUSC H00Nk32822   4.125   3.126   2.544
    1MUSC H00Nl32823   4.400   4.116   3.548
    1MUSC H00Nm32824   4.005   4.484   1.153
    1MUSC H00Nn32825   4.357   4.116   0.150
    1MUSC H00No32826   4.568   4.484   0.537
    1MUSC H00Np32827   4.660   3.663   3.548
    1MUSC H00Nq32828   4.266   4.031   1.153
    1MUSC H00Nr32829   4.097   3.663   0.150
    1MUSC H00Ns32830   4.308   4.031   0.537
    1MUSC H00Nt32831   4.217   4.116   1.541
    1MUSC H00Nu32832   3.822   4.484   3.160
    1MUSC H00Nv32833   4.174   4.116   2.157
    1MUSC H00Nw32834   4.385   4.484   2.544
    1MUSC H00Nx32835   4.477   3.663   1.541
    1MUSC H00Ny32836   4.083   4.031   3.160
    1MUSC H00Nz32837   3.914   3.663   2.157
    1MUSC H00O032838   4.125   4.031   2.544
    1MUSC H00O132839   4.400   5.021   3.548
    1MUSC H00O232840   4.005   5.389   1.153
    1MUSC H00O332841   4.357   5.021   0.150
    1MUSC H00O432842   4.568   5.389   0.537
    1MUSC H00O532843   4.660   4.569   3.548
    1MUSC H00O632844   4.266   4.937   1.153
    1MUSC H00O732845   4.097   4.569   0.150
    1MUSC H00O832846   4.308   4.937   0.537
    1MUSC H00O932847   4.217   5.021   1.541
    1MUSC H00OA32848   3.822   5.389   3.160
    1MUSC H00OB32849   4.174   5.021   2.157
    1MUSC H00OC32850   4.385   5.389   2.544
    1MUSC H00OD32851   4.477   4.569   1.541
    1MUSC H00OE32852   4.083   4.937   3.160
    1MUSC H00OF32853   3.914   4.569   2.157
    1MUSC H00OG32854   4.125   4.937   2.544
    1MUSC H00OH32855   4.400   5.927   3.548
    1MUSC H00OI32856   4.005   6.295   1.153
    1MUSC H00OJ32857   4.357   5.927   0.150
    1MUSC H00OK32858   4.568   6.295   0.537
    1MUSC H00OL32859   4.660   5.474   3.548
    1MUSC H00OM32860   4.266   5.842   1.153
    1MUSC H00ON32861   4.097   5.474   0.150
    1MUSC H00OO32862   4.308   5.842   0.537
    1MUSC H00OP32863   4.217   5.927   1.541
    1MUSC H00OQ32864   3.822   6.295   3.160
    1MUSC H00OR32865   4.174   5.927   2.157
    1MUSC H00OS32866   4.385   6.295   2.544
    1MUSC H00OT32867   4.477   5.474   1.541
    1MUSC H00OU32868   4.083   5.842   3.160
    1MUSC H00OV32869   3.914   5.474   2.157
    1MUSC H00OW32870   4.125   5.842   2.544
    1MUSC H00OX32871   4.400   6.832   3.548
    1MUSC H00OY32872   4.005   7.200   1.153
    1MUSC H00OZ32873   4.357   6.832   0.150
    1MUSC H00Oa32874   4.568   7.200   0.537
    1MUSC H00Ob32875   4.660   6.379   3.548
    1MUSC H00Oc32876   4.266   6.747   1.153
    1MUSC H00Od32877   4.097   6.379   0.150
    1MUSC H00Oe32878   4.308   6.747   0.537
    1MUSC H00Of32879   4.217   6.832   1.541
    1MUSC H00Og32880   3.822   7.200   3.160
    1MUSC H00Oh32881   4.174   6.832   2.157
    1MUSC H00Oi32882   4.385   7.200   2.544
    1MUSC H00Oj32883   4.477   6.379   1.541
    1MUSC H00Ok32884   4.083   6.747   3.160
    1MUSC H00Ol32885   3.914   6.379   2.157
    1MUSC H00Om32886   4.125   6.747   2.544
    1MUSC H00On32887   4.400   7.737   3.548
    1MUSC H00Oo32888   4.005   8.105   1.153
    1MUSC H00Op32889   4.357   7.737   0.150
    1MUSC H00Oq32890   4.568   8.105   0.537
    1MUSC H00Or32891   4.660   7.284   3.548
    1MUSC H00Os32892   4.266   7.653   1.153
    1MUSC H00Ot32893   4.097   7.284   0.150
    1MUSC H00Ou32894   4.308   7.653   0.537
    1MUSC H00Ov32895   4.217   7.737   1.541
    1MUSC H00Ow32896   3.822   8.105   3.160
    1MUSC H00Ox32897   4.174   7.737   2.157
    1MUSC H00Oy32898   4.385   8.105   2.544
    1MUSC H00Oz32899   4.477   7.284   1.541
    1MUSC H00P032900   4.083   7.653   3.160
    1MUSC H00P132901   3.914   7.284   2.157
    1MUSC H00P232902   4.125   7.653   2.544
    1MUSC H00P332903   4.400   8.642   3.548
    1MUSC H00P432904   4.005   9.010   1.153
    1MUSC H00P532905   4.357   8.642   0.150
    1MUSC H00P632906   4.568   9.010   0.537
    1MUSC H00P732907   4.660   8.190   3.548
    1MUSC H00P832908   4.266   8.558   1.153
    1MUSC H00P932909   4.097   8.190   0.150
    1MUSC H00PA32910   4.308   8.558   0.537
    1MUSC H00PB32911   4.217   8.642   1.541
    1MUSC H00PC32912   3.822   9.010   3.160
    1MUSC H00PD32913   4.174   8.642   2.157
    1MUSC H00PE32914   4.385   9.010   2.544
    1MUSC H00PF32915   4.477   8.190   1.541
    1MUSC H00PG32916   4.083   8.558   3.160
    1MUSC H00PH32917   3.914   8.190   2.157
    1MUSC H00PI32918   4.125   8.558   2.544
    1MUSC H00PJ32919   4.400   9.548   3.548
    1MUSC H00PK32920   4.005   9.916   1.153
    1MUSC H00PL32921   4.357   9.548   0.150
    1MUSC H00PM32922   4.568   9.916   0.537
    1MUSC H00PN32923   4.660   9.095   3.548
    1MUSC H00PO32924   4.266   9.463   1.153
    1MUSC H00PP32925   4.097   9.095   0.150
    1MUSC H00PQ32926   4.308   9.463   0.537
    1MUSC H00PR32927   4.217   9.548   1.541
    1MUSC H00PS32928   3.822   9.916   3.160
    1MUSC H00PT32929   4.174   9.548   2.157
    1MUSC H00PU32930   4.385   9.916   2.544
    1MUSC H00PV32931   4.477   9.095   1.541
    1MUSC H00PW32932   4.083   9.463   3.160
    1MUSC H00PX32933   3.914   9.095   2.157
    1MUSC H00PY32934   4.125   9.463   2.544
    1MUSC H00PZ32935   4.920   0.495   3.548
    1MUSC H00Pa32936   4.526   0.863   1.153
    1MUSC H00Pb32937   4.878   0.495   0.150
    1MUSC H00Pc32938   5.089   0.863   0.537
    1MUSC H00Pd32939   5.180   0.042   3.548
    1MUSC H00Pe32940   4.786   0.410   1.153
    1MUSC H00Pf32941   4.617   0.042   0.150
    1MUSC H00Pg32942   4.829   0.410   0.537
    1MUSC H00Ph32943   4.737   0.495   1.541
    1MUSC H00Pi32944   4.343   0.863   3.160
    1MUSC H00Pj32945   4.695   0.495   2.157
    1MUSC H00Pk32946   4.906   0.863   2.544
    1MUSC H00Pl32947   4.997   0.042   1.541
    1MUSC H00Pm32948   4.603   0.410   3.160
    1MUSC H00Pn32949   4.434   0.042   2.157
    1MUSC H00Po32950   4.646   0.410   2.544
    1MUSC H00Pp32951   4.920   1.400   3.548
    1MUSC H00Pq32952   4.526   1.768   1.153
    1MUSC H00Pr32953   4.878   1.400   0.150
    1MUSC H00Ps32954   5.089   1.768   0.537
    1MUSC H00Pt32955   5.180   0.948   3.548
    1MUSC H00Pu32956   4.786   1.316   1.153
    1MUSC H00Pv32957   4.617   0.948   0.150
    1MUSC H00Pw32958   4.829   1.316   0.537
    1MUSC H00Px32959   4.737   1.400   1.541
    1MUSC H00Py32960   4.343   1.768   3.160
    1MUSC H00Pz32961   4.695   1.400   2.157
    1MUSC H00Q032962   4.906   1.768   2.544
    1MUSC H00Q132963   4.997   0.948   1.541
    1MUSC H00Q232964   4.603   1.316   3.160
    1MUSC H00Q332965   4.434   0.948   2.157
    1MUSC H00Q432966   4.646   1.316   2.544
    1MUSC H00Q532967   4.920   2.305   3.548
    1MUSC H00Q632968   4.526   2.674   1.153
    1MUSC H00Q732969   4.878   2.305   0.150
    1MUSC H00Q832970   5.089   2.674   0.537
    1MUSC H00Q932971   5.180   1.853   3.548
    1MUSC H00QA32972   4.786   2.221   1.153
    1MUSC H00QB32973   4.617   1.853   0.150
    1MUSC H00QC32974   4.829   2.221   0.537
    1MUSC H00QD32975   4.737   2.305   1.541
    1MUSC H00QE32976   4.343   2.674   3.160
    1MUSC H00QF32977   4.695   2.305   2.157
    1MUSC H00QG32978   4.906   2.674   2.544
    1MUSC H00QH32979   4.997   1.853   1.541
    1MUSC H00QI32980   4.603   2.221   3.160
    1MUSC H00QJ32981   4.434   1.853   2.157
    1MUSC H00QK32982   4.646   2.221   2.544
    1MUSC H00QL32983   4.920   3.211   3.548
    1MUSC H00QM32984   4.526   3.579   1.153
    1MUSC H00QN32985   4.878   3.211   0.150
    1MUSC H00QO32986   5.089   3.579   0.537
    1MUSC H00QP32987   5.180   2.758   3.548
    1MUSC H00QQ32988   4.786   3.126   1.153
    1MUSC H00QR32989   4.617   2.758   0.150
    1MUSC H00QS32990   4.829   3.126   0.537
    1MUSC H00QT32991   4.737   3.211   1.541
    1MUSC H00QU32992   4.343   3.579   3.160
    1MUSC H00QV32993   4.695   3.211   2.157
    1MUSC H00QW32994   4.906   3.579   2.544
    1MUSC H00QX32995   4.997   2.758   1.541
    1MUSC H00QY32996   4.603   3.126   3.160
    1MUSC H00QZ32997   4.434   2.758   2.157
    1MUSC H00Qa32998   4.646   3.126   2.544
    1MUSC H00Qb32999   4.920   4.116   3.548
    1MUSC H00Qc33000   4.526   4.484   1.153
    1MUSC H00Qd33001   4.878   4.116   0.150
    1MUSC H00Qe33002   5.089   4.484   0.537
    1MUSC H00Qf33003   5.180   3.663   3.548
    1MUSC H00Qg33004   4.786   4.031   1.153
    1MUSC H00Qh33005   4.617   3.663   0.150
    1MUSC H00Qi33006   4.829   4.031   0.537
    1MUSC H00Qj33007   4.737   4.116   1.541
    1MUSC H00Qk33008   4.343   4.484   3.160
    1MUSC H00Ql33009   4.695   4.116   2.157
    1MUSC H00Qm33010   4.906   4.484   2.544
    1MUSC H00Qn33011   4.997   3.663   1.541
    1MUSC H00Qo33012   4.603   4.031   3.160
    1MUSC H00Qp33013   4.434   3.663   2.157
    1MUSC H00Qq33014   4.646   4.031   2.544
    1MUSC H00Qr33015   4.920   5.021   3.548
    1MUSC H00Qs33016   4.526   5.389   1.153
    1MUSC H00Qt33017   4.878   5.021   0.150
    1MUSC H00Qu33018   5.089   5.389   0.537
    1MUSC H00Qv33019   5.180   4.569   3.548
    1MUSC H00Qw33020   4.786   4.937   1.153
    1MUSC H00Qx33021   4.617   4.569   0.150
    1MUSC H00Qy33022   4.829   4.937   0.537
    1MUSC H00Qz33023   4.737   5.021   1.541
    1MUSC H00R033024   4.343   5.389   3.160
    1MUSC H00R133025   4.695   5.021   2.157
    1MUSC H00R233026   4.906   5.389   2.544
    1MUSC H00R333027   4.997   4.569   1.541
    1MUSC H00R433028   4.603   4.937   3.160
    1MUSC H00R533029   4.434   4.569   2.157
    1MUSC H00R633030   4.646   4.937   2.544
    1MUSC H00R733031   4.920   5.927   3.548
    1MUSC H00R833032   4.526   6.295   1.153
    1MUSC H00R933033   4.878   5.927   0.150
    1MUSC H00RA33034   5.089   6.295   0.537
    1MUSC H00RB33035   5.180   5.474   3.548
    1MUSC H00RC33036   4.786   5.842   1.153
    1MUSC H00RD33037   4.617   5.474   0.150
    1MUSC H00RE33038   4.829   5.842   0.537
    1MUSC H00RF33039   4.737   5.927   1.541
    1MUSC H00RG33040   4.343   6.295   3.160
    1MUSC H00RH33041   4.695   5.927   2.157
    1MUSC H00RI33042   4.906   6.295   2.544
    1MUSC H00RJ33043   4.997   5.474   1.541
    1MUSC H00RK33044   4.603   5.842   3.160
    1MUSC H00RL33045   4.434   5.474   2.157
    1MUSC H00RM33046   4.646   5.842   2.544
    1MUSC H00RN33047   4.920   6.832   3.548
    1MUSC H00RO33048   4.526   7.200   1.153
    1MUSC H00RP33049   4.878   6.832   0.150
    1MUSC H00RQ33050   5.089   7.200   0.537
    1MUSC H00RR33051   5.180   6.379   3.548
    1MUSC H00RS33052   4.786   6.747   1.153
    1MUSC H00RT33053   4.617   6.379   0.150
    1MUSC H00RU33054   4.829   6.747   0.537
    1MUSC H00RV33055   4.737   6.832   1.541
    1MUSC H00RW33056   4.343   7.200   3.160
    1MUSC H00RX33057   4.695   6.832   2.157
    1MUSC H00RY33058   4.906   7.200   2.544
    1MUSC H00RZ33059   4.997   6.379   1.541
    1MUSC H00Ra33060   4.603   6.747   3.160
    1MUSC H00Rb33061   4.434   6.379   2.157
    1MUSC H00Rc33062   4.646   6.747   2.544
    1MUSC H00Rd33063   4.920   7.737   3.548
    1MUSC H00Re33064   4.526   8.105   1.153
    1MUSC H00Rf33065   4.878   7.737   0.150
    1MUSC H00Rg33066   5.089   8.105   0.537
    1MUSC H00Rh33067   5.180   7.284   3.548
    1MUSC H00Ri33068   4.786   7.653   1.153
    1MUSC H00Rj33069   4.617   7.284   0.150
    1MUSC H00Rk33070   4.829   7.653   0.537
    1MUSC H00Rl33071   4.737   7.737   1.541
    1MUSC H00Rm33072   4.343   8.105   3.160
    1MUSC H00Rn33073   4.695   7.737   2.157
    1MUSC H00Ro33074   4.906   8.105   2.544
    1MUSC H00Rp33075   4.997   7.284   1.541
    1MUSC H00Rq33076   4.603   7.653   3.160
    1MUSC H00Rr33077   4.434   7.284   2.157
    1MUSC H00Rs33078   4.646   7.653   2.544
    1MUSC H00Rt33079   4.920   8.642   3.548
    1MUSC H00Ru33080   4.526   9.010   1.153
    1MUSC H00Rv33081   4.878   8.642   0.150
    1MUSC H00Rw33082   5.089   9.010   0.537
    1MUSC H00Rx33083   5.180   8.190   3.548
    1MUSC H00Ry33084   4.786   8.558   1.153
    1MUSC H00Rz33085   4.617   8.190   0.150
    1MUSC H00S033086   4.829   8.558   0.537
    1MUSC H00S133087   4.737   8.642   1.541
    1MUSC H00S233088   4.343   9.010   3.160
    1MUSC H00S333089   4.695   8.642   2.157
    1MUSC H00S433090   4.906   9.010   2.544
    1MUSC H00S533091   4.997   8.190   1.541
    1MUSC H00S633092   4.603   8.558   3.160
    1MUSC H00S733093   4.434   8.190   2.157
    1MUSC H00S833094   4.646   8.558   2.544
    1MUSC H00S933095   4.920   9.548   3.548
    1MUSC H00SA33096   4.526   9.916   1.153
    1MUSC H00SB33097   4.878   9.548   0.150
    1MUSC H00SC33098   5.089   9.916   0.537
    1MUSC H00SD33099   5.180   9.095   3.548
    1MUSC H00SE33100   4.786   9.463   1.153
    1MUSC H00SF33101   4.617   9.095   0.150
    1MUSC H00SG33102   4.829   9.463   0.537
    1MUSC H00SH33103   4.737   9.548   1.541
    1MUSC H00SI33104   4.343   9.916   3.160
    1MUSC H00SJ33105   4.695   9.548   2.157
    1MUSC H00SK33106   4.906   9.916   2.544
    1MUSC H00SL33107   4.997   9.095   1.541
    1MUSC H00SM33108   4.603   9.463   3.160
    1MUSC H00SN33109   4.434   9.095   2.157
    1MUSC H00SO33110   4.646   9.463   2.544
    1MUSC H00SP33111   5.441   0.495   3.548
    1MUSC H00SQ33112   5.046   0.863   1.153
    1MUSC H00SR33113   5.398   0.495   0.150
    1MUSC H00SS33114   5.609   0.863   0.537
    1MUSC H00ST33115   5.701   0.042   3.548
    1MUSC H00SU33116   5.307   0.410   1.153
    1MUSC H00SV33117   5.138   0.042   0.150
    1MUSC H00SW33118   5.349   0.410   0.537
    1MUSC H00SX33119   5.258   0.495   1.541
    1MUSC H00SY33120   4.863   0.863   3.160
    1MUSC H00SZ33121   5.215   0.495   2.157
    1MUSC H00Sa33122   5.426   0.863   2.544
    1MUSC H00Sb33123   5.518   0.042   1.541
    1MUSC H00Sc33124   5.124   0.410   3.160
    1MUSC H00Sd33125   4.955   0.042   2.157
    1MUSC H00Se33126   5.166   0.410   2.544
    1MUSC H00Sf33127   5.441   1.400   3.548
    1MUSC H00Sg33128   5.046   1.768   1.153
    1MUSC H00Sh33129   5.398   1.400   0.150
    1MUSC H00Si33130   5.609   1.768   0.537
    1MUSC H00Sj33131   5.701   0.948   3.548
    1MUSC H00Sk33132   5.307   1.316   1.153
    1MUSC H00Sl33133   5.138   0.948   0.150
    1MUSC H00Sm33134   5.349   1.316   0.537
    1MUSC H00Sn33135   5.258   1.400   1.541
    1MUSC H00So33136   4.863   1.768   3.160
    1MUSC H00Sp33137   5.215   1.400   2.157
    1MUSC H00Sq33138   5.426   1.768   2.544
    1MUSC H00Sr33139   5.518   0.948   1.541
    1MUSC H00Ss33140   5.124   1.316   3.160
    1MUSC H00St33141   4.955   0.948   2.157
    1MUSC H00Su33142   5.166   1.316   2.544
    1MUSC H00Sv33143   5.441   2.305   3.548
    1MUSC H00Sw33144   5.046   2.674   1.153
    1MUSC H00Sx33145   5.398   2.305   0.150
    1MUSC H00Sy33146   5.609   2.674   0.537
    1MUSC H00Sz33147   5.701   1.853   3.548
    1MUSC H00T033148   5.307   2.221   1.153
    1MUSC H00T133149   5.138   1.853   0.150
    1MUSC H00T233150   5.349   2.221   0.537
    1MUSC H00T333151   5.258   2.305   1.541
    1MUSC H00T433152   4.863   2.674   3.160
    1MUSC H00T533153   5.215   2.305   2.157
    1MUSC H00T633154   5.426   2.674   2.544
    1MUSC H00T733155   5.518   1.853   1.541
    1MUSC H00T833156   5.124   2.221   3.160
    1MUSC H00T933157   4.955   1.853   2.157
    1MUSC H00TA33158   5.166   2.221   2.544
    1MUSC H00TB33159   5.441   3.211   3.548
    1MUSC H00TC33160   5.046   3.579   1.153
    1MUSC H00TD33161   5.398   3.211   0.150
    1MUSC H00TE33162   5.609   3.579   0.537
    1MUSC H00TF33163   5.701   2.758   3.548
    1MUSC H00TG33164   5.307   3.126   1.153
    1MUSC H00TH33165   5.138   2.758   0.150
    1MUSC H00TI33166   5.349   3.126   0.537
    1MUSC H00TJ33167   5.258   3.211   1.541
    1MUSC H00TK33168   4.863   3.579   3.160
    1MUSC H00TL33169   5.215   3.211   2.157
    1MUSC H00TM33170   5.426   3.579   2.544
    1MUSC H00TN33171   5.518   2.758   1.541
    1MUSC H00TO33172   5.124   3.126   3.160
    1MUSC H00TP33173   4.955   2.758   2.157
    1MUSC H00TQ33174   5.166   3.126   2.544
    1MUSC H00TR33175   5.441   4.116   3.548
    1MUSC H00TS33176   5.046   4.484   1.153
    1MUSC H00TT33177   5.398   4.116   0.150
    1MUSC H00TU33178   5.609   4.484   0.537
    1MUSC H00TV33179   5.701   3.663   3.548
    1MUSC H00TW33180   5.307   4.031   1.153
    1MUSC H00TX33181   5.138   3.663   0.150
    1MUSC H00TY33182   5.349   4.031   0.537
    1MUSC H00TZ33183   5.258   4.116   1.541
    1MUSC H00Ta33184   4.863   4.484   3.160
    1MUSC H00Tb33185   5.215   4.116   2.157
    1MUSC H00Tc33186   5.426   4.484   2.544
    1MUSC H00Td33187   5.518   3.663   1.541
    1MUSC H00Te33188   5.124   4.031   3.160
    1MUSC H00Tf33189   4.955   3.663   2.157
    1MUSC H00Tg33190   5.166   4.031   2.544
    1MUSC H00Th33191   5.441   5.021   3.548
    1MUSC H00Ti33192   5.046   5.389   1.153
    1MUSC H00Tj33193   5.398   5.021   0.150
    1MUSC H00Tk33194   5.609   5.389   0.537
    1MUSC H00Tl33195   5.701   4.569   3.548
    1MUSC H00Tm33196   5.307   4.937   1.153
    1MUSC H00Tn33197   5.138   4.569   0.150
    1MUSC H00To33198   5.349   4.937   0.537
    1MUSC H00Tp33199   5.258   5.021   1.541
    1MUSC H00Tq33200   4.863   5.389   3.160
    1MUSC H00Tr33201   5.215   5.021   2.157
    1MUSC H00Ts33202   5.426   5.389   2.544
    1MUSC H00Tt33203   5.518   4.569   1.541
    1MUSC H00Tu33204   5.124   4.937   3.160
    1MUSC H00Tv33205   4.955   4.569   2.157
    1MUSC H00Tw33206   5.166   4.937   2.544
    1MUSC H00Tx33207   5.441   5.927   3.548
    1MUSC H00Ty33208   5.046   6.295   1.153
    1MUSC H00Tz33209   5.398   5.927   0.150
    1MUSC H00U033210   5.609   6.295   0.537
    1MUSC H00U133211   5.701   5.474   3.548
    1MUSC H00U233212   5.307   5.842   1.153
    1MUSC H00U333213   5.138   5.474   0.150
    1MUSC H00U433214   5.349   5.842   0.537
    1MUSC H00U533215   5.258   5.927   1.541
    1MUSC H00U633216   4.863   6.295   3.160
    1MUSC H00U733217   5.215   5.927   2.157
    1MUSC H00U833218   5.426   6.295   2.544
    1MUSC H00U933219   5.518   5.474   1.541
    1MUSC H00UA33220   5.124   5.842   3.160
    1MUSC H00UB33221   4.955   5.474   2.157
    1MUSC H00UC33222   5.166   5.842   2.544
    1MUSC H00UD33223   5.441   6.832   3.548
    1MUSC H00UE33224   5.046   7.200   1.153
    1MUSC H00UF33225   5.398   6.832   0.150
    1MUSC H00UG33226   5.609   7.200   0.537
    1MUSC H00UH33227   5.701   6.379   3.548
    1MUSC H00UI33228   5.307   6.747   1.153
    1MUSC H00UJ33229   5.138   6.379   0.150
    1MUSC H00UK33230   5.349   6.747   0.537
    1MUSC H00UL33231   5.258   6.832   1.541
    1MUSC H00UM33232   4.863   7.200   3.160
    1MUSC H00UN33233   5.215   6.832   2.157
    1MUSC H00UO33234   5.426   7.200   2.544
    1MUSC H00UP33235   5.518   6.379   1.541
    1MUSC H00UQ33236   5.124   6.747   3.160
    1MUSC H00UR33237   4.955   6.379   2.157
    1MUSC H00US33238   5.166   6.747   2.544
    1MUSC H00UT33239   5.441   7.737   3.548
    1MUSC H00UU33240   5.046   8.105   1.153
    1MUSC H00UV33241   5.398   7.737   0.150
    1MUSC H00UW33242   5.609   8.105   0.537
    1MUSC H00UX33243   5.701   7.284   3.548
    1MUSC H00UY33244   5.307   7.653   1.153
    1MUSC H00UZ33245   5.138   7.284   0.150
    1MUSC H00Ua33246   5.349   7.653   0.537
    1MUSC H00Ub33247   5.258   7.737   1.541
    1MUSC H00Uc33248   4.863   8.105   3.160
    1MUSC H00Ud33249   5.215   7.737   2.157
    1MUSC H00Ue33250   5.426   8.105   2.544
    1MUSC H00Uf33251   5.518   7.284   1.541
    1MUSC H00Ug33252   5.124   7.653   3.160
    1MUSC H00Uh33253   4.955   7.284   2.157
    1MUSC H00Ui33254   5.166   7.653   2.544
    1MUSC H00Uj33255   5.441   8.642   3.548
    1MUSC H00Uk33256   5.046   9.010   1.153
    1MUSC H00Ul33257   5.398   8.642   0.150
    1MUSC H00Um33258   5.609   9.010   0.537
    1MUSC H00Un33259   5.701   8.190   3.548
    1MUSC H00Uo33260   5.307   8.558   1.153
    1MUSC H00Up33261   5.138   8.190   0.150
    1MUSC H00Uq33262   5.349   8.558   0.537
    1MUSC H00Ur33263   5.258   8.642   1.541
    1MUSC H00Us33264   4.863   9.010   3.160
    1MUSC H00Ut33265   5.215   8.642   2.157
    1MUSC H00Uu33266   5.426   9.010   2.544
    1MUSC H00Uv33267   5.518   8.190   1.541
    1MUSC H00Uw33268   5.124   8.558   3.160
    1MUSC H00Ux33269   4.955   8.190   2.157
    1MUSC H00Uy33270   5.166   8.558   2.544
    1MUSC H00Uz33271   5.441   9.548   3.548
    1MUSC H00V033272   5.046   9.916   1.153
    1MUSC H00V133273   5.398   9.548   0.150
    1MUSC H00V233274   5.609   9.916   0.537
    1MUSC H00V333275   5.701   9.095   3.548
    1MUSC H00V433276   5.307   9.463   1.153
    1MUSC H00V533277   5.138   9.095   0.150
    1MUSC H00V633278   5.349   9.463   0.537
    1MUSC H00V733279   5.258   9.548   1.541
    1MUSC H00V833280   4.863   9.916   3.160
    1MUSC H00V933281   5.215   9.548   2.157
    1MUSC H00VA33282   5.426   9.916   2.544
    1MUSC H00VB33283   5.518   9.095   1.541
    1MUSC H00VC33284   5.124   9.463   3.160
    1MUSC H00VD33285   4.955   9.095   2.157
    1MUSC H00VE33286   5.166   9.463   2.544
    1MUSC H00VF33287   5.961   0.495   3.548
    1MUSC H00VG33288   5.567   0.863   1.153
    1MUSC H00VH33289   5.919   0.495   0.150
    1MUSC H00VI33290   6.130   0.863   0.537
    1MUSC H00VJ33291   6.221   0.042   3.548
    1MUSC H00VK33292   5.827   0.410   1.153
    1MUSC H00VL33293   5.658   0.042   0.150
    1MUSC H00VM33294   5.870   0.410   0.537
    1MUSC H00VN33295   5.778   0.495   1.541
    1MUSC H00VO33296   5.384   0.863   3.160
    1MUSC H00VP33297   5.736   0.495   2.157
    1MUSC H00VQ33298   5.947   0.863   2.544
    1MUSC H00VR33299   6.038   0.042   1.541
    1MUSC H00VS33300   5.644   0.410   3.160
    1MUSC H00VT33301   5.475   0.042   2.157
    1MUSC H00VU33302   5.687   0.410   2.544
    1MUSC H00VV33303   5.961   1.400   3.548
    1MUSC H00VW33304   5.567   1.768   1.153
    1MUSC H00VX33305   5.919   1.400   0.150
    1MUSC H00VY33306   6.130   1.768   0.537
    1MUSC H00VZ33307   6.221   0.948   3.548
    1MUSC H00Va33308   5.827   1.316   1.153
    1MUSC H00Vb33309   5.658   0.948   0.150
    1MUSC H00Vc33310   5.870   1.316   0.537
    1MUSC H00Vd33311   5.778   1.400   1.541
    1MUSC H00Ve33312   5.384   1.768   3.160
    1MUSC H00Vf33313   5.736   1.400   2.157
    1MUSC H00Vg33314   5.947   1.768   2.544
    1MUSC H00Vh33315   6.038   0.948   1.541
    1MUSC H00Vi33316   5.644   1.316   3.160
    1MUSC H00Vj33317   5.475   0.948   2.157
    1MUSC H00Vk33318   5.687   1.316   2.544
    1MUSC H00Vl33319   5.961   2.305   3.548
    1MUSC H00Vm33320   5.567   2.674   1.153
    1MUSC H00Vn33321   5.919   2.305   0.150
    1MUSC H00Vo33322   6.130   2.674   0.537
    1MUSC H00Vp33323   6.221   1.853   3.548
    1MUSC H00Vq33324   5.827   2.221   1.153
    1MUSC H00Vr33325   5.658   1.853   0.150
    1MUSC H00Vs33326   5.870   2.221   0.537
    1MUSC H00Vt33327   5.778   2.305   1.541
    1MUSC H00Vu33328   5.384   2.674   3.160
    1MUSC H00Vv33329   5.736   2.305   2.157
    1MUSC H00Vw33330   5.947   2.674   2.544
    1MUSC H00Vx33331   6.038   1.853   1.541
    1MUSC H00Vy33332   5.644   2.221   3.160
    1MUSC H00Vz33333   5.475   1.853   2.157
    1MUSC H00W033334   5.687   2.221   2.544
    1MUSC H00W133335   5.961   3.211   3.548
    1MUSC H00W233336   5.567   3.579   1.153
    1MUSC H00W333337   5.919   3.211   0.150
    1MUSC H00W433338   6.130   3.579   0.537
    1MUSC H00W533339   6.221   2.758   3.548
    1MUSC H00W633340   5.827   3.126   1.153
    1MUSC H00W733341   5.658   2.758   0.150
    1MUSC H00W833342   5.870   3.126   0.537
    1MUSC H00W933343   5.778   3.211   1.541
    1MUSC H00WA33344   5.384   3.579   3.160
    1MUSC H00WB33345   5.736   3.211   2.157
    1MUSC H00WC33346   5.947   3.579   2.544
    1MUSC H00WD33347   6.038   2.758   1.541
    1MUSC H00WE33348   5.644   3.126   3.160
    1MUSC H00WF33349   5.475   2.758   2.157
    1MUSC H00WG33350   5.687   3.126   2.544
    1MUSC H00WH33351   5.961   4.116   3.548
    1MUSC H00WI33352   5.567   4.484   1.153
    1MUSC H00WJ33353   5.919   4.116   0.150
    1MUSC H00WK33354   6.130   4.484   0.537
    1MUSC H00WL33355   6.221   3.663   3.548
    1MUSC H00WM33356   5.827   4.031   1.153
    1MUSC H00WN33357   5.658   3.663   0.150
    1MUSC H00WO33358   5.870   4.031   0.537
    1MUSC H00WP33359   5.778   4.116   1.541
    1MUSC H00WQ33360   5.384   4.484   3.160
    1MUSC H00WR33361   5.736   4.116   2.157
    1MUSC H00WS33362   5.947   4.484   2.544
    1MUSC H00WT33363   6.038   3.663   1.541
    1MUSC H00WU33364   5.644   4.031   3.160
    1MUSC H00WV33365   5.475   3.663   2.157
    1MUSC H00WW33366   5.687   4.031   2.544
    1MUSC H00WX33367   5.961   5.021   3.548
    1MUSC H00WY33368   5.567   5.389   1.153
    1MUSC H00WZ33369   5.919   5.021   0.150
    1MUSC H00Wa33370   6.130   5.389   0.537
    1MUSC H00Wb33371   6.221   4.569   3.548
    1MUSC H00Wc33372   5.827   4.937   1.153
    1MUSC H00Wd33373   5.658   4.569   0.150
    1MUSC H00We33374   5.870   4.937   0.537
    1MUSC H00Wf33375   5.778   5.021   1.541
    1MUSC H00Wg33376   5.384   5.389   3.160
    1MUSC H00Wh33377   5.736   5.021   2.157
    1MUSC H00Wi33378   5.947   5.389   2.544
    1MUSC H00Wj33379   6.038   4.569   1.541
    1MUSC H00Wk33380   5.644   4.937   3.160
    1MUSC H00Wl33381   5.475   4.569   2.157
    1MUSC H00Wm33382   5.687   4.937   2.544
    1MUSC H00Wn33383   5.961   5.927   3.548
    1MUSC H00Wo33384   5.567   6.295   1.153
    1MUSC H00Wp33385   5.919   5.927   0.150
    1MUSC H00Wq33386   6.130   6.295   0.537
    1MUSC H00Wr33387   6.221   5.474   3.548
    1MUSC H00Ws33388   5.827   5.842   1.153
    1MUSC H00Wt33389   5.658   5.474   0.150
    1MUSC H00Wu33390   5.870   5.842   0.537
    1MUSC H00Wv33391   5.778   5.927   1.541
    1MUSC H00Ww33392   5.384   6.295   3.160
    1MUSC H00Wx33393   5.736   5.927   2.157
    1MUSC H00Wy33394   5.947   6.295   2.544
    1MUSC H00Wz33395   6.038   5.474   1.541
    1MUSC H00X033396   5.644   5.842   3.160
    1MUSC H00X133397   5.475   5.474   2.157
    1MUSC H00X233398   5.687   5.842   2.544
    1MUSC H00X333399   5.961   6.832   3.548
    1MUSC H00X433400   5.567   7.200   1.153
    1MUSC H00X533401   5.919   6.832   0.150
    1MUSC H00X633402   6.130   7.200   0.537
    1MUSC H00X733403   6.221   6.379   3.548
    1MUSC H00X833404   5.827   6.747   1.153
    1MUSC H00X933405   5.658   6.379   0.150
    1MUSC H00XA33406   5.870   6.747   0.537
    1MUSC H00XB33407   5.778   6.832   1.541
    1MUSC H00XC33408   5.384   7.200   3.160
    1MUSC H00XD33409   5.736   6.832   2.157
    1MUSC H00XE33410   5.947   7.200   2.544
    1MUSC H00XF33411   6.038   6.379   1.541
    1MUSC H00XG33412   5.644   6.747   3.160
    1MUSC H00XH33413   5.475   6.379   2.157
    1MUSC H00XI33414   5.687   6.747   2.544
    1MUSC H00XJ33415   5.961   7.737   3.548
    1MUSC H00XK33416   5.567   8.105   1.153
    1MUSC H00XL33417   5.919   7.737   0.150
    1MUSC H00XM33418   6.130   8.105   0.537
    1MUSC H00XN33419   6.221   7.284   3.548
    1MUSC H00XO33420   5.827   7.653   1.153
    1MUSC H00XP33421   5.658   7.284   0.150
    1MUSC H00XQ33422   5.870   7.653   0.537
    1MUSC H00XR33423   5.778   7.737   1.541
    1MUSC H00XS33424   5.384   8.105   3.160
    1MUSC H00XT33425   5.736   7.737   2.157
    1MUSC H00XU33426   5.947   8.105   2.544
    1MUSC H00XV33427   6.038   7.284   1.541
    1MUSC H00XW33428   5.644   7.653   3.160
    1MUSC H00XX33429   5.475   7.284   2.157
    1MUSC H00XY33430   5.687   7.653   2.544
    1MUSC H00XZ33431   5.961   8.642   3.548
    1MUSC H00Xa33432   5.567   9.010   1.153
    1MUSC H00Xb33433   5.919   8.642   0.150
    1MUSC H00Xc33434   6.130   9.010   0.537
    1MUSC H00Xd33435   6.221   8.190   3.548
    1MUSC H00Xe33436   5.827   8.558   1.153
    1MUSC H00Xf33437   5.658   8.190   0.150
    1MUSC H00Xg33438   5.870   8.558   0.537
    1MUSC H00Xh33439   5.778   8.642   1.541
    1MUSC H00Xi33440   5.384   9.010   3.160
    1MUSC H00Xj33441   5.736   8.642   2.157
    1MUSC H00Xk33442   5.947   9.010   2.544
    1MUSC H00Xl33443   6.038   8.190   1.541
    1MUSC H00Xm33444   5.644   8.558   3.160
    1MUSC H00Xn33445   5.475   8.190   2.157
    1MUSC H00Xo33446   5.687   8.558   2.544
    1MUSC H00Xp33447   5.961   9.548   3.548
    1MUSC H00Xq33448   5.567   9.916   1.153
    1MUSC H00Xr33449   5.919   9.548   0.150
    1MUSC H00Xs33450   6.130   9.916   0.537
    1MUSC H00Xt33451   6.221   9.095   3.548
    1MUSC H00Xu33452   5.827   9.463   1.153
    1MUSC H00Xv33453   5.658   9.095   0.150
    1MUSC H00Xw33454   5.870   9.463   0.537
    1MUSC H00Xx33455   5.778   9.548   1.541
    1MUSC H00Xy33456   5.384   9.916   3.160
    1MUSC H00Xz33457   5.736   9.548   2.157
    1MUSC H00Y033458   5.947   9.916   2.544
    1MUSC H00Y133459   6.038   9.095   1.541
    1MUSC H00Y233460   5.644   9.463   3.160
    1MUSC H00Y333461   5.475   9.095   2.157
    1MUSC H00Y433462   5.687   9.463   2.544
    1MUSC H00Y533463   6.482   0.495   3.548
    1MUSC H00Y633464   6.087   0.863   1.153
    1MUSC H00Y733465   6.439   0.495   0.150
    1MUSC H00Y833466   6.650   0.863   0.537
    1MUSC H00Y933467   6.742   0.042   3.548
    1MUSC H00YA33468   6.348   0.410   1.153
    1MUSC H00YB33469   6.179   0.042   0.150
    1MUSC H00YC33470   6.390   0.410   0.537
    1MUSC H00YD33471   6.299   0.495   1.541
    1MUSC H00YE33472   5.904   0.863   3.160
    1MUSC H00YF33473   6.256   0.495   2.157
    1MUSC H00YG33474   6.467   0.863   2.544
    1MUSC H00YH33475   6.559   0.042   1.541
    1MUSC H00YI33476   6.165   0.410   3.160
    1MUSC H00YJ33477   5.996   0.042   2.157
    1MUSC H00YK33478   6.207   0.410   2.544
    1MUSC H00YL33479   6.482   1.400   3.548
    1MUSC H00YM33480   6.087   1.768   1.153
    1MUSC H00YN33481   6.439   1.400   0.150
    1MUSC H00YO33482   6.650   1.768   0.537
    1MUSC H00YP33483   6.742   0.948   3.548
    1MUSC H00YQ33484   6.348   1.316   1.153
    1MUSC H00YR33485   6.179   0.948   0.150
    1MUSC H00YS33486   6.390   1.316   0.537
    1MUSC H00YT33487   6.299   1.400   1.541
    1MUSC H00YU33488   5.904   1.768   3.160
    1MUSC H00YV33489   6.256   1.400   2.157
    1MUSC H00YW33490   6.467   1.768   2.544
    1MUSC H00YX33491   6.559   0.948   1.541
    1MUSC H00YY33492   6.165   1.316   3.160
    1MUSC H00YZ33493   5.996   0.948   2.157
    1MUSC H00Ya33494   6.207   1.316   2.544
    1MUSC H00Yb33495   6.482   2.305   3.548
    1MUSC H00Yc33496   6.087   2.674   1.153
    1MUSC H00Yd33497   6.439   2.305   0.150
    1MUSC H00Ye33498   6.650   2.674   0.537
    1MUSC H00Yf33499   6.742   1.853   3.548
    1MUSC H00Yg33500   6.348   2.221   1.153
    1MUSC H00Yh33501   6.179   1.853   0.150
    1MUSC H00Yi33502   6.390   2.221   0.537
    1MUSC H00Yj33503   6.299   2.305   1.541
    1MUSC H00Yk33504   5.904   2.674   3.160
    1MUSC H00Yl33505   6.256   2.305   2.157
    1MUSC H00Ym33506   6.467   2.674   2.544
    1MUSC H00Yn33507   6.559   1.853   1.541
    1MUSC H00Yo33508   6.165   2.221   3.160
    1MUSC H00Yp33509   5.996   1.853   2.157
    1MUSC H00Yq33510   6.207   2.221   2.544
    1MUSC H00Yr33511   6.482   3.211   3.548
    1MUSC H00Ys33512   6.087   3.579   1.153
    1MUSC H00Yt33513   6.439   3.211   0.150
    1MUSC H00Yu33514   6.650   3.579   0.537
    1MUSC H00Yv33515   6.742   2.758   3.548
    1MUSC H00Yw33516   6.348   3.126   1.153
    1MUSC H00Yx33517   6.179   2.758   0.150
    1MUSC H00Yy33518   6.390   3.126   0.537
    1MUSC H00Yz33519   6.299   3.211   1.541
    1MUSC H00Z033520   5.904   3.579   3.160
    1MUSC H00Z133521   6.256   3.211   2.157
    1MUSC H00Z233522   6.467   3.579   2.544
    1MUSC H00Z333523   6.559   2.758   1.541
    1MUSC H00Z433524   6.165   3.126   3.160
    1MUSC H00Z533525   5.996   2.758   2.157
    1MUSC H00Z633526   6.207   3.126   2.544
    1MUSC H00Z733527   6.482   4.116   3.548
    1MUSC H00Z833528   6.087   4.484   1.153
    1MUSC H00Z933529   6.439   4.116   0.150
    1MUSC H00ZA33530   6.650   4.484   0.537
    1MUSC H00ZB33531   6.742   3.663   3.548
    1MUSC H00ZC33532   6.348   4.031   1.153
    1MUSC H00ZD33533   6.179   3.663   0.150
    1MUSC H00ZE33534   6.390   4.031   0.537
    1MUSC H00ZF33535   6.299   4.116   1.541
    1MUSC H00ZG33536   5.904   4.484   3.160
    1MUSC H00ZH33537   6.256   4.116   2.157
    1MUSC H00ZI33538   6.467   4.484   2.544
    1MUSC H00ZJ33539   6.559   3.663   1.541
    1MUSC H00ZK33540   6.165   4.031   3.160
    1MUSC H00ZL33541   5.996   3.663   2.157
    1MUSC H00ZM33542   6.207   4.031   2.544
    1MUSC H00ZN33543   6.482   5.021   3.548
    1MUSC H00ZO33544   6.087   5.389   1.153
    1MUSC H00ZP33545   6.439   5.021   0.150
    1MUSC H00ZQ33546   6.650   5.389   0.537
    1MUSC H00ZR33547   6.742   4.569   3.548
    1MUSC H00ZS33548   6.348   4.937   1.153
    1MUSC H00ZT33549   6.179   4.569   0.150
    1MUSC H00ZU33550   6.390   4.937   0.537
    1MUSC H00ZV33551   6.299   5.021   1.541
    1MUSC H00ZW33552   5.904   5.389   3.160
    1MUSC H00ZX33553   6.256   5.021   2.157
    1MUSC H00ZY33554   6.467   5.389   2.544
    1MUSC H00ZZ33555   6.559   4.569   1.541
    1MUSC H00Za33556   6.165   4.937   3.160
    1MUSC H00Zb33557   5.996   4.569   2.157
    1MUSC H00Zc33558   6.207   4.937   2.544
    1MUSC H00Zd33559   6.482   5.927   3.548
    1MUSC H00Ze33560   6.087   6.295   1.153
    1MUSC H00Zf33561   6.439   5.927   0.150
    1MUSC H00Zg33562   6.650   6.295   0.537
    1MUSC H00Zh33563   6.742   5.474   3.548
    1MUSC H00Zi33564   6.348   5.842   1.153
    1MUSC H00Zj33565   6.179   5.474   0.150
    1MUSC H00Zk33566   6.390   5.842   0.537
    1MUSC H00Zl33567   6.299   5.927   1.541
    1MUSC H00Zm33568   5.904   6.295   3.160
    1MUSC H00Zn33569   6.256   5.927   2.157
    1MUSC H00Zo33570   6.467   6.295   2.544
    1MUSC H00Zp33571   6.559   5.474   1.541
    1MUSC H00Zq33572   6.165   5.842   3.160
    1MUSC H00Zr33573   5.996   5.474   2.157
    1MUSC H00Zs33574   6.207   5.842   2.544
    1MUSC H00Zt33575   6.482   6.832   3.548
    1MUSC H00Zu33576   6.087   7.200   1.153
    1MUSC H00Zv33577   6.439   6.832   0.150
    1MUSC H00Zw33578   6.650   7.200   0.537
    1MUSC H00Zx33579   6.742   6.379   3.548
    1MUSC H00Zy33580   6.348   6.747   1.153
    1MUSC H00Zz33581   6.179   6.379   0.150
    1MUSC H00a033582   6.390   6.747   0.537
    1MUSC H00a133583   6.299   6.832   1.541
    1MUSC H00a233584   5.904   7.200   3.160
    1MUSC H00a333585   6.256   6.832   2.157
    1MUSC H00a433586   6.467   7.200   2.544
    1MUSC H00a533587   6.559   6.379   1.541
    1MUSC H00a633588   6.165   6.747   3.160
    1MUSC H00a733589   5.996   6.379   2.157
    1MUSC H00a833590   6.207   6.747   2.544
    1MUSC H00a933591   6.482   7.737   3.548
    1MUSC H00aA33592   6.087   8.105   1.153
    1MUSC H00aB33593   6.439   7.737   0.150
    1MUSC H00aC33594   6.650   8.105   0.537
    1MUSC H00aD33595   6.742   7.284   3.548
    1MUSC H00aE33596   6.348   7.653   1.153
    1MUSC H00aF33597   6.179   7.284   0.150
    1MUSC H00aG33598   6.390   7.653   0.537
    1MUSC H00aH33599   6.299   7.737   1.541
    1MUSC H00aI33600   5.904   8.105   3.160
    1MUSC H00aJ33601   6.256   7.737   2.157
    1MUSC H00aK33602   6.467   8.105   2.544
    1MUSC H00aL33603   6.559   7.284   1.541
    1MUSC H00aM33604   6.165   7.653   3.160
    1MUSC H00aN33605   5.996   7.284   2.157
    1MUSC H00aO33606   6.207   7.653   2.544
    1MUSC H00aP33607   6.482   8.642   3.548
    1MUSC H00aQ33608   6.087   9.010   1.153
    1MUSC H00aR33609   6.439   8.642   0.150
    1MUSC H00aS33610   6.650   9.010   0.537
    1MUSC H00aT33611   6.742   8.190   3.548
    1MUSC H00aU33612   6.348   8.558   1.153
    1MUSC H00aV33613   6.179   8.190   0.150
    1MUSC H00aW33614   6.390   8.558   0.537
    1MUSC H00aX33615   6.299   8.642   1.541
    1MUSC H00aY33616   5.904   9.010   3.160
    1MUSC H00aZ33617   6.256   8.642   2.157
    1MUSC H00aa33618   6.467   9.010   2.544
    1MUSC H00ab33619   6.559   8.190   1.541
    1MUSC H00ac33620   6.165   8.558   3.160
    1MUSC H00ad33621   5.996   8.190   2.157
    1MUSC H00ae33622   6.207   8.558   2.544
    1MUSC H00af33623   6.482   9.548   3.548
    1MUSC H00ag33624   6.087   9.916   1.153
    1MUSC H00ah33625   6.439   9.548   0.150
    1MUSC H00ai33626   6.650   9.916   0.537
    1MUSC H00aj33627   6.742   9.095   3.548
    1MUSC H00ak33628   6.348   9.463   1.153
    1MUSC H00al33629   6.179   9.095   0.150
    1MUSC H00am33630   6.390   9.463   0.537
    1MUSC H00an33631   6.299   9.548   1.541
    1MUSC H00ao33632   5.904   9.916   3.160
    1MUSC H00ap33633   6.256   9.548   2.157
    1MUSC H00aq33634   6.467   9.916   2.544
    1MUSC H00ar33635   6.559   9.095   1.541
    1MUSC H00as33636   6.165   9.463   3.160
    1MUSC H00at33637   5.996   9.095   2.157
    1MUSC H00au33638   6.207   9.463   2.544
    1MUSC H00av33639   7.002   0.495   3.548
    1MUSC H00aw33640   6.608   0.863   1.153
    1MUSC H00ax33641   6.960   0.495   0.150
    1MUSC H00ay33642   7.171   0.863   0.537
    1MUSC H00az33643   7.262   0.042   3.548
    1MUSC H00b033644   6.868   0.410   1.153
    1MUSC H00b133645   6.699   0.042   0.150
    1MUSC H00b233646   6.911   0.410   0.537
    1MUSC H00b333647   6.819   0.495   1.541
    1MUSC H00b433648   6.425   0.863   3.160
    1MUSC H00b533649   6.777   0.495   2.157
    1MUSC H00b633650   6.988   0.863   2.544
    1MUSC H00b733651   7.079   0.042   1.541
    1MUSC H00b833652   6.685   0.410   3.160
    1MUSC H00b933653   6.516   0.042   2.157
    1MUSC H00bA33654   6.728   0.410   2.544
    1MUSC H00bB33655   7.002   1.400   3.548
    1MUSC H00bC33656   6.608   1.768   1.153
    1MUSC H00bD33657   6.960   1.400   0.150
    1MUSC H00bE33658   7.171   1.768   0.537
    1MUSC H00bF33659   7.262   0.948   3.548
    1MUSC H00bG33660   6.868   1.316   1.153
    1MUSC H00bH33661   6.699   0.948   0.150
    1MUSC H00bI33662   6.911   1.316   0.537
    1MUSC H00bJ33663   6.819   1.400   1.541
    1MUSC H00bK33664   6.425   1.768   3.160
    1MUSC H00bL33665   6.777   1.400   2.157
    1MUSC H00bM33666   6.988   1.768   2.544
    1MUSC H00bN33667   7.079   0.948   1.541
    1MUSC H00bO33668   6.685   1.316   3.160
    1MUSC H00bP33669   6.516   0.948   2.157
    1MUSC H00bQ33670   6.728   1.316   2.544
    1MUSC H00bR33671   7.002   2.305   3.548
    1MUSC H00bS33672   6.608   2.674   1.153
    1MUSC H00bT33673   6.960   2.305   0.150
    1MUSC H00bU33674   7.171   2.674   0.537
    1MUSC H00bV33675   7.262   1.853   3.548
    1MUSC H00bW33676   6.868   2.221   1.153
    1MUSC H00bX33677   6.699   1.853   0.150
    1MUSC H00bY33678   6.911   2.221   0.537
    1MUSC H00bZ33679   6.819   2.305   1.541
    1MUSC H00ba33680   6.425   2.674   3.160
    1MUSC H00bb33681   6.777   2.305   2.157
    1MUSC H00bc33682   6.988   2.674   2.544
    1MUSC H00bd33683   7.079   1.853   1.541
    1MUSC H00be33684   6.685   2.221   3.160
    1MUSC H00bf33685   6.516   1.853   2.157
    1MUSC H00bg33686   6.728   2.221   2.544
    1MUSC H00bh33687   7.002   3.211   3.548
    1MUSC H00bi33688   6.608   3.579   1.153
    1MUSC H00bj33689   6.960   3.211   0.150
    1MUSC H00bk33690   7.171   3.579   0.537
    1MUSC H00bl33691   7.262   2.758   3.548
    1MUSC H00bm33692   6.868   3.126   1.153
    1MUSC H00bn33693   6.699   2.758   0.150
    1MUSC H00bo33694   6.911   3.126   0.537
    1MUSC H00bp33695   6.819   3.211   1.541
    1MUSC H00bq33696   6.425   3.579   3.160
    1MUSC H00br33697   6.777   3.211   2.157
    1MUSC H00bs33698   6.988   3.579   2.544
    1MUSC H00bt33699   7.079   2.758   1.541
    1MUSC H00bu33700   6.685   3.126   3.160
    1MUSC H00bv33701   6.516   2.758   2.157
    1MUSC H00bw33702   6.728   3.126   2.544
    1MUSC H00bx33703   7.002   4.116   3.548
    1MUSC H00by33704   6.608   4.484   1.153
    1MUSC H00bz33705   6.960   4.116   0.150
    1MUSC H00c033706   7.171   4.484   0.537
    1MUSC H00c133707   7.262   3.663   3.548
    1MUSC H00c233708   6.868   4.031   1.153
    1MUSC H00c333709   6.699   3.663   0.150
    1MUSC H00c433710   6.911   4.031   0.537
    1MUSC H00c533711   6.819   4.116   1.541
    1MUSC H00c633712   6.425   4.484   3.160
    1MUSC H00c733713   6.777   4.116   2.157
    1MUSC H00c833714   6.988   4.484   2.544
    1MUSC H00c933715   7.079   3.663   1.541
    1MUSC H00cA33716   6.685   4.031   3.160
    1MUSC H00cB33717   6.516   3.663   2.157
    1MUSC H00cC33718   6.728   4.031   2.544
    1MUSC H00cD33719   7.002   5.021   3.548
    1MUSC H00cE33720   6.608   5.389   1.153
    1MUSC H00cF33721   6.960   5.021   0.150
    1MUSC H00cG33722   7.171   5.389   0.537
    1MUSC H00cH33723   7.262   4.569   3.548
    1MUSC H00cI33724   6.868   4.937   1.153
    1MUSC H00cJ33725   6.699   4.569   0.150
    1MUSC H00cK33726   6.911   4.937   0.537
    1MUSC H00cL33727   6.819   5.021   1.541
    1MUSC H00cM33728   6.425   5.389   3.160
    1MUSC H00cN33729   6.777   5.021   2.157
    1MUSC H00cO33730   6.988   5.389   2.544
    1MUSC H00cP33731   7.079   4.569   1.541
    1MUSC H00cQ33732   6.685   4.937   3.160
    1MUSC H00cR33733   6.516   4.569   2.157
    1MUSC H00cS33734   6.728   4.937   2.544
    1MUSC H00cT33735   7.002   5.927   3.548
    1MUSC H00cU33736   6.608   6.295   1.153
    1MUSC H00cV33737   6.960   5.927   0.150
    1MUSC H00cW33738   7.171   6.295   0.537
    1MUSC H00cX33739   7.262   5.474   3.548
    1MUSC H00cY33740   6.868   5.842   1.153
    1MUSC H00cZ33741   6.699   5.474   0.150
    1MUSC H00ca33742   6.911   5.842   0.537
    1MUSC H00cb33743   6.819   5.927   1.541
    1MUSC H00cc33744   6.425   6.295   3.160
    1MUSC H00cd33745   6.777   5.927   2.157
    1MUSC H00ce33746   6.988   6.295   2.544
    1MUSC H00cf33747   7.079   5.474   1.541
    1MUSC H00cg33748   6.685   5.842   3.160
    1MUSC H00ch33749   6.516   5.474   2.157
    1MUSC H00ci33750   6.728   5.842   2.544
    1MUSC H00cj33751   7.002   6.832   3.548
    1MUSC H00ck33752   6.608   7.200   1.153
    1MUSC H00cl33753   6.960   6.832   0.150
    1MUSC H00cm33754   7.171   7.200   0.537
    1MUSC H00cn33755   7.262   6.379   3.548
    1MUSC H00co33756   6.868   6.747   1.153
    1MUSC H00cp33757   6.699   6.379   0.150
    1MUSC H00cq33758   6.911   6.747   0.537
    1MUSC H00cr33759   6.819   6.832   1.541
    1MUSC H00cs33760   6.425   7.200   3.160
    1MUSC H00ct33761   6.777   6.832   2.157
    1MUSC H00cu33762   6.988   7.200   2.544
    1MUSC H00cv33763   7.079   6.379   1.541
    1MUSC H00cw33764   6.685   6.747   3.160
    1MUSC H00cx33765   6.516   6.379   2.157
    1MUSC H00cy33766   6.728   6.747   2.544
    1MUSC H00cz33767   7.002   7.737   3.548
    1MUSC H00d033768   6.608   8.105   1.153
    1MUSC H00d133769   6.960   7.737   0.150
    1MUSC H00d233770   7.171   8.105   0.537
    1MUSC H00d333771   7.262   7.284   3.548
    1MUSC H00d433772   6.868   7.653   1.153
    1MUSC H00d533773   6.699   7.284   0.150
    1MUSC H00d633774   6.911   7.653   0.537
    1MUSC H00d733775   6.819   7.737   1.541
    1MUSC H00d833776   6.425   8.105   3.160
    1MUSC H00d933777   6.777   7.737   2.157
    1MUSC H00dA33778   6.988   8.105   2.544
    1MUSC H00dB33779   7.079   7.284   1.541
    1MUSC H00dC33780   6.685   7.653   3.160
    1MUSC H00dD33781   6.516   7.284   2.157
    1MUSC H00dE33782   6.728   7.653   2.544
    1MUSC H00dF33783   7.002   8.642   3.548
    1MUSC H00dG33784   6.608   9.010   1.153
    1MUSC H00dH33785   6.960   8.642   0.150
    1MUSC H00dI33786   7.171   9.010   0.537
    1MUSC H00dJ33787   7.262   8.190   3.548
    1MUSC H00dK33788   6.868   8.558   1.153
    1MUSC H00dL33789   6.699   8.190   0.150
    1MUSC H00dM33790   6.911   8.558   0.537
    1MUSC H00dN33791   6.819   8.642   1.541
    1MUSC H00dO33792   6.425   9.010   3.160
    1MUSC H00dP33793   6.777   8.642   2.157
    1MUSC H00dQ33794   6.988   9.010   2.544
    1MUSC H00dR33795   7.079   8.190   1.541
    1MUSC H00dS33796   6.685   8.558   3.160
    1MUSC H00dT33797   6.516   8.190   2.157
    1MUSC H00dU33798   6.728   8.558   2.544
    1MUSC H00dV33799   7.002   9.548   3.548
    1MUSC H00dW33800   6.608   9.916   1.153
    1MUSC H00dX33801   6.960   9.548   0.150
    1MUSC H00dY33802   7.171   9.916   0.537
    1MUSC H00dZ33803   7.262   9.095   3.548
    1MUSC H00da33804   6.868   9.463   1.153
    1MUSC H00db33805   6.699   9.095   0.150
    1MUSC H00dc33806   6.911   9.463   0.537
    1MUSC H00dd33807   6.819   9.548   1.541
    1MUSC H00de33808   6.425   9.916   3.160
    1MUSC H00df33809   6.777   9.548   2.157
    1MUSC H00dg33810   6.988   9.916   2.544
    1MUSC H00dh33811   7.079   9.095   1.541
    1MUSC H00di33812   6.685   9.463   3.160
    1MUSC H00dj33813   6.516   9.095   2.157
    1MUSC H00dk33814   6.728   9.463   2.544
    1MUSC H00dl33815   7.523   0.495   3.548
    1MUSC H00dm33816   7.128   0.863   1.153
    1MUSC H00dn33817   7.480   0.495   0.150
    1MUSC H00do33818   7.691   0.863   0.537
    1MUSC H00dp33819   7.783   0.042   3.548
    1MUSC H00dq33820   7.389   0.410   1.153
    1MUSC H00dr33821   7.220   0.042   0.150
    1MUSC H00ds33822   7.431   0.410   0.537
    1MUSC H00dt33823   7.340   0.495   1.541
    1MUSC H00du33824   6.945   0.863   3.160
    1MUSC H00dv33825   7.297   0.495   2.157
    1MUSC H00dw33826   7.508   0.863   2.544
    1MUSC H00dx33827   7.600   0.042   1.541
    1MUSC H00dy33828   7.206   0.410   3.160
    1MUSC H00dz33829   7.037   0.042   2.157
    1MUSC H00e033830   7.248   0.410   2.544
    1MUSC H00e133831   7.523   1.400   3.548
    1MUSC H00e233832   7.128   1.768   1.153
    1MUSC H00e333833   7.480   1.400   0.150
    1MUSC H00e433834   7.691   1.768   0.537
    1MUSC H00e533835   7.783   0.948   3.548
    1MUSC H00e633836   7.389   1.316   1.153
    1MUSC H00e733837   7.220   0.948   0.150
    1MUSC H00e833838   7.431   1.316   0.537
    1MUSC H00e933839   7.340   1.400   1.541
    1MUSC H00eA33840   6.945   1.768   3.160
    1MUSC H00eB33841   7.297   1.400   2.157
    1MUSC H00eC33842   7.508   1.768   2.544
    1MUSC H00eD33843   7.600   0.948   1.541
    1MUSC H00eE33844   7.206   1.316   3.160
    1MUSC H00eF33845   7.037   0.948   2.157
    1MUSC H00eG33846   7.248   1.316   2.544
    1MUSC H00eH33847   7.523   2.305   3.548
    1MUSC H00eI33848   7.128   2.674   1.153
    1MUSC H00eJ33849   7.480   2.305   0.150
    1MUSC H00eK33850   7.691   2.674   0.537
    1MUSC H00eL33851   7.783   1.853   3.548
    1MUSC H00eM33852   7.389   2.221   1.153
    1MUSC H00eN33853   7.220   1.853   0.150
    1MUSC H00eO33854   7.431   2.221   0.537
    1MUSC H00eP33855   7.340   2.305   1.541
    1MUSC H00eQ33856   6.945   2.674   3.160
    1MUSC H00eR33857   7.297   2.305   2.157
    1MUSC H00eS33858   7.508   2.674   2.544
    1MUSC H00eT33859   7.600   1.853   1.541
    1MUSC H00eU33860   7.206   2.221   3.160
    1MUSC H00eV33861   7.037   1.853   2.157
    1MUSC H00eW33862   7.248   2.221   2.544
    1MUSC H00eX33863   7.523   3.211   3.548
    1MUSC H00eY33864   7.128   3.579   1.153
    1MUSC H00eZ33865   7.480   3.211   0.150
    1MUSC H00ea33866   7.691   3.579   0.537
    1MUSC H00eb33867   7.783   2.758   3.548
    1MUSC H00ec33868   7.389   3.126   1.153
    1MUSC H00ed33869   7.220   2.758   0.150
    1MUSC H00ee33870   7.431   3.126   0.537
    1MUSC H00ef33871   7.340   3.211   1.541
    1MUSC H00eg33872   6.945   3.579   3.160
    1MUSC H00eh33873   7.297   3.211   2.157
    1MUSC H00ei33874   7.508   3.579   2.544
    1MUSC H00ej33875   7.600   2.758   1.541
    1MUSC H00ek33876   7.206   3.126   3.160
    1MUSC H00el33877   7.037   2.758   2.157
    1MUSC H00em33878   7.248   3.126   2.544
    1MUSC H00en33879   7.523   4.116   3.548
    1MUSC H00eo33880   7.128   4.484   1.153
    1MUSC H00ep33881   7.480   4.116   0.150
    1MUSC H00eq33882   7.691   4.484   0.537
    1MUSC H00er33883   7.783   3.663   3.548
    1MUSC H00es33884   7.389   4.031   1.153
    1MUSC H00et33885   7.220   3.663   0.150
    1MUSC H00eu33886   7.431   4.031   0.537
    1MUSC H00ev33887   7.340   4.116   1.541
    1MUSC H00ew33888   6.945   4.484   3.160
    1MUSC H00ex33889   7.297   4.116   2.157
    1MUSC H00ey33890   7.508   4.484   2.544
    1MUSC H00ez33891   7.600   3.663   1.541
    1MUSC H00f033892   7.206   4.031   3.160
    1MUSC H00f133893   7.037   3.663   2.157
    1MUSC H00f233894   7.248   4.031   2.544
    1MUSC H00f333895   7.523   5.021   3.548
    1MUSC H00f433896   7.128   5.389   1.153
    1MUSC H00f533897   7.480   5.021   0.150
    1MUSC H00f633898   7.691   5.389   0.537
    1MUSC H00f733899   7.783   4.569   3.548
    1MUSC H00f833900   7.389   4.937   1.153
    1MUSC H00f933901   7.220   4.569   0.150
    1MUSC H00fA33902   7.431   4.937   0.537
    1MUSC H00fB33903   7.340   5.021   1.541
    1MUSC H00fC33904   6.945   5.389   3.160
    1MUSC H00fD33905   7.297   5.021   2.157
    1MUSC H00fE33906   7.508   5.389   2.544
    1MUSC H00fF33907   7.600   4.569   1.541
    1MUSC H00fG33908   7.206   4.937   3.160
    1MUSC H00fH33909   7.037   4.569   2.157
    1MUSC H00fI33910   7.248   4.937   2.544
    1MUSC H00fJ33911   7.523   5.927   3.548
    1MUSC H00fK33912   7.128   6.295   1.153
    1MUSC H00fL33913   7.480   5.927   0.150
    1MUSC H00fM33914   7.691   6.295   0.537
    1MUSC H00fN33915   7.783   5.474   3.548
    1MUSC H00fO33916   7.389   5.842   1.153
    1MUSC H00fP33917   7.220   5.474   0.150
    1MUSC H00fQ33918   7.431   5.842   0.537
    1MUSC H00fR33919   7.340   5.927   1.541
    1MUSC H00fS33920   6.945   6.295   3.160
    1MUSC H00fT33921   7.297   5.927   2.157
    1MUSC H00fU33922   7.508   6.295   2.544
    1MUSC H00fV33923   7.600   5.474   1.541
    1MUSC H00fW33924   7.206   5.842   3.160
    1MUSC H00fX33925   7.037   5.474   2.157
    1MUSC H00fY33926   7.248   5.842   2.544
    1MUSC H00fZ33927   7.523   6.832   3.548
    1MUSC H00fa33928   7.128   7.200   1.153
    1MUSC H00fb33929   7.480   6.832   0.150
    1MUSC H00fc33930   7.691   7.200   0.537
    1MUSC H00fd33931   7.783   6.379   3.548
    1MUSC H00fe33932   7.389   6.747   1.153
    1MUSC H00ff33933   7.220   6.379   0.150
    1MUSC H00fg33934   7.431   6.747   0.537
    1MUSC H00fh33935   7.340   6.832   1.541
    1MUSC H00fi33936   6.945   7.200   3.160
    1MUSC H00fj33937   7.297   6.832   2.157
    1MUSC H00fk33938   7.508   7.200   2.544
    1MUSC H00fl33939   7.600   6.379   1.541
    1MUSC H00fm33940   7.206   6.747   3.160
    1MUSC H00fn33941   7.037   6.379   2.157
    1MUSC H00fo33942   7.248   6.747   2.544
    1MUSC H00fp33943   7.523   7.737   3.548
    1MUSC H00fq33944   7.128   8.105   1.153
    1MUSC H00fr33945   7.480   7.737   0.150
    1MUSC H00fs33946   7.691   8.105   0.537
    1MUSC H00ft33947   7.783   7.284   3.548
    1MUSC H00fu33948   7.389   7.653   1.153
    1MUSC H00fv33949   7.220   7.284   0.150
    1MUSC H00fw33950   7.431   7.653   0.537
    1MUSC H00fx33951   7.340   7.737   1.541
    1MUSC H00fy33952   6.945   8.105   3.160
    1MUSC H00fz33953   7.297   7.737   2.157
    1MUSC H00g033954   7.508   8.105   2.544
    1MUSC H00g133955   7.600   7.284   1.541
    1MUSC H00g233956   7.206   7.653   3.160
    1MUSC H00g333957   7.037   7.284   2.157
    1MUSC H00g433958   7.248   7.653   2.544
    1MUSC H00g533959   7.523   8.642   3.548
    1MUSC H00g633960   7.128   9.010   1.153
    1MUSC H00g733961   7.480   8.642   0.150
    1MUSC H00g833962   7.691   9.010   0.537
    1MUSC H00g933963   7.783   8.190   3.548
    1MUSC H00gA33964   7.389   8.558   1.153
    1MUSC H00gB33965   7.220   8.190   0.150
    1MUSC H00gC33966   7.431   8.558   0.537
    1MUSC H00gD33967   7.340   8.642   1.541
    1MUSC H00gE33968   6.945   9.010   3.160
    1MUSC H00gF33969   7.297   8.642   2.157
    1MUSC H00gG33970   7.508   9.010   2.544
    1MUSC H00gH33971   7.600   8.190   1.541
    1MUSC H00gI33972   7.206   8.558   3.160
    1MUSC H00gJ33973   7.037   8.190   2.157
    1MUSC H00gK33974   7.248   8.558   2.544
    1MUSC H00gL33975   7.523   9.548   3.548
    1MUSC H00gM33976   7.128   9.916   1.153
    1MUSC H00gN33977   7.480   9.548   0.150
    1MUSC H00gO33978   7.691   9.916   0.537
    1MUSC H00gP33979   7.783   9.095   3.548
    1MUSC H00gQ33980   7.389   9.463   1.153
    1MUSC H00gR33981   7.220   9.095   0.150
    1MUSC H00gS33982   7.431   9.463   0.537
    1MUSC H00gT33983   7.340   9.548   1.541
    1MUSC H00gU33984   6.945   9.916   3.160
    1MUSC H00gV33985   7.297   9.548   2.157
    1MUSC H00gW33986   7.508   9.916   2.544
    1MUSC H00gX33987   7.600   9.095   1.541
    1MUSC H00gY33988   7.206   9.463   3.160
    1MUSC H00gZ33989   7.037   9.095   2.157
    1MUSC H00ga33990   7.248   9.463   2.544
    1MUSC H00gb33991   8.043   0.495   3.548
    1MUSC H00gc33992   7.649   0.863   1.153
    1MUSC H00gd33993   8.001   0.495   0.150
    1MUSC H00ge33994   8.212   0.863   0.537
    1MUSC H00gf33995   8.303   0.042   3.548
    1MUSC H00gg33996   7.909   0.410   1.153
    1MUSC H00gh33997   7.740   0.042   0.150
    1MUSC H00gi33998   7.952   0.410   0.537
    1MUSC H00gj33999   7.860   0.495   1.541
    1MUSC H00gk34000   7.466   0.863   3.160
    1MUSC H00gl34001   7.818   0.495   2.157
    1MUSC H00gm34002   8.029   0.863   2.544
    1MUSC H00gn34003   8.120   0.042   1.541
    1MUSC H00go34004   7.726   0.410   3.160
    1MUSC H00gp34005   7.557   0.042   2.157
    1MUSC H00gq34006   7.769   0.410   2.544
    1MUSC H00gr34007   8.043   1.400   3.548
    1MUSC H00gs34008   7.649   1.768   1.153
    1MUSC H00gt34009   8.001   1.400   0.150
    1MUSC H00gu34010   8.212   1.768   0.537
    1MUSC H00gv34011   8.303   0.948   3.548
    1MUSC H00gw34012   7.909   1.316   1.153
    1MUSC H00gx34013   7.740   0.948   0.150
    1MUSC H00gy34014   7.952   1.316   0.537
    1MUSC H00gz34015   7.860   1.400   1.541
    1MUSC H00h034016   7.466   1.768   3.160
    1MUSC H00h134017   7.818   1.400   2.157
    1MUSC H00h234018   8.029   1.768   2.544
    1MUSC H00h334019   8.120   0.948   1.541
    1MUSC H00h434020   7.726   1.316   3.160
    1MUSC H00h534021   7.557   0.948   2.157
    1MUSC H00h634022   7.769   1.316   2.544
    1MUSC H00h734023   8.043   2.305   3.548
    1MUSC H00h834024   7.649   2.674   1.153
    1MUSC H00h934025   8.001   2.305   0.150
    1MUSC H00hA34026   8.212   2.674   0.537
    1MUSC H00hB34027   8.303   1.853   3.548
    1MUSC H00hC34028   7.909   2.221   1.153
    1MUSC H00hD34029   7.740   1.853   0.150
    1MUSC H00hE34030   7.952   2.221   0.537
    1MUSC H00hF34031   7.860   2.305   1.541
    1MUSC H00hG34032   7.466   2.674   3.160
    1MUSC H00hH34033   7.818   2.305   2.157
    1MUSC H00hI34034   8.029   2.674   2.544
    1MUSC H00hJ34035   8.120   1.853   1.541
    1MUSC H00hK34036   7.726   2.221   3.160
    1MUSC H00hL34037   7.557   1.853   2.157
    1MUSC H00hM34038   7.769   2.221   2.544
    1MUSC H00hN34039   8.043   3.211   3.548
    1MUSC H00hO34040   7.649   3.579   1.153
    1MUSC H00hP34041   8.001   3.211   0.150
    1MUSC H00hQ34042   8.212   3.579   0.537
    1MUSC H00hR34043   8.303   2.758   3.548
    1MUSC H00hS34044   7.909   3.126   1.153
    1MUSC H00hT34045   7.740   2.758   0.150
    1MUSC H00hU34046   7.952   3.126   0.537
    1MUSC H00hV34047   7.860   3.211   1.541
    1MUSC H00hW34048   7.466   3.579   3.160
    1MUSC H00hX34049   7.818   3.211   2.157
    1MUSC H00hY34050   8.029   3.579   2.544
    1MUSC H00hZ34051   8.120   2.758   1.541
    1MUSC H00ha34052   7.726   3.126   3.160
    1MUSC H00hb34053   7.557   2.758   2.157
    1MUSC H00hc34054   7.769   3.126   2.544
    1MUSC H00hd34055   8.043   4.116   3.548
    1MUSC H00he34056   7.649   4.484   1.153
    1MUSC H00hf34057   8.001   4.116   0.150
    1MUSC H00hg34058   8.212   4.484   0.537
    1MUSC H00hh34059   8.303   3.663   3.548
    1MUSC H00hi34060   7.909   4.031   1.153
    1MUSC H00hj34061   7.740   3.663   0.150
    1MUSC H00hk34062   7.952   4.031   0.537
    1MUSC H00hl34063   7.860   4.116   1.541
    1MUSC H00hm34064   7.466   4.484   3.160
    1MUSC H00hn34065   7.818   4.116   2.157
    1MUSC H00ho34066   8.029   4.484   2.544
    1MUSC H00hp34067   8.120   3.663   1.541
    1MUSC H00hq34068   7.726   4.031   3.160
    1MUSC H00hr34069   7.557   3.663   2.157
    1MUSC H00hs34070   7.769   4.031   2.544
    1MUSC H00ht34071   8.043   5.021   3.548
    1MUSC H00hu34072   7.649   5.389   1.153
    1MUSC H00hv34073   8.001   5.021   0.150
    1MUSC H00hw34074   8.212   5.389   0.537
    1MUSC H00hx34075   8.303   4.569   3.548
    1MUSC H00hy34076   7.909   4.937   1.153
    1MUSC H00hz34077   7.740   4.569   0.150
    1MUSC H00i034078   7.952   4.937   0.537
    1MUSC H00i134079   7.860   5.021   1.541
    1MUSC H00i234080   7.466   5.389   3.160
    1MUSC H00i334081   7.818   5.021   2.157
    1MUSC H00i434082   8.029   5.389   2.544
    1MUSC H00i534083   8.120   4.569   1.541
    1MUSC H00i634084   7.726   4.937   3.160
    1MUSC H00i734085   7.557   4.569   2.157
    1MUSC H00i834086   7.769   4.937   2.544
    1MUSC H00i934087   8.043   5.927   3.548
    1MUSC H00iA34088   7.649   6.295   1.153
    1MUSC H00iB34089   8.001   5.927   0.150
    1MUSC H00iC34090   8.212   6.295   0.537
    1MUSC H00iD34091   8.303   5.474   3.548
    1MUSC H00iE34092   7.909   5.842   1.153
    1MUSC H00iF34093   7.740   5.474   0.150
    1MUSC H00iG34094   7.952   5.842   0.537
    1MUSC H00iH34095   7.860   5.927   1.541
    1MUSC H00iI34096   7.466   6.295   3.160
    1MUSC H00iJ34097   7.818   5.927   2.157
    1MUSC H00iK34098   8.029   6.295   2.544
    1MUSC H00iL34099   8.120   5.474   1.541
    1MUSC H00iM34100   7.726   5.842   3.160
    1MUSC H00iN34101   7.557   5.474   2.157
    1MUSC H00iO34102   7.769   5.842   2.544
    1MUSC H00iP34103   8.043   6.832   3.548
    1MUSC H00iQ34104   7.649   7.200   1.153
    1MUSC H00iR34105   8.001   6.832   0.150
    1MUSC H00iS34106   8.212   7.200   0.537
    1MUSC H00iT34107   8.303   6.379   3.548
    1MUSC H00iU34108   7.909   6.747   1.153
    1MUSC H00iV34109   7.740   6.379   0.150
    1MUSC H00iW34110   7.952   6.747   0.537
    1MUSC H00iX34111   7.860   6.832   1.541
    1MUSC H00iY34112   7.466   7.200   3.160
    1MUSC H00iZ34113   7.818   6.832   2.157
    1MUSC H00ia34114   8.029   7.200   2.544
    1MUSC H00ib34115   8.120   6.379   1.541
    1MUSC H00ic34116   7.726   6.747   3.160
    1MUSC H00id34117   7.557   6.379   2.157
    1MUSC H00ie34118   7.769   6.747   2.544
    1MUSC H00if34119   8.043   7.737   3.548
    1MUSC H00ig34120   7.649   8.105   1.153
    1MUSC H00ih34121   8.001   7.737   0.150
    1MUSC H00ii34122   8.212   8.105   0.537
    1MUSC H00ij34123   8.303   7.284   3.548
    1MUSC H00ik34124   7.909   7.653   1.153
    1MUSC H00il34125   7.740   7.284   0.150
    1MUSC H00im34126   7.952   7.653   0.537
    1MUSC H00in34127   7.860   7.737   1.541
    1MUSC H00io34128   7.466   8.105   3.160
    1MUSC H00ip34129   7.818   7.737   2.157
    1MUSC H00iq34130   8.029   8.105   2.544
    1MUSC H00ir34131   8.120   7.284   1.541
    1MUSC H00is34132   7.726   7.653   3.160
    1MUSC H00it34133   7.557   7.284   2.157
    1MUSC H00iu34134   7.769   7.653   2.544
    1MUSC H00iv34135   8.043   8.642   3.548
    1MUSC H00iw34136   7.649   9.010   1.153
    1MUSC H00ix34137   8.001   8.642   0.150
    1MUSC H00iy34138   8.212   9.010   0.537
    1MUSC H00iz34139   8.303   8.190   3.548
    1MUSC H00j034140   7.909   8.558   1.153
    1MUSC H00j134141   7.740   8.190   0.150
    1MUSC H00j234142   7.952   8.558   0.537
    1MUSC H00j334143   7.860   8.642   1.541
    1MUSC H00j434144   7.466   9.010   3.160
    1MUSC H00j534145   7.818   8.642   2.157
    1MUSC H00j634146   8.029   9.010   2.544
    1MUSC H00j734147   8.120   8.190   1.541
    1MUSC H00j834148   7.726   8.558   3.160
    1MUSC H00j934149   7.557   8.190   2.157
    1MUSC H00jA34150   7.769   8.558   2.544
    1MUSC H00jB34151   8.043   9.548   3.548
    1MUSC H00jC34152   7.649   9.916   1.153
    1MUSC H00jD34153   8.001   9.548   0.150
    1MUSC H00jE34154   8.212   9.916   0.537
    1MUSC H00jF34155   8.303   9.095   3.548
    1MUSC H00jG34156   7.909   9.463   1.153
    1MUSC H00jH34157   7.740   9.095   0.150
    1MUSC H00jI34158   7.952   9.463   0.537
    1MUSC H00jJ34159   7.860   9.548   1.541
    1MUSC H00jK34160   7.466   9.916   3.160
    1MUSC H00jL34161   7.818   9.548   2.157
    1MUSC H00jM34162   8.029   9.916   2.544
    1MUSC H00jN34163   8.120   9.095   1.541
    1MUSC H00jO34164   7.726   9.463   3.160
    1MUSC H00jP34165   7.557   9.095   2.157
    1MUSC H00jQ34166   7.769   9.463   2.544
    1MUSC H00jR34167   8.564   0.495   3.548
    1MUSC H00jS34168   8.169   0.863   1.153
    1MUSC H00jT34169   8.521   0.495   0.150
    1MUSC H00jU34170   8.732   0.863   0.537
    1MUSC H00jV34171   8.824   0.042   3.548
    1MUSC H00jW34172   8.430   0.410   1.153
    1MUSC H00jX34173   8.261   0.042   0.150
    1MUSC H00jY34174   8.472   0.410   0.537
    1MUSC H00jZ34175   8.381   0.495   1.541
    1MUSC H00ja34176   7.986   0.863   3.160
    1MUSC H00jb34177   8.338   0.495   2.157
    1MUSC H00jc34178   8.549   0.863   2.544
    1MUSC H00jd34179   8.641   0.042   1.541
    1MUSC H00je34180   8.247   0.410   3.160
    1MUSC H00jf34181   8.078   0.042   2.157
    1MUSC H00jg34182   8.289   0.410   2.544
    1MUSC H00jh34183   8.564   1.400   3.548
    1MUSC H00ji34184   8.169   1.768   1.153
    1MUSC H00jj34185   8.521   1.400   0.150
    1MUSC H00jk34186   8.732   1.768   0.537
    1MUSC H00jl34187   8.824   0.948   3.548
    1MUSC H00jm34188   8.430   1.316   1.153
    1MUSC H00jn34189   8.261   0.948   0.150
    1MUSC H00jo34190   8.472   1.316   0.537
    1MUSC H00jp34191   8.381   1.400   1.541
    1MUSC H00jq34192   7.986   1.768   3.160
    1MUSC H00jr34193   8.338   1.400   2.157
    1MUSC H00js34194   8.549   1.768   2.544
    1MUSC H00jt34195   8.641   0.948   1.541
    1MUSC H00ju34196   8.247   1.316   3.160
    1MUSC H00jv34197   8.078   0.948   2.157
    1MUSC H00jw34198   8.289   1.316   2.544
    1MUSC H00jx34199   8.564   2.305   3.548
    1MUSC H00jy34200   8.169   2.674   1.153
    1MUSC H00jz34201   8.521   2.305   0.150
    1MUSC H00k034202   8.732   2.674   0.537
    1MUSC H00k134203   8.824   1.853   3.548
    1MUSC H00k234204   8.430   2.221   1.153
    1MUSC H00k334205   8.261   1.853   0.150
    1MUSC H00k434206   8.472   2.221   0.537
    1MUSC H00k534207   8.381   2.305   1.541
    1MUSC H00k634208   7.986   2.674   3.160
    1MUSC H00k734209   8.338   2.305   2.157
    1MUSC H00k834210   8.549   2.674   2.544
    1MUSC H00k934211   8.641   1.853   1.541
    1MUSC H00kA34212   8.247   2.221   3.160
    1MUSC H00kB34213   8.078   1.853   2.157
    1MUSC H00kC34214   8.289   2.221   2.544
    1MUSC H00kD34215   8.564   3.211   3.548
    1MUSC H00kE34216   8.169   3.579   1.153
    1MUSC H00kF34217   8.521   3.211   0.150
    1MUSC H00kG34218   8.732   3.579   0.537
    1MUSC H00kH34219   8.824   2.758   3.548
    1MUSC H00kI34220   8.430   3.126   1.153
    1MUSC H00kJ34221   8.261   2.758   0.150
    1MUSC H00kK34222   8.472   3.126   0.537
    1MUSC H00kL34223   8.381   3.211   1.541
    1MUSC H00kM34224   7.986   3.579   3.160
    1MUSC H00kN34225   8.338   3.211   2.157
    1MUSC H00kO34226   8.549   3.579   2.544
    1MUSC H00kP34227   8.641   2.758   1.541
    1MUSC H00kQ34228   8.247   3.126   3.160
    1MUSC H00kR34229   8.078   2.758   2.157
    1MUSC H00kS34230   8.289   3.126   2.544
    1MUSC H00kT34231   8.564   4.116   3.548
    1MUSC H00kU34232   8.169   4.484   1.153
    1MUSC H00kV34233   8.521   4.116   0.150
    1MUSC H00kW34234   8.732   4.484   0.537
    1MUSC H00kX34235   8.824   3.663   3.548
    1MUSC H00kY34236   8.430   4.031   1.153
    1MUSC H00kZ34237   8.261   3.663   0.150
    1MUSC H00ka34238   8.472   4.031   0.537
    1MUSC H00kb34239   8.381   4.116   1.541
    1MUSC H00kc34240   7.986   4.484   3.160
    1MUSC H00kd34241   8.338   4.116   2.157
    1MUSC H00ke34242   8.549   4.484   2.544
    1MUSC H00kf34243   8.641   3.663   1.541
    1MUSC H00kg34244   8.247   4.031   3.160
    1MUSC H00kh34245   8.078   3.663   2.157
    1MUSC H00ki34246   8.289   4.031   2.544
    1MUSC H00kj34247   8.564   5.021   3.548
    1MUSC H00kk34248   8.169   5.389   1.153
    1MUSC H00kl34249   8.521   5.021   0.150
    1MUSC H00km34250   8.732   5.389   0.537
    1MUSC H00kn34251   8.824   4.569   3.548
    1MUSC H00ko34252   8.430   4.937   1.153
    1MUSC H00kp34253   8.261   4.569   0.150
    1MUSC H00kq34254   8.472   4.937   0.537
    1MUSC H00kr34255   8.381   5.021   1.541
    1MUSC H00ks34256   7.986   5.389   3.160
    1MUSC H00kt34257   8.338   5.021   2.157
    1MUSC H00ku34258   8.549   5.389   2.544
    1MUSC H00kv34259   8.641   4.569   1.541
    1MUSC H00kw34260   8.247   4.937   3.160
    1MUSC H00kx34261   8.078   4.569   2.157
    1MUSC H00ky34262   8.289   4.937   2.544
    1MUSC H00kz34263   8.564   5.927   3.548
    1MUSC H00l034264   8.169   6.295   1.153
    1MUSC H00l134265   8.521   5.927   0.150
    1MUSC H00l234266   8.732   6.295   0.537
    1MUSC H00l334267   8.824   5.474   3.548
    1MUSC H00l434268   8.430   5.842   1.153
    1MUSC H00l534269   8.261   5.474   0.150
    1MUSC H00l634270   8.472   5.842   0.537
    1MUSC H00l734271   8.381   5.927   1.541
    1MUSC H00l834272   7.986   6.295   3.160
    1MUSC H00l934273   8.338   5.927   2.157
    1MUSC H00lA34274   8.549   6.295   2.544
    1MUSC H00lB34275   8.641   5.474   1.541
    1MUSC H00lC34276   8.247   5.842   3.160
    1MUSC H00lD34277   8.078   5.474   2.157
    1MUSC H00lE34278   8.289   5.842   2.544
    1MUSC H00lF34279   8.564   6.832   3.548
    1MUSC H00lG34280   8.169   7.200   1.153
    1MUSC H00lH34281   8.521   6.832   0.150
    1MUSC H00lI34282   8.732   7.200   0.537
    1MUSC H00lJ34283   8.824   6.379   3.548
    1MUSC H00lK34284   8.430   6.747   1.153
    1MUSC H00lL34285   8.261   6.379   0.150
    1MUSC H00lM34286   8.472   6.747   0.537
    1MUSC H00lN34287   8.381   6.832   1.541
    1MUSC H00lO34288   7.986   7.200   3.160
    1MUSC H00lP34289   8.338   6.832   2.157
    1MUSC H00lQ34290   8.549   7.200   2.544
    1MUSC H00lR34291   8.641   6.379   1.541
    1MUSC H00lS34292   8.247   6.747   3.160
    1MUSC H00lT34293   8.078   6.379   2.157
    1MUSC H00lU34294   8.289   6.747   2.544
    1MUSC H00lV34295   8.564   7.737   3.548
    1MUSC H00lW34296   8.169   8.105   1.153
    1MUSC H00lX34297   8.521   7.737   0.150
    1MUSC H00lY34298   8.732   8.105   0.537
    1MUSC H00lZ34299   8.824   7.284   3.548
    1MUSC H00la34300   8.430   7.653   1.153
    1MUSC H00lb34301   8.261   7.284   0.150
    1MUSC H00lc34302   8.472   7.653   0.537
    1MUSC H00ld34303   8.381   7.737   1.541
    1MUSC H00le34304   7.986   8.105   3.160
    1MUSC H00lf34305   8.338   7.737   2.157
    1MUSC H00lg34306   8.549   8.105   2.544
    1MUSC H00lh34307   8.641   7.284   1.541
    1MUSC H00li34308   8.247   7.653   3.160
    1MUSC H00lj34309   8.078   7.284   2.157
    1MUSC H00lk34310   8.289   7.653   2.544
    1MUSC H00ll34311   8.564   8.642   3.548
    1MUSC H00lm34312   8.169   9.010   1.153
    1MUSC H00ln34313   8.521   8.642   0.150
    1MUSC H00lo34314   8.732   9.010   0.537
    1MUSC H00lp34315   8.824   8.190   3.548
    1MUSC H00lq34316   8.430   8.558   1.153
    1MUSC H00lr34317   8.261   8.190   0.150
    1MUSC H00ls34318   8.472   8.558   0.537
    1MUSC H00lt34319   8.381   8.642   1.541
    1MUSC H00lu34320   7.986   9.010   3.160
    1MUSC H00lv34321   8.338   8.642   2.157
    1MUSC H00lw34322   8.549   9.010   2.544
    1MUSC H00lx34323   8.641   8.190   1.541
    1MUSC H00ly34324   8.247   8.558   3.160
    1MUSC H00lz34325   8.078   8.190   2.157
    1MUSC H00m034326   8.289   8.558   2.544
    1MUSC H00m134327   8.564   9.548   3.548
    1MUSC H00m234328   8.169   9.916   1.153
    1MUSC H00m334329   8.521   9.548   0.150
    1MUSC H00m434330   8.732   9.916   0.537
    1MUSC H00m534331   8.824   9.095   3.548
    1MUSC H00m634332   8.430   9.463   1.153
    1MUSC H00m734333   8.261   9.095   0.150
    1MUSC H00m834334   8.472   9.463   0.537
    1MUSC H00m934335   8.381   9.548   1.541
    1MUSC H00mA34336   7.986   9.916   3.160
    1MUSC H00mB34337   8.338   9.548   2.157
    1MUSC H00mC34338   8.549   9.916   2.544
    1MUSC H00mD34339   8.641   9.095   1.541
    1MUSC H00mE34340   8.247   9.463   3.160
    1MUSC H00mF34341   8.078   9.095   2.157
    1MUSC H00mG34342   8.289   9.463   2.544
    1MUSC H00mH34343   9.084   0.495   3.548
    1MUSC H00mI34344   8.690   0.863   1.153
    1MUSC H00mJ34345   9.042   0.495   0.150
    1MUSC H00mK34346   9.253   0.863   0.537
    1MUSC H00mL34347   9.344   0.042   3.548
    1MUSC H00mM34348   8.950   0.410   1.153
    1MUSC H00mN34349   8.781   0.042   0.150
    1MUSC H00mO34350   8.993   0.410   0.537
    1MUSC H00mP34351   8.901   0.495   1.541
    1MUSC H00mQ34352   8.507   0.863   3.160
    1MUSC H00mR34353   8.859   0.495   2.157
    1MUSC H00mS34354   9.070   0.863   2.544
    1MUSC H00mT34355   9.161   0.042   1.541
    1MUSC H00mU34356   8.767   0.410   3.160
    1MUSC H00mV34357   8.598   0.042   2.157
    1MUSC H00mW34358   8.810   0.410   2.544
    1MUSC H00mX34359   9.084   1.400   3.548
    1MUSC H00mY34360   8.690   1.768   1.153
    1MUSC H00mZ34361   9.042   1.400   0.150
    1MUSC H00ma34362   9.253   1.768   0.537
    1MUSC H00mb34363   9.344   0.948   3.548
    1MUSC H00mc34364   8.950   1.316   1.153
    1MUSC H00md34365   8.781   0.948   0.150
    1MUSC H00me34366   8.993   1.316   0.537
    1MUSC H00mf34367   8.901   1.400   1.541
    1MUSC H00mg34368   8.507   1.768   3.160
    1MUSC H00mh34369   8.859   1.400   2.157
    1MUSC H00mi34370   9.070   1.768   2.544
    1MUSC H00mj34371   9.161   0.948   1.541
    1MUSC H00mk34372   8.767   1.316   3.160
    1MUSC H00ml34373   8.598   0.948   2.157
    1MUSC H00mm34374   8.810   1.316   2.544
    1MUSC H00mn34375   9.084   2.305   3.548
    1MUSC H00mo34376   8.690   2.674   1.153
    1MUSC H00mp34377   9.042   2.305   0.150
    1MUSC H00mq34378   9.253   2.674   0.537
    1MUSC H00mr34379   9.344   1.853   3.548
    1MUSC H00ms34380   8.950   2.221   1.153
    1MUSC H00mt34381   8.781   1.853   0.150
    1MUSC H00mu34382   8.993   2.221   0.537
    1MUSC H00mv34383   8.901   2.305   1.541
    1MUSC H00mw34384   8.507   2.674   3.160
    1MUSC H00mx34385   8.859   2.305   2.157
    1MUSC H00my34386   9.070   2.674   2.544
    1MUSC H00mz34387   9.161   1.853   1.541
    1MUSC H00n034388   8.767   2.221   3.160
    1MUSC H00n134389   8.598   1.853   2.157
    1MUSC H00n234390   8.810   2.221   2.544
    1MUSC H00n334391   9.084   3.211   3.548
    1MUSC H00n434392   8.690   3.579   1.153
    1MUSC H00n534393   9.042   3.211   0.150
    1MUSC H00n634394   9.253   3.579   0.537
    1MUSC H00n734395   9.344   2.758   3.548
    1MUSC H00n834396   8.950   3.126   1.153
    1MUSC H00n934397   8.781   2.758   0.150
    1MUSC H00nA34398   8.993   3.126   0.537
    1MUSC H00nB34399   8.901   3.211   1.541
    1MUSC H00nC34400   8.507   3.579   3.160
    1MUSC H00nD34401   8.859   3.211   2.157
    1MUSC H00nE34402   9.070   3.579   2.544
    1MUSC H00nF34403   9.161   2.758   1.541
    1MUSC H00nG34404   8.767   3.126   3.160
    1MUSC H00nH34405   8.598   2.758   2.157
    1MUSC H00nI34406   8.810   3.126   2.544
    1MUSC H00nJ34407   9.084   4.116   3.548
    1MUSC H00nK34408   8.690   4.484   1.153
    1MUSC H00nL34409   9.042   4.116   0.150
    1MUSC H00nM34410   9.253   4.484   0.537
    1MUSC H00nN34411   9.344   3.663   3.548
    1MUSC H00nO34412   8.950   4.031   1.153
    1MUSC H00nP34413   8.781   3.663   0.150
    1MUSC H00nQ34414   8.993   4.031   0.537
    1MUSC H00nR34415   8.901   4.116   1.541
    1MUSC H00nS34416   8.507   4.484   3.160
    1MUSC H00nT34417   8.859   4.116   2.157
    1MUSC H00nU34418   9.070   4.484   2.544
    1MUSC H00nV34419   9.161   3.663   1.541
    1MUSC H00nW34420   8.767   4.031   3.160
    1MUSC H00nX34421   8.598   3.663   2.157
    1MUSC H00nY34422   8.810   4.031   2.544
    1MUSC H00nZ34423   9.084   5.021   3.548
    1MUSC H00na34424   8.690   5.389   1.153
    1MUSC H00nb34425   9.042   5.021   0.150
    1MUSC H00nc34426   9.253   5.389   0.537
    1MUSC H00nd34427   9.344   4.569   3.548
    1MUSC H00ne34428   8.950   4.937   1.153
    1MUSC H00nf34429   8.781   4.569   0.150
    1MUSC H00ng34430   8.993   4.937   0.537
    1MUSC H00nh34431   8.901   5.021   1.541
    1MUSC H00ni34432   8.507   5.389   3.160
    1MUSC H00nj34433   8.859   5.021   2.157
    1MUSC H00nk34434   9.070   5.389   2.544
    1MUSC H00nl34435   9.161   4.569   1.541
    1MUSC H00nm34436   8.767   4.937   3.160
    1MUSC H00nn34437   8.598   4.569   2.157
    1MUSC H00no34438   8.810   4.937   2.544
    1MUSC H00np34439   9.084   5.927   3.548
    1MUSC H00nq34440   8.690   6.295   1.153
    1MUSC H00nr34441   9.042   5.927   0.150
    1MUSC H00ns34442   9.253   6.295   0.537
    1MUSC H00nt34443   9.344   5.474   3.548
    1MUSC H00nu34444   8.950   5.842   1.153
    1MUSC H00nv34445   8.781   5.474   0.150
    1MUSC H00nw34446   8.993   5.842   0.537
    1MUSC H00nx34447   8.901   5.927   1.541
    1MUSC H00ny34448   8.507   6.295   3.160
    1MUSC H00nz34449   8.859   5.927   2.157
    1MUSC H00o034450   9.070   6.295   2.544
    1MUSC H00o134451   9.161   5.474   1.541
    1MUSC H00o234452   8.767   5.842   3.160
    1MUSC H00o334453   8.598   5.474   2.157
    1MUSC H00o434454   8.810   5.842   2.544
    1MUSC H00o534455   9.084   6.832   3.548
    1MUSC H00o634456   8.690   7.200   1.153
    1MUSC H00o734457   9.042   6.832   0.150
    1MUSC H00o834458   9.253   7.200   0.537
    1MUSC H00o934459   9.344   6.379   3.548
    1MUSC H00oA34460   8.950   6.747   1.153
    1MUSC H00oB34461   8.781   6.379   0.150
    1MUSC H00oC34462   8.993   6.747   0.537
    1MUSC H00oD34463   8.901   6.832   1.541
    1MUSC H00oE34464   8.507   7.200   3.160
    1MUSC H00oF34465   8.859   6.832   2.157
    1MUSC H00oG34466   9.070   7.200   2.544
    1MUSC H00oH34467   9.161   6.379   1.541
    1MUSC H00oI34468   8.767   6.747   3.160
    1MUSC H00oJ34469   8.598   6.379   2.157
    1MUSC H00oK34470   8.810   6.747   2.544
    1MUSC H00oL34471   9.084   7.737   3.548
    1MUSC H00oM34472   8.690   8.105   1.153
    1MUSC H00oN34473   9.042   7.737   0.150
    1MUSC H00oO34474   9.253   8.105   0.537
    1MUSC H00oP34475   9.344   7.284   3.548
    1MUSC H00oQ34476   8.950   7.653   1.153
    1MUSC H00oR34477   8.781   7.284   0.150
    1MUSC H00oS34478   8.993   7.653   0.537
    1MUSC H00oT34479   8.901   7.737   1.541
    1MUSC H00oU34480   8.507   8.105   3.160
    1MUSC H00oV34481   8.859   7.737   2.157
    1MUSC H00oW34482   9.070   8.105   2.544
    1MUSC H00oX34483   9.161   7.284   1.541
    1MUSC H00oY34484   8.767   7.653   3.160
    1MUSC H00oZ34485   8.598   7.284   2.157
    1MUSC H00oa34486   8.810   7.653   2.544
    1MUSC H00ob34487   9.084   8.642   3.548
    1MUSC H00oc34488   8.690   9.010   1.153
    1MUSC H00od34489   9.042   8.642   0.150
    1MUSC H00oe34490   9.253   9.010   0.537
    1MUSC H00of34491   9.344   8.190   3.548
    1MUSC H00og34492   8.950   8.558   1.153
    1MUSC H00oh34493   8.781   8.190   0.150
    1MUSC H00oi34494   8.993   8.558   0.537
    1MUSC H00oj34495   8.901   8.642   1.541
    1MUSC H00ok34496   8.507   9.010   3.160
    1MUSC H00ol34497   8.859   8.642   2.157
    1MUSC H00om34498   9.070   9.010   2.544
    1MUSC H00on34499   9.161   8.190   1.541
    1MUSC H00oo34500   8.767   8.558   3.160
    1MUSC H00op34501   8.598   8.190   2.157
    1MUSC H00oq34502   8.810   8.558   2.544
    1MUSC H00or34503   9.084   9.548   3.548
    1MUSC H00os34504   8.690   9.916   1.153
    1MUSC H00ot34505   9.042   9.548   0.150
    1MUSC H00ou34506   9.253   9.916   0.537
    1MUSC H00ov34507   9.344   9.095   3.548
    1MUSC H00ow34508   8.950   9.463   1.153
    1MUSC H00ox34509   8.781   9.095   0.150
    1MUSC H00oy34510   8.993   9.463   0.537
    1MUSC H00oz34511   8.901   9.548   1.541
    1MUSC H00p034512   8.507   9.916   3.160
    1MUSC H00p134513   8.859   9.548   2.157
    1MUSC H00p234514   9.070   9.916   2.544
    1MUSC H00p334515   9.161   9.095   1.541
    1MUSC H00p434516   8.767   9.463   3.160
    1MUSC H00p534517   8.598   9.095   2.157
    1MUSC H00p634518   8.810   9.463   2.544
    1MUSC H00p734519   9.605   0.495   3.548
    1MUSC H00p834520   9.210   0.863   1.153
    1MUSC H00p934521   9.562   0.495   0.150
    1MUSC H00pA34522   9.773   0.863   0.537
    1MUSC H00pB34523   9.865   0.042   3.548
    1MUSC H00pC34524   9.471   0.410   1.153
    1MUSC H00pD34525   9.302   0.042   0.150
    1MUSC H00pE34526   9.513   0.410   0.537
    1MUSC H00pF34527   9.422   0.495   1.541
    1MUSC H00pG34528   9.027   0.863   3.160
    1MUSC H00pH34529   9.379   0.495   2.157
    1MUSC H00pI34530   9.590   0.863   2.544
    1MUSC H00pJ34531   9.682   0.042   1.541
    1MUSC H00pK34532   9.288   0.410   3.160
    1MUSC H00pL34533   9.119   0.042   2.157
    1MUSC H00pM34534   9.330   0.410   2.544
    1MUSC H00pN34535   9.605   1.400   3.548
    1MUSC H00pO34536   9.210   1.768   1.153
    1MUSC H00pP34537   9.562   1.400   0.150
    1MUSC H00pQ34538   9.773   1.768   0.537
    1MUSC H00pR34539   9.865   0.948   3.548
    1MUSC H00pS34540   9.471   1.316   1.153
    1MUSC H00pT34541   9.302   0.948   0.150
    1MUSC H00pU34542   9.513   1.316   0.537
    1MUSC H00pV34543   9.422   1.400   1.541
    1MUSC H00pW34544   9.027   1.768   3.160
    1MUSC H00pX34545   9.379   1.400   2.157
    1MUSC H00pY34546   9.590   1.768   2.544
    1MUSC H00pZ34547   9.682   0.948   1.541
    1MUSC H00pa34548   9.288   1.316   3.160
    1MUSC H00pb34549   9.119   0.948   2.157
    1MUSC H00pc34550   9.330   1.316   2.544
    1MUSC H00pd34551   9.605   2.305   3.548
    1MUSC H00pe34552   9.210   2.674   1.153
    1MUSC H00pf34553   9.562   2.305   0.150
    1MUSC H00pg34554   9.773   2.674   0.537
    1MUSC H00ph34555   9.865   1.853   3.548
    1MUSC H00pi34556   9.471   2.221   1.153
    1MUSC H00pj34557   9.302   1.853   0.150
    1MUSC H00pk34558   9.513   2.221   0.537
    1MUSC H00pl34559   9.422   2.305   1.541
    1MUSC H00pm34560   9.027   2.674   3.160
    1MUSC H00pn34561   9.379   2.305   2.157
    1MUSC H00po34562   9.590   2.674   2.544
    1MUSC H00pp34563   9.682   1.853   1.541
    1MUSC H00pq34564   9.288   2.221   3.160
    1MUSC H00pr34565   9.119   1.853   2.157
    1MUSC H00ps34566   9.330   2.221   2.544
    1MUSC H00pt34567   9.605   3.211   3.548
    1MUSC H00pu34568   9.210   3.579   1.153
    1MUSC H00pv34569   9.562   3.211   0.150
    1MUSC H00pw34570   9.773   3.579   0.537
    1MUSC H00px34571   9.865   2.758   3.548
    1MUSC H00py34572   9.471   3.126   1.153
    1MUSC H00pz34573   9.302   2.758   0.150
    1MUSC H00q034574   9.513   3.126   0.537
    1MUSC H00q134575   9.422   3.211   1.541
    1MUSC H00q234576   9.027   3.579   3.160
    1MUSC H00q334577   9.379   3.211   2.157
    1MUSC H00q434578   9.590   3.579   2.544
    1MUSC H00q534579   9.682   2.758   1.541
    1MUSC H00q634580   9.288   3.126   3.160
    1MUSC H00q734581   9.119   2.758   2.157
    1MUSC H00q834582   9.330   3.126   2.544
    1MUSC H00q934583   9.605   4.116   3.548
    1MUSC H00qA34584   9.210   4.484   1.153
    1MUSC H00qB34585   9.562   4.116   0.150
    1MUSC H00qC34586   9.773   4.484   0.537
    1MUSC H00qD34587   9.865   3.663   3.548
    1MUSC H00qE34588   9.471   4.031   1.153
    1MUSC H00qF34589   9.302   3.663   0.150
    1MUSC H00qG34590   9.513   4.031   0.537
    1MUSC H00qH34591   9.422   4.116   1.541
    1MUSC H00qI34592   9.027   4.484   3.160
    1MUSC H00qJ34593   9.379   4.116   2.157
    1MUSC H00qK34594   9.590   4.484   2.544
    1MUSC H00qL34595   9.682   3.663   1.541
    1MUSC H00qM34596   9.288   4.031   3.160
    1MUSC H00qN34597   9.119   3.663   2.157
    1MUSC H00qO34598   9.330   4.031   2.544
    1MUSC H00qP34599   9.605   5.021   3.548
    1MUSC H00qQ34600   9.210   5.389   1.153
    1MUSC H00qR34601   9.562   5.021   0.150
    1MUSC H00qS34602   9.773   5.389   0.537
    1MUSC H00qT34603   9.865   4.569   3.548
    1MUSC H00qU34604   9.471   4.937   1.153
    1MUSC H00qV34605   9.302   4.569   0.150
    1MUSC H00qW34606   9.513   4.937   0.537
    1MUSC H00qX34607   9.422   5.021   1.541
    1MUSC H00qY34608   9.027   5.389   3.160
    1MUSC H00qZ34609   9.379   5.021   2.157
    1MUSC H00qa34610   9.590   5.389   2.544
    1MUSC H00qb34611   9.682   4.569   1.541
    1MUSC H00qc34612   9.288   4.937   3.160
    1MUSC H00qd34613   9.119   4.569   2.157
    1MUSC H00qe34614   9.330   4.937   2.544
    1MUSC H00qf34615   9.605   5.927   3.548
    1MUSC H00qg34616   9.210   6.295   1.153
    1MUSC H00qh34617   9.562   5.927   0.150
    1MUSC H00qi34618   9.773   6.295   0.537
    1MUSC H00qj34619   9.865   5.474   3.548
    1MUSC H00qk34620   9.471   5.842   1.153
    1MUSC H00ql34621   9.302   5.474   0.150
    1MUSC H00qm34622   9.513   5.842   0.537
    1MUSC H00qn34623   9.422   5.927   1.541
    1MUSC H00qo34624   9.027   6.295   3.160
    1MUSC H00qp34625   9.379   5.927   2.157
    1MUSC H00qq34626   9.590   6.295   2.544
    1MUSC H00qr34627   9.682   5.474   1.541
    1MUSC H00qs34628   9.288   5.842   3.160
    1MUSC H00qt34629   9.119   5.474   2.157
    1MUSC H00qu34630   9.330   5.842   2.544
    1MUSC H00qv34631   9.605   6.832   3.548
    1MUSC H00qw34632   9.210   7.200   1.153
    1MUSC H00qx34633   9.562   6.832   0.150
    1MUSC H00qy34634   9.773   7.200   0.537
    1MUSC H00qz34635   9.865   6.379   3.548
    1MUSC H00r034636   9.471   6.747   1.153
    1MUSC H00r134637   9.302   6.379   0.150
    1MUSC H00r234638   9.513   6.747   0.537
    1MUSC H00r334639   9.422   6.832   1.541
    1MUSC H00r434640   9.027   7.200   3.160
    1MUSC H00r534641   9.379   6.832   2.157
    1MUSC H00r634642   9.590   7.200   2.544
    1MUSC H00r734643   9.682   6.379   1.541
    1MUSC H00r834644   9.288   6.747   3.160
    1MUSC H00r934645   9.119   6.379   2.157
    1MUSC H00rA34646   9.330   6.747   2.544
    1MUSC H00rB34647   9.605   7.737   3.548
    1MUSC H00rC34648   9.210   8.105   1.153
    1MUSC H00rD34649   9.562   7.737   0.150
    1MUSC H00rE34650   9.773   8.105   0.537
    1MUSC H00rF34651   9.865   7.284   3.548
    1MUSC H00rG34652   9.471   7.653   1.153
    1MUSC H00rH34653   9.302   7.284   0.150
    1MUSC H00rI34654   9.513   7.653   0.537
    1MUSC H00rJ34655   9.422   7.737   1.541
    1MUSC H00rK34656   9.027   8.105   3.160
    1MUSC H00rL34657   9.379   7.737   2.157
    1MUSC H00rM34658   9.590   8.105   2.544
    1MUSC H00rN34659   9.682   7.284   1.541
    1MUSC H00rO34660   9.288   7.653   3.160
    1MUSC H00rP34661   9.119   7.284   2.157
    1MUSC H00rQ34662   9.330   7.653   2.544
    1MUSC H00rR34663   9.605   8.642   3.548
    1MUSC H00rS34664   9.210   9.010   1.153
    1MUSC H00rT34665   9.562   8.642   0.150
    1MUSC H00rU34666   9.773   9.010   0.537
    1MUSC H00rV34667   9.865   8.190   3.548
    1MUSC H00rW34668   9.471   8.558   1.153
    1MUSC H00rX34669   9.302   8.190   0.150
    1MUSC H00rY34670   9.513   8.558   0.537
    1MUSC H00rZ34671   9.422   8.642   1.541
    1MUSC H00ra34672   9.027   9.010   3.160
    1MUSC H00rb34673   9.379   8.642   2.157
    1MUSC H00rc34674   9.590   9.010   2.544
    1MUSC H00rd34675   9.682   8.190   1.541
    1MUSC H00re34676   9.288   8.558   3.160
    1MUSC H00rf34677   9.119   8.190   2.157
    1MUSC H00rg34678   9.330   8.558   2.544
    1MUSC H00rh34679   9.605   9.548   3.548
    1MUSC H00ri34680   9.210   9.916   1.153
    1MUSC H00rj34681   9.562   9.548   0.150
    1MUSC H00rk34682   9.773   9.916   0.537
    1MUSC H00rl34683   9.865   9.095   3.548
    1MUSC H00rm34684   9.471   9.463   1.153
    1MUSC H00rn34685   9.302   9.095   0.150
    1MUSC H00ro34686   9.513   9.463   0.537
    1MUSC H00rp34687   9.422   9.548   1.541
    1MUSC H00rq34688   9.027   9.916   3.160
    1MUSC H00rr34689   9.379   9.548   2.157
    1MUSC H00rs34690   9.590   9.916   2.544
    1MUSC H00rt34691   9.682   9.095   1.541
    1MUSC H00ru34692   9.288   9.463   3.160
    1MUSC H00rv34693   9.119   9.095   2.157
    1MUSC H00rw34694   9.330   9.463   2.544
   9.88930   9.95798   3.69164   0.00000   0.00000   0.00000   0.00000   0.00000   0.00000
