Generated with MDTraj, t= 0.0
 28800
    1CAL  C0001    1   2.000   1.517   0.089
    1CAL  C0002    2   1.250   0.007   0.396
    1CAL  C0003    3   0.250   0.007   0.396
    1CAL  C0004    4   1.499   0.505   0.702
    1CAL  C0005    5   1.499   1.308   0.702
    1CAL  C0006    6   0.750   0.007   0.396
    1CAL  C0007    7   1.000   0.715   0.089
    1CAL  C0008    8   1.250   1.212   0.393
    1CAL  C0009    9   0.750   1.212   0.394
    1CAL  C000A   10   0.500   0.907   0.703
    1CAL  C000B   11   0.500   0.313   0.089
    1CAL  C000C   12   1.000   1.117   0.089
    1CAL  C000D   13   1.000   0.313   0.089
    1CAL  C000E   14   0.250   0.410   0.396
    1CAL  C000F   15   0.500   0.103   0.703
    1CAL  C000G   16   1.000   0.907   0.702
    1CAL  C000H   17   1.750   0.007   0.396
    1CAL  C000I   18   1.500   0.103   0.703
    1CAL  C000J   19   0.250   0.812   0.396
    1CAL  C000K   20   1.999   0.505   0.703
    1CAL  C000L   21   2.000   0.907   0.702
    1CAL  C000M   22   2.000   0.313   0.089
    1CAL  C000N   23   2.000   1.117   0.089
    1CAL  C000O   24   0.250   1.212   0.394
    1CAL  C000P   25   0.499   0.505   0.702
    1CAL  C000Q   26   1.500   0.715   0.089
    1CAL  C000R   27   2.000   0.715   0.089
    1CAL  C000S   28   1.750   0.410   0.396
    1CAL  C000T   29   1.250   0.410   0.396
    1CAL  C000U   30   1.500   0.313   0.089
    1CAL  C000V   31   1.500   0.907   0.702
    1CAL  C000W   32   0.498   1.308   0.702
    1CAL  C000X   33   1.500   1.517   0.089
    1CAL  C000Y   34   0.750   0.410   0.396
    1CAL  C000Z   35   1.250   0.812   0.396
    1CAL  C000a   36   0.500   1.117   0.089
    1CAL  C000b   37   1.750   1.212   0.393
    1CAL  C000c   38   1.000   1.517   0.089
    1CAL  C000d   39   1.999   1.308   0.703
    1CAL  C000e   40   1.000   0.103   0.702
    1CAL  C000f   41   0.999   1.308   0.702
    1CAL  C000g   42   0.999   0.505   0.703
    1CAL  C000h   43   1.750   0.812   0.396
    1CAL  C000i   44   0.500   1.517   0.089
    1CAL  C000j   45   1.500   1.117   0.089
    1CAL  C000k   46   0.500   0.715   0.089
    1CAL  C000l   47   0.750   0.812   0.396
    1CAL  C000m   48   2.000   0.103   0.703
    1CAL  C000n   49   0.751   0.603   1.013
    1CAL  C000o   50   0.747   0.202   1.013
    1CAL  C000p   51   0.747   1.005   1.012
    1CAL  C000q   52   0.751   1.406   1.013
    1CAL  C000r   53   1.751   0.603   1.013
    1CAL  C000s   54   1.747   0.202   1.013
    1CAL  C000t   55   1.751   1.406   1.013
    1CAL  C000u   56   1.748   1.005   1.012
    1CAL  C000v   57   1.251   1.406   1.013
    1CAL  C000w   58   1.248   1.004   1.013
    1CAL  C000x   59   1.251   0.603   1.013
    1CAL  C000y   60   1.247   0.201   1.014
    1CAL  C000z   61   0.251   1.406   1.014
    1CAL  C0010   62   0.248   1.004   1.014
    1CAL  C0011   63   0.251   0.604   1.013
    1CAL  C0012   64   0.247   0.201   1.015
    1CAL  O0001   65   0.185   0.734   0.475
    1CAL  O0002   66   1.186   0.891   0.317
    1CAL  O0003   67   1.185   0.734   0.475
    1CAL  O0004   68   1.379   0.812   0.397
    1CAL  O0005   69   0.564   1.438   0.168
    1CAL  O0006   70   0.371   1.518   0.088
    1CAL  O0007   71   0.564   0.794   0.010
    1CAL  O0008   72   0.686   0.891   0.317
    1CAL  O0009   73   0.685   0.734   0.475
    1CAL  O000A   74   0.879   0.812   0.397
    1CAL  O000B   75   0.565   1.595   0.010
    1CAL  O000C   76   0.564   0.637   0.168
    1CAL  O000D   77   0.371   0.715   0.089
    1CAL  O000E   78   1.128   1.307   0.703
    1CAL  O000F   79   0.935   1.386   0.622
    1CAL  O000G   80   0.936   0.584   0.622
    1CAL  O000H   81   0.933   0.427   0.782
    1CAL  O000I   82   1.128   0.504   0.704
    1CAL  O000J   83   0.933   1.230   0.782
    1CAL  O000K   84   0.621   0.410   0.396
    1CAL  O000L   85   1.063   0.986   0.622
    1CAL  O000M   86   1.122   1.212   0.393
    1CAL  O000N   87   1.314   1.133   0.473
    1CAL  O000O   88   1.315   1.290   0.315
    1CAL  O000P   89   0.436   0.234   0.168
    1CAL  O000Q   90   0.435   0.391   0.010
    1CAL  O000R   91   0.621   1.212   0.393
    1CAL  O000S   92   0.814   1.133   0.473
    1CAL  O000T   93   0.815   1.290   0.315
    1CAL  O000U   94   0.314   0.489   0.317
    1CAL  O000V   95   0.814   0.331   0.475
    1CAL  O000W   96   0.936   1.196   0.009
    1CAL  O000X   97   1.129   1.117   0.089
    1CAL  O000Y   98   0.314   0.331   0.476
    1CAL  O000Z   99   0.121   0.410   0.396
    1CAL  O000a  100   0.814   0.489   0.317
    1CAL  O000b  101   0.936   0.392   0.009
    1CAL  O000c  102   0.936   0.234   0.168
    1CAL  O000d  103   1.129   0.313   0.089
    1CAL  O000e  104   0.870   0.906   0.703
    1CAL  O000f  105   1.066   0.829   0.781
    1CAL  O000g  106   0.935   1.039   0.168
    1CAL  O000h  107   1.686   0.891   0.317
    1CAL  O000i  108   1.685   0.734   0.475
    1CAL  O000j  109   1.879   0.812   0.397
    1CAL  O000k  110   1.934   1.229   0.782
    1CAL  O000l  111   1.936   0.584   0.623
    1CAL  O000m  112   1.934   0.426   0.782
    1CAL  O000n  113   0.128   1.307   0.704
    1CAL  O000o  114   0.064   0.182   0.623
    1CAL  O000p  115   1.436   1.196   0.009
    1CAL  O000q  116   1.435   1.039   0.168
    1CAL  O000r  117   1.629   1.117   0.089
    1CAL  O000s  118   0.065   0.025   0.783
    1CAL  O000t  119   1.434   1.230   0.782
    1CAL  O000u  120   0.065   1.595   0.010
    1CAL  O000v  121   0.064   1.438   0.168
    1CAL  O000w  122   0.871   1.518   0.088
    1CAL  O000x  123   1.871   0.906   0.704
    1CAL  O000y  124   1.936   0.234   0.168
    1CAL  O000z  125   1.064   0.182   0.623
    1CAL  O0010  126   0.436   1.196   0.009
    1CAL  O0011  127   0.435   1.039   0.168
    1CAL  O0012  128   0.629   1.117   0.089
    1CAL  O0013  129   1.065   0.024   0.782
    1CAL  O0014  130   0.433   1.230   0.782
    1CAL  O0015  131   0.871   0.103   0.703
    1CAL  O0016  132   1.872   0.715   0.089
    1CAL  O0017  133   1.065   1.595   0.010
    1CAL  O0018  134   1.064   1.438   0.168
    1CAL  O0019  135   1.622   1.212   0.393
    1CAL  O001A  136   1.814   1.133   0.473
    1CAL  O001B  137   1.815   1.290   0.314
    1CAL  O001C  138   1.937   1.196   0.009
    1CAL  O001D  139   1.935   1.039   0.168
    1CAL  O001E  140   1.936   0.392   0.009
    1CAL  O001F  141   0.629   0.313   0.088
    1CAL  O001G  142   0.379   0.812   0.397
    1CAL  O001H  143   0.370   0.906   0.706
    1CAL  O001I  144   1.065   0.637   0.168
    1CAL  O001J  145   1.564   1.438   0.168
    1CAL  O001K  146   1.565   1.595   0.010
    1CAL  O001L  147   1.622   0.410   0.396
    1CAL  O001M  148   1.815   0.331   0.475
    1CAL  O001N  149   1.372   1.518   0.088
    1CAL  O001O  150   1.121   0.410   0.396
    1CAL  O001P  151   1.314   0.489   0.317
    1CAL  O001Q  152   0.628   1.307   0.703
    1CAL  O001R  153   1.436   0.391   0.010
    1CAL  O001S  154   1.436   0.234   0.168
    1CAL  O001T  155   1.629   0.313   0.088
    1CAL  O001U  156   1.371   0.906   0.705
    1CAL  O001V  157   1.566   0.829   0.781
    1CAL  O001W  158   1.315   0.331   0.475
    1CAL  O001X  159   1.563   0.987   0.622
    1CAL  O001Y  160   0.065   0.637   0.168
    1CAL  O001Z  161   1.565   0.637   0.168
    1CAL  O001a  162   0.186   0.891   0.317
    1CAL  O001b  163   0.063   0.987   0.622
    1CAL  O001c  164   0.065   0.829   0.782
    1CAL  O001d  165   0.128   0.504   0.704
    1CAL  O001e  166   0.129   0.313   0.089
    1CAL  O001f  167   0.128   1.117   0.089
    1CAL  O001g  168   1.564   0.794   0.010
    1CAL  O001h  169   0.315   1.290   0.315
    1CAL  O001i  170   1.872   1.518   0.088
    1CAL  O001j  171   1.871   0.103   0.704
    1CAL  O001k  172   0.121   1.212   0.393
    1CAL  O001l  173   1.935   1.386   0.622
    1CAL  O001m  174   0.064   0.794   0.010
    1CAL  O001n  175   1.372   0.715   0.089
    1CAL  O001o  176   0.314   1.133   0.473
    1CAL  O001p  177   0.434   1.387   0.622
    1CAL  O001q  178   0.628   0.504   0.703
    1CAL  O001r  179   1.371   0.102   0.705
    1CAL  O001s  180   1.436   0.584   0.622
    1CAL  O001t  181   1.434   0.427   0.782
    1CAL  O001u  182   1.629   0.504   0.703
    1CAL  O001v  183   0.879   0.007   0.396
    1CAL  O001w  184   0.686   1.535   0.475
    1CAL  O001x  185   1.434   1.386   0.622
    1CAL  O001y  186   1.628   1.307   0.702
    1CAL  O001z  187   0.686   0.086   0.317
    1CAL  O0020  188   0.563   0.182   0.623
    1CAL  O0021  189   0.566   0.025   0.782
    1CAL  O0022  190   0.370   0.103   0.705
    1CAL  O0023  191   0.562   0.987   0.622
    1CAL  O0024  192   0.567   0.829   0.782
    1CAL  O0025  193   0.871   0.715   0.089
    1CAL  O0026  194   1.566   0.024   0.782
    1CAL  O0027  195   1.564   0.182   0.623
    1CAL  O0028  196   0.433   0.427   0.782
    1CAL  O0029  197   0.435   0.585   0.623
    1CAL  O002A  198   1.686   0.086   0.317
    1CAL  O002B  199   1.686   1.535   0.475
    1CAL  O002C  200   1.879   0.007   0.396
    1CAL  O002D  201   0.379   0.008   0.396
    1CAL  O002E  202   0.186   1.535   0.475
    1CAL  O002F  203   0.185   0.086   0.317
    1CAL  O002G  204   1.186   0.086   0.317
    1CAL  O002H  205   1.186   1.535   0.475
    1CAL  O002I  206   1.379   0.008   0.396
    1CAL  O002J  207   1.064   0.794   0.010
    1CAL  O002K  208   1.815   0.489   0.317
    1CAL  O002L  209   0.820   1.480   0.931
    1CAL  O002M  210   0.811   1.328   1.097
    1CAL  O002N  211   0.621   1.412   1.011
    1CAL  O002O  212   0.678   1.079   0.930
    1CAL  O002P  213   0.687   0.928   1.096
    1CAL  O002Q  214   0.877   1.010   1.009
    1CAL  O002R  215   0.877   0.207   1.010
    1CAL  O002S  216   0.687   0.124   1.097
    1CAL  O002T  217   0.678   0.275   0.931
    1CAL  O002U  218   0.621   0.609   1.010
    1CAL  O002V  219   0.811   0.525   1.096
    1CAL  O002W  220   0.820   0.677   0.931
    1CAL  O002X  221   1.679   1.079   0.930
    1CAL  O002Y  222   1.877   1.010   1.010
    1CAL  O002Z  223   1.687   0.927   1.096
    1CAL  O002a  224   1.622   1.411   1.010
    1CAL  O002b  225   1.811   1.328   1.096
    1CAL  O002c  226   1.820   1.480   0.931
    1CAL  O002d  227   1.678   0.275   0.931
    1CAL  O002e  228   1.877   0.207   1.010
    1CAL  O002f  229   1.687   0.124   1.097
    1CAL  O002g  230   1.621   0.608   1.010
    1CAL  O002h  231   1.811   0.525   1.096
    1CAL  O002i  232   1.820   0.677   0.931
    1CAL  O002j  233   1.311   1.328   1.097
    1CAL  O002k  234   1.121   1.411   1.011
    1CAL  O002l  235   1.320   1.479   0.931
    1CAL  O002m  236   1.179   1.078   0.931
    1CAL  O002n  237   1.188   0.926   1.097
    1CAL  O002o  238   1.378   1.010   1.011
    1CAL  O002p  239   1.311   0.525   1.097
    1CAL  O002q  240   1.320   0.676   0.931
    1CAL  O002r  241   1.121   0.609   1.010
    1CAL  O002s  242   1.179   0.275   0.932
    1CAL  O002t  243   1.187   0.123   1.097
    1CAL  O002u  244   1.377   0.207   1.012
    1CAL  O002v  245   0.310   1.328   1.098
    1CAL  O002w  246   0.121   1.412   1.011
    1CAL  O002x  247   0.320   1.479   0.932
    1CAL  O002y  248   0.179   1.078   0.932
    1CAL  O002z  249   0.188   0.926   1.097
    1CAL  O0030  250   0.378   1.010   1.013
    1CAL  O0031  251   0.310   0.526   1.098
    1CAL  O0032  252   0.121   0.609   1.010
    1CAL  O0033  253   0.320   0.677   0.931
    1CAL  O0034  254   0.377   0.207   1.013
    1CAL  O0035  255   0.187   0.123   1.098
    1CAL  O0036  256   0.179   0.275   0.933
    1CAL  Ca001  257   1.002   0.810   1.008
    1CAL  Ca002  258   1.750   0.514   0.089
    1CAL  Ca003  259   1.496   1.211   1.009
    1CAL  Ca004  260   0.002   0.810   1.009
    1CAL  Ca005  261   0.750   1.507   0.704
    1CAL  Ca006  262   1.750   0.916   0.089
    1CAL  Ca007  263   1.500   0.611   0.396
    1CAL  Ca008  264   1.500   1.413   0.396
    1CAL  Ca009  265   0.249   1.106   0.703
    1CAL  Ca00A  266   1.000   1.413   0.396
    1CAL  Ca00B  267   0.502   0.007   1.009
    1CAL  Ca00C  268   0.250   0.514   0.089
    1CAL  Ca00D  269   0.250   0.705   0.704
    1CAL  Ca00E  270   1.997   0.408   1.009
    1CAL  Ca00F  271   1.997   1.211   1.009
    1CAL  Ca00G  272   1.749   1.106   0.702
    1CAL  Ca00H  273   1.250   0.112   0.089
    1CAL  Ca00I  274   2.000   1.413   0.396
    1CAL  Ca00J  275   1.750   0.112   0.089
    1CAL  Ca00K  276   0.495   0.409   1.009
    1CAL  Ca00L  277   0.002   0.007   1.010
    1CAL  Ca00M  278   1.751   0.705   0.704
    1CAL  Ca00N  279   0.250   0.916   0.089
    1CAL  Ca00O  280   2.000   0.611   0.396
    1CAL  Ca00P  281   1.500   1.012   0.395
    1CAL  Ca00Q  282   0.250   1.508   0.704
    1CAL  Ca00R  283   1.750   1.317   0.090
    1CAL  Ca00S  284   0.500   1.012   0.395
    1CAL  Ca00T  285   0.496   1.212   1.009
    1CAL  Ca00U  286   2.000   0.209   0.396
    1CAL  Ca00V  287   0.500   1.413   0.396
    1CAL  Ca00W  288   1.496   0.408   1.009
    1CAL  Ca00X  289   1.250   0.916   0.089
    1CAL  Ca00Y  290   0.750   0.916   0.089
    1CAL  Ca00Z  291   1.000   0.209   0.396
    1CAL  Ca00a  292   1.000   1.012   0.395
    1CAL  Ca00b  293   0.500   0.611   0.396
    1CAL  Ca00c  294   1.000   0.611   0.396
    1CAL  Ca00d  295   0.749   1.106   0.703
    1CAL  Ca00e  296   0.250   0.112   0.089
    1CAL  Ca00f  297   0.750   0.514   0.089
    1CAL  Ca00g  298   1.250   0.514   0.089
    1CAL  Ca00h  299   1.249   1.106   0.703
    1CAL  Ca00i  300   1.250   1.507   0.704
    1CAL  Ca00j  301   1.749   0.303   0.704
    1CAL  Ca00k  302   1.002   0.007   1.009
    1CAL  Ca00l  303   0.748   0.303   0.704
    1CAL  Ca00m  304   0.503   0.810   1.008
    1CAL  Ca00n  305   0.500   0.209   0.396
    1CAL  Ca00o  306   0.750   0.112   0.089
    1CAL  Ca00p  307   1.250   1.317   0.090
    1CAL  Ca00q  308   1.249   0.303   0.704
    1CAL  Ca00r  309   0.996   0.408   1.009
    1CAL  Ca00s  310   0.750   1.317   0.090
    1CAL  Ca00t  311   0.996   1.211   1.009
    1CAL  Ca00u  312   0.250   1.317   0.090
    1CAL  Ca00v  313   1.500   0.209   0.396
    1CAL  Ca00w  314   1.503   0.810   1.008
    1CAL  Ca00x  315   1.502   0.006   1.009
    1CAL  Ca00y  316   0.750   0.705   0.704
    1CAL  Ca00z  317   1.750   1.508   0.704
    1CAL  Ca010  318   1.250   0.705   0.704
    1CAL  Ca011  319   0.249   0.303   0.704
    1CAL  Ca012  320   2.000   1.012   0.395
    1CAL  C0013  321   2.000   1.517   1.317
    1CAL  C0014  322   1.250   0.007   1.624
    1CAL  C0015  323   0.250   0.007   1.624
    1CAL  C0016  324   1.499   0.505   1.930
    1CAL  C0017  325   1.499   1.308   1.930
    1CAL  C0018  326   0.750   0.007   1.624
    1CAL  C0019  327   1.000   0.715   1.317
    1CAL  C001A  328   1.250   1.212   1.621
    1CAL  C001B  329   0.750   1.212   1.622
    1CAL  C001C  330   0.500   0.907   1.931
    1CAL  C001D  331   0.500   0.313   1.317
    1CAL  C001E  332   1.000   1.117   1.317
    1CAL  C001F  333   1.000   0.313   1.317
    1CAL  C001G  334   0.250   0.410   1.624
    1CAL  C001H  335   0.500   0.103   1.931
    1CAL  C001I  336   1.000   0.907   1.930
    1CAL  C001J  337   1.750   0.007   1.624
    1CAL  C001K  338   1.500   0.103   1.931
    1CAL  C001L  339   0.250   0.812   1.624
    1CAL  C001M  340   1.999   0.505   1.931
    1CAL  C001N  341   2.000   0.907   1.930
    1CAL  C001O  342   2.000   0.313   1.317
    1CAL  C001P  343   2.000   1.117   1.317
    1CAL  C001Q  344   0.250   1.212   1.622
    1CAL  C001R  345   0.499   0.505   1.930
    1CAL  C001S  346   1.500   0.715   1.317
    1CAL  C001T  347   2.000   0.715   1.317
    1CAL  C001U  348   1.750   0.410   1.624
    1CAL  C001V  349   1.250   0.410   1.624
    1CAL  C001W  350   1.500   0.313   1.317
    1CAL  C001X  351   1.500   0.907   1.930
    1CAL  C001Y  352   0.498   1.308   1.930
    1CAL  C001Z  353   1.500   1.517   1.317
    1CAL  C001a  354   0.750   0.410   1.624
    1CAL  C001b  355   1.250   0.812   1.624
    1CAL  C001c  356   0.500   1.117   1.317
    1CAL  C001d  357   1.750   1.212   1.621
    1CAL  C001e  358   1.000   1.517   1.317
    1CAL  C001f  359   1.999   1.308   1.931
    1CAL  C001g  360   1.000   0.103   1.930
    1CAL  C001h  361   0.999   1.308   1.930
    1CAL  C001i  362   0.999   0.505   1.931
    1CAL  C001j  363   1.750   0.812   1.624
    1CAL  C001k  364   0.500   1.517   1.317
    1CAL  C001l  365   1.500   1.117   1.317
    1CAL  C001m  366   0.500   0.715   1.317
    1CAL  C001n  367   0.750   0.812   1.624
    1CAL  C001o  368   2.000   0.103   1.931
    1CAL  C001p  369   0.751   0.603   2.241
    1CAL  C001q  370   0.747   0.202   2.241
    1CAL  C001r  371   0.747   1.005   2.240
    1CAL  C001s  372   0.751   1.406   2.241
    1CAL  C001t  373   1.751   0.603   2.241
    1CAL  C001u  374   1.747   0.202   2.241
    1CAL  C001v  375   1.751   1.406   2.241
    1CAL  C001w  376   1.748   1.005   2.240
    1CAL  C001x  377   1.251   1.406   2.241
    1CAL  C001y  378   1.248   1.004   2.241
    1CAL  C001z  379   1.251   0.603   2.241
    1CAL  C0020  380   1.247   0.201   2.242
    1CAL  C0021  381   0.251   1.406   2.242
    1CAL  C0022  382   0.248   1.004   2.242
    1CAL  C0023  383   0.251   0.604   2.241
    1CAL  C0024  384   0.247   0.201   2.243
    1CAL  O0037  385   0.185   0.734   1.703
    1CAL  O0038  386   1.186   0.891   1.545
    1CAL  O0039  387   1.185   0.734   1.703
    1CAL  O003A  388   1.379   0.812   1.625
    1CAL  O003B  389   0.564   1.438   1.396
    1CAL  O003C  390   0.371   1.518   1.316
    1CAL  O003D  391   0.564   0.794   1.238
    1CAL  O003E  392   0.686   0.891   1.545
    1CAL  O003F  393   0.685   0.734   1.703
    1CAL  O003G  394   0.879   0.812   1.625
    1CAL  O003H  395   0.565   1.595   1.238
    1CAL  O003I  396   0.564   0.637   1.396
    1CAL  O003J  397   0.371   0.715   1.317
    1CAL  O003K  398   1.128   1.307   1.931
    1CAL  O003L  399   0.935   1.386   1.850
    1CAL  O003M  400   0.936   0.584   1.850
    1CAL  O003N  401   0.933   0.427   2.010
    1CAL  O003O  402   1.128   0.504   1.932
    1CAL  O003P  403   0.933   1.230   2.010
    1CAL  O003Q  404   0.621   0.410   1.624
    1CAL  O003R  405   1.063   0.986   1.850
    1CAL  O003S  406   1.122   1.212   1.621
    1CAL  O003T  407   1.314   1.133   1.701
    1CAL  O003U  408   1.315   1.290   1.543
    1CAL  O003V  409   0.436   0.234   1.396
    1CAL  O003W  410   0.435   0.391   1.238
    1CAL  O003X  411   0.621   1.212   1.621
    1CAL  O003Y  412   0.814   1.133   1.701
    1CAL  O003Z  413   0.815   1.290   1.543
    1CAL  O003a  414   0.314   0.489   1.545
    1CAL  O003b  415   0.814   0.331   1.703
    1CAL  O003c  416   0.936   1.196   1.237
    1CAL  O003d  417   1.129   1.117   1.317
    1CAL  O003e  418   0.314   0.331   1.704
    1CAL  O003f  419   0.121   0.410   1.624
    1CAL  O003g  420   0.814   0.489   1.545
    1CAL  O003h  421   0.936   0.392   1.237
    1CAL  O003i  422   0.936   0.234   1.396
    1CAL  O003j  423   1.129   0.313   1.317
    1CAL  O003k  424   0.870   0.906   1.931
    1CAL  O003l  425   1.066   0.829   2.009
    1CAL  O003m  426   0.935   1.039   1.396
    1CAL  O003n  427   1.686   0.891   1.545
    1CAL  O003o  428   1.685   0.734   1.703
    1CAL  O003p  429   1.879   0.812   1.625
    1CAL  O003q  430   1.934   1.229   2.010
    1CAL  O003r  431   1.936   0.584   1.851
    1CAL  O003s  432   1.934   0.426   2.010
    1CAL  O003t  433   0.128   1.307   1.932
    1CAL  O003u  434   0.064   0.182   1.851
    1CAL  O003v  435   1.436   1.196   1.237
    1CAL  O003w  436   1.435   1.039   1.396
    1CAL  O003x  437   1.629   1.117   1.317
    1CAL  O003y  438   0.065   0.025   2.011
    1CAL  O003z  439   1.434   1.230   2.010
    1CAL  O0040  440   0.065   1.595   1.238
    1CAL  O0041  441   0.064   1.438   1.396
    1CAL  O0042  442   0.871   1.518   1.316
    1CAL  O0043  443   1.871   0.906   1.932
    1CAL  O0044  444   1.936   0.234   1.396
    1CAL  O0045  445   1.064   0.182   1.851
    1CAL  O0046  446   0.436   1.196   1.237
    1CAL  O0047  447   0.435   1.039   1.396
    1CAL  O0048  448   0.629   1.117   1.317
    1CAL  O0049  449   1.065   0.024   2.010
    1CAL  O004A  450   0.433   1.230   2.010
    1CAL  O004B  451   0.871   0.103   1.931
    1CAL  O004C  452   1.872   0.715   1.317
    1CAL  O004D  453   1.065   1.595   1.238
    1CAL  O004E  454   1.064   1.438   1.396
    1CAL  O004F  455   1.622   1.212   1.621
    1CAL  O004G  456   1.814   1.133   1.701
    1CAL  O004H  457   1.815   1.290   1.542
    1CAL  O004I  458   1.937   1.196   1.237
    1CAL  O004J  459   1.935   1.039   1.396
    1CAL  O004K  460   1.936   0.392   1.237
    1CAL  O004L  461   0.629   0.313   1.316
    1CAL  O004M  462   0.379   0.812   1.625
    1CAL  O004N  463   0.370   0.906   1.934
    1CAL  O004O  464   1.065   0.637   1.396
    1CAL  O004P  465   1.564   1.438   1.396
    1CAL  O004Q  466   1.565   1.595   1.238
    1CAL  O004R  467   1.622   0.410   1.624
    1CAL  O004S  468   1.815   0.331   1.703
    1CAL  O004T  469   1.372   1.518   1.316
    1CAL  O004U  470   1.121   0.410   1.624
    1CAL  O004V  471   1.314   0.489   1.545
    1CAL  O004W  472   0.628   1.307   1.931
    1CAL  O004X  473   1.436   0.391   1.238
    1CAL  O004Y  474   1.436   0.234   1.396
    1CAL  O004Z  475   1.629   0.313   1.316
    1CAL  O004a  476   1.371   0.906   1.933
    1CAL  O004b  477   1.566   0.829   2.009
    1CAL  O004c  478   1.315   0.331   1.703
    1CAL  O004d  479   1.563   0.987   1.850
    1CAL  O004e  480   0.065   0.637   1.396
    1CAL  O004f  481   1.565   0.637   1.396
    1CAL  O004g  482   0.186   0.891   1.545
    1CAL  O004h  483   0.063   0.987   1.850
    1CAL  O004i  484   0.065   0.829   2.010
    1CAL  O004j  485   0.128   0.504   1.932
    1CAL  O004k  486   0.129   0.313   1.317
    1CAL  O004l  487   0.128   1.117   1.317
    1CAL  O004m  488   1.564   0.794   1.238
    1CAL  O004n  489   0.315   1.290   1.543
    1CAL  O004o  490   1.872   1.518   1.316
    1CAL  O004p  491   1.871   0.103   1.932
    1CAL  O004q  492   0.121   1.212   1.621
    1CAL  O004r  493   1.935   1.386   1.850
    1CAL  O004s  494   0.064   0.794   1.238
    1CAL  O004t  495   1.372   0.715   1.317
    1CAL  O004u  496   0.314   1.133   1.701
    1CAL  O004v  497   0.434   1.387   1.850
    1CAL  O004w  498   0.628   0.504   1.931
    1CAL  O004x  499   1.371   0.102   1.933
    1CAL  O004y  500   1.436   0.584   1.850
    1CAL  O004z  501   1.434   0.427   2.010
    1CAL  O0050  502   1.629   0.504   1.931
    1CAL  O0051  503   0.879   0.007   1.624
    1CAL  O0052  504   0.686   1.535   1.703
    1CAL  O0053  505   1.434   1.386   1.850
    1CAL  O0054  506   1.628   1.307   1.930
    1CAL  O0055  507   0.686   0.086   1.545
    1CAL  O0056  508   0.563   0.182   1.851
    1CAL  O0057  509   0.566   0.025   2.010
    1CAL  O0058  510   0.370   0.103   1.933
    1CAL  O0059  511   0.562   0.987   1.850
    1CAL  O005A  512   0.567   0.829   2.010
    1CAL  O005B  513   0.871   0.715   1.317
    1CAL  O005C  514   1.566   0.024   2.010
    1CAL  O005D  515   1.564   0.182   1.851
    1CAL  O005E  516   0.433   0.427   2.010
    1CAL  O005F  517   0.435   0.585   1.851
    1CAL  O005G  518   1.686   0.086   1.545
    1CAL  O005H  519   1.686   1.535   1.703
    1CAL  O005I  520   1.879   0.007   1.624
    1CAL  O005J  521   0.379   0.008   1.624
    1CAL  O005K  522   0.186   1.535   1.703
    1CAL  O005L  523   0.185   0.086   1.545
    1CAL  O005M  524   1.186   0.086   1.545
    1CAL  O005N  525   1.186   1.535   1.703
    1CAL  O005O  526   1.379   0.008   1.624
    1CAL  O005P  527   1.064   0.794   1.238
    1CAL  O005Q  528   1.815   0.489   1.545
    1CAL  O005R  529   0.820   1.480   2.159
    1CAL  O005S  530   0.811   1.328   2.325
    1CAL  O005T  531   0.621   1.412   2.239
    1CAL  O005U  532   0.678   1.079   2.158
    1CAL  O005V  533   0.687   0.928   2.324
    1CAL  O005W  534   0.877   1.010   2.237
    1CAL  O005X  535   0.877   0.207   2.238
    1CAL  O005Y  536   0.687   0.124   2.325
    1CAL  O005Z  537   0.678   0.275   2.159
    1CAL  O005a  538   0.621   0.609   2.238
    1CAL  O005b  539   0.811   0.525   2.324
    1CAL  O005c  540   0.820   0.677   2.159
    1CAL  O005d  541   1.679   1.079   2.158
    1CAL  O005e  542   1.877   1.010   2.238
    1CAL  O005f  543   1.687   0.927   2.324
    1CAL  O005g  544   1.622   1.411   2.238
    1CAL  O005h  545   1.811   1.328   2.324
    1CAL  O005i  546   1.820   1.480   2.159
    1CAL  O005j  547   1.678   0.275   2.159
    1CAL  O005k  548   1.877   0.207   2.238
    1CAL  O005l  549   1.687   0.124   2.325
    1CAL  O005m  550   1.621   0.608   2.238
    1CAL  O005n  551   1.811   0.525   2.324
    1CAL  O005o  552   1.820   0.677   2.159
    1CAL  O005p  553   1.311   1.328   2.325
    1CAL  O005q  554   1.121   1.411   2.239
    1CAL  O005r  555   1.320   1.479   2.159
    1CAL  O005s  556   1.179   1.078   2.159
    1CAL  O005t  557   1.188   0.926   2.325
    1CAL  O005u  558   1.378   1.010   2.239
    1CAL  O005v  559   1.311   0.525   2.325
    1CAL  O005w  560   1.320   0.676   2.159
    1CAL  O005x  561   1.121   0.609   2.238
    1CAL  O005y  562   1.179   0.275   2.160
    1CAL  O005z  563   1.187   0.123   2.325
    1CAL  O0060  564   1.377   0.207   2.240
    1CAL  O0061  565   0.310   1.328   2.326
    1CAL  O0062  566   0.121   1.412   2.239
    1CAL  O0063  567   0.320   1.479   2.160
    1CAL  O0064  568   0.179   1.078   2.160
    1CAL  O0065  569   0.188   0.926   2.325
    1CAL  O0066  570   0.378   1.010   2.241
    1CAL  O0067  571   0.310   0.526   2.326
    1CAL  O0068  572   0.121   0.609   2.238
    1CAL  O0069  573   0.320   0.677   2.159
    1CAL  O006A  574   0.377   0.207   2.241
    1CAL  O006B  575   0.187   0.123   2.326
    1CAL  O006C  576   0.179   0.275   2.161
    1CAL  Ca013  577   1.002   0.810   2.236
    1CAL  Ca014  578   1.750   0.514   1.317
    1CAL  Ca015  579   1.496   1.211   2.237
    1CAL  Ca016  580   0.002   0.810   2.237
    1CAL  Ca017  581   0.750   1.507   1.932
    1CAL  Ca018  582   1.750   0.916   1.317
    1CAL  Ca019  583   1.500   0.611   1.624
    1CAL  Ca01A  584   1.500   1.413   1.624
    1CAL  Ca01B  585   0.249   1.106   1.931
    1CAL  Ca01C  586   1.000   1.413   1.624
    1CAL  Ca01D  587   0.502   0.007   2.237
    1CAL  Ca01E  588   0.250   0.514   1.317
    1CAL  Ca01F  589   0.250   0.705   1.932
    1CAL  Ca01G  590   1.997   0.408   2.237
    1CAL  Ca01H  591   1.997   1.211   2.237
    1CAL  Ca01I  592   1.749   1.106   1.930
    1CAL  Ca01J  593   1.250   0.112   1.317
    1CAL  Ca01K  594   2.000   1.413   1.624
    1CAL  Ca01L  595   1.750   0.112   1.317
    1CAL  Ca01M  596   0.495   0.409   2.237
    1CAL  Ca01N  597   0.002   0.007   2.238
    1CAL  Ca01O  598   1.751   0.705   1.932
    1CAL  Ca01P  599   0.250   0.916   1.317
    1CAL  Ca01Q  600   2.000   0.611   1.624
    1CAL  Ca01R  601   1.500   1.012   1.623
    1CAL  Ca01S  602   0.250   1.508   1.932
    1CAL  Ca01T  603   1.750   1.317   1.318
    1CAL  Ca01U  604   0.500   1.012   1.623
    1CAL  Ca01V  605   0.496   1.212   2.237
    1CAL  Ca01W  606   2.000   0.209   1.624
    1CAL  Ca01X  607   0.500   1.413   1.624
    1CAL  Ca01Y  608   1.496   0.408   2.237
    1CAL  Ca01Z  609   1.250   0.916   1.317
    1CAL  Ca01a  610   0.750   0.916   1.317
    1CAL  Ca01b  611   1.000   0.209   1.624
    1CAL  Ca01c  612   1.000   1.012   1.623
    1CAL  Ca01d  613   0.500   0.611   1.624
    1CAL  Ca01e  614   1.000   0.611   1.624
    1CAL  Ca01f  615   0.749   1.106   1.931
    1CAL  Ca01g  616   0.250   0.112   1.317
    1CAL  Ca01h  617   0.750   0.514   1.317
    1CAL  Ca01i  618   1.250   0.514   1.317
    1CAL  Ca01j  619   1.249   1.106   1.931
    1CAL  Ca01k  620   1.250   1.507   1.932
    1CAL  Ca01l  621   1.749   0.303   1.932
    1CAL  Ca01m  622   1.002   0.007   2.237
    1CAL  Ca01n  623   0.748   0.303   1.932
    1CAL  Ca01o  624   0.503   0.810   2.236
    1CAL  Ca01p  625   0.500   0.209   1.624
    1CAL  Ca01q  626   0.750   0.112   1.317
    1CAL  Ca01r  627   1.250   1.317   1.318
    1CAL  Ca01s  628   1.249   0.303   1.932
    1CAL  Ca01t  629   0.996   0.408   2.237
    1CAL  Ca01u  630   0.750   1.317   1.318
    1CAL  Ca01v  631   0.996   1.211   2.237
    1CAL  Ca01w  632   0.250   1.317   1.318
    1CAL  Ca01x  633   1.500   0.209   1.624
    1CAL  Ca01y  634   1.503   0.810   2.236
    1CAL  Ca01z  635   1.502   0.006   2.237
    1CAL  Ca020  636   0.750   0.705   1.932
    1CAL  Ca021  637   1.750   1.508   1.932
    1CAL  Ca022  638   1.250   0.705   1.932
    1CAL  Ca023  639   0.249   0.303   1.932
    1CAL  Ca024  640   2.000   1.012   1.623
    1CAL  C0025  641   2.000   1.517   2.545
    1CAL  C0026  642   1.250   0.007   2.852
    1CAL  C0027  643   0.250   0.007   2.852
    1CAL  C0028  644   1.499   0.505   3.158
    1CAL  C0029  645   1.499   1.308   3.158
    1CAL  C002A  646   0.750   0.007   2.852
    1CAL  C002B  647   1.000   0.715   2.545
    1CAL  C002C  648   1.250   1.212   2.849
    1CAL  C002D  649   0.750   1.212   2.850
    1CAL  C002E  650   0.500   0.907   3.159
    1CAL  C002F  651   0.500   0.313   2.545
    1CAL  C002G  652   1.000   1.117   2.545
    1CAL  C002H  653   1.000   0.313   2.545
    1CAL  C002I  654   0.250   0.410   2.852
    1CAL  C002J  655   0.500   0.103   3.159
    1CAL  C002K  656   1.000   0.907   3.158
    1CAL  C002L  657   1.750   0.007   2.852
    1CAL  C002M  658   1.500   0.103   3.159
    1CAL  C002N  659   0.250   0.812   2.852
    1CAL  C002O  660   1.999   0.505   3.159
    1CAL  C002P  661   2.000   0.907   3.158
    1CAL  C002Q  662   2.000   0.313   2.545
    1CAL  C002R  663   2.000   1.117   2.545
    1CAL  C002S  664   0.250   1.212   2.850
    1CAL  C002T  665   0.499   0.505   3.158
    1CAL  C002U  666   1.500   0.715   2.545
    1CAL  C002V  667   2.000   0.715   2.545
    1CAL  C002W  668   1.750   0.410   2.852
    1CAL  C002X  669   1.250   0.410   2.852
    1CAL  C002Y  670   1.500   0.313   2.545
    1CAL  C002Z  671   1.500   0.907   3.158
    1CAL  C002a  672   0.498   1.308   3.158
    1CAL  C002b  673   1.500   1.517   2.545
    1CAL  C002c  674   0.750   0.410   2.852
    1CAL  C002d  675   1.250   0.812   2.852
    1CAL  C002e  676   0.500   1.117   2.545
    1CAL  C002f  677   1.750   1.212   2.849
    1CAL  C002g  678   1.000   1.517   2.545
    1CAL  C002h  679   1.999   1.308   3.159
    1CAL  C002i  680   1.000   0.103   3.158
    1CAL  C002j  681   0.999   1.308   3.158
    1CAL  C002k  682   0.999   0.505   3.159
    1CAL  C002l  683   1.750   0.812   2.852
    1CAL  C002m  684   0.500   1.517   2.545
    1CAL  C002n  685   1.500   1.117   2.545
    1CAL  C002o  686   0.500   0.715   2.545
    1CAL  C002p  687   0.750   0.812   2.852
    1CAL  C002q  688   2.000   0.103   3.159
    1CAL  C002r  689   0.751   0.603   3.469
    1CAL  C002s  690   0.747   0.202   3.469
    1CAL  C002t  691   0.747   1.005   3.468
    1CAL  C002u  692   0.751   1.406   3.469
    1CAL  C002v  693   1.751   0.603   3.469
    1CAL  C002w  694   1.747   0.202   3.469
    1CAL  C002x  695   1.751   1.406   3.469
    1CAL  C002y  696   1.748   1.005   3.468
    1CAL  C002z  697   1.251   1.406   3.469
    1CAL  C0030  698   1.248   1.004   3.469
    1CAL  C0031  699   1.251   0.603   3.469
    1CAL  C0032  700   1.247   0.201   3.470
    1CAL  C0033  701   0.251   1.406   3.470
    1CAL  C0034  702   0.248   1.004   3.470
    1CAL  C0035  703   0.251   0.604   3.469
    1CAL  C0036  704   0.247   0.201   3.471
    1CAL  O006D  705   0.185   0.734   2.931
    1CAL  O006E  706   1.186   0.891   2.773
    1CAL  O006F  707   1.185   0.734   2.931
    1CAL  O006G  708   1.379   0.812   2.853
    1CAL  O006H  709   0.564   1.438   2.624
    1CAL  O006I  710   0.371   1.518   2.544
    1CAL  O006J  711   0.564   0.794   2.466
    1CAL  O006K  712   0.686   0.891   2.773
    1CAL  O006L  713   0.685   0.734   2.931
    1CAL  O006M  714   0.879   0.812   2.853
    1CAL  O006N  715   0.565   1.595   2.466
    1CAL  O006O  716   0.564   0.637   2.624
    1CAL  O006P  717   0.371   0.715   2.545
    1CAL  O006Q  718   1.128   1.307   3.159
    1CAL  O006R  719   0.935   1.386   3.078
    1CAL  O006S  720   0.936   0.584   3.078
    1CAL  O006T  721   0.933   0.427   3.238
    1CAL  O006U  722   1.128   0.504   3.160
    1CAL  O006V  723   0.933   1.230   3.238
    1CAL  O006W  724   0.621   0.410   2.852
    1CAL  O006X  725   1.063   0.986   3.078
    1CAL  O006Y  726   1.122   1.212   2.849
    1CAL  O006Z  727   1.314   1.133   2.929
    1CAL  O006a  728   1.315   1.290   2.771
    1CAL  O006b  729   0.436   0.234   2.624
    1CAL  O006c  730   0.435   0.391   2.466
    1CAL  O006d  731   0.621   1.212   2.849
    1CAL  O006e  732   0.814   1.133   2.929
    1CAL  O006f  733   0.815   1.290   2.771
    1CAL  O006g  734   0.314   0.489   2.773
    1CAL  O006h  735   0.814   0.331   2.931
    1CAL  O006i  736   0.936   1.196   2.465
    1CAL  O006j  737   1.129   1.117   2.545
    1CAL  O006k  738   0.314   0.331   2.932
    1CAL  O006l  739   0.121   0.410   2.852
    1CAL  O006m  740   0.814   0.489   2.773
    1CAL  O006n  741   0.936   0.392   2.465
    1CAL  O006o  742   0.936   0.234   2.624
    1CAL  O006p  743   1.129   0.313   2.545
    1CAL  O006q  744   0.870   0.906   3.159
    1CAL  O006r  745   1.066   0.829   3.237
    1CAL  O006s  746   0.935   1.039   2.624
    1CAL  O006t  747   1.686   0.891   2.773
    1CAL  O006u  748   1.685   0.734   2.931
    1CAL  O006v  749   1.879   0.812   2.853
    1CAL  O006w  750   1.934   1.229   3.238
    1CAL  O006x  751   1.936   0.584   3.079
    1CAL  O006y  752   1.934   0.426   3.238
    1CAL  O006z  753   0.128   1.307   3.160
    1CAL  O0070  754   0.064   0.182   3.079
    1CAL  O0071  755   1.436   1.196   2.465
    1CAL  O0072  756   1.435   1.039   2.624
    1CAL  O0073  757   1.629   1.117   2.545
    1CAL  O0074  758   0.065   0.025   3.239
    1CAL  O0075  759   1.434   1.230   3.238
    1CAL  O0076  760   0.065   1.595   2.466
    1CAL  O0077  761   0.064   1.438   2.624
    1CAL  O0078  762   0.871   1.518   2.544
    1CAL  O0079  763   1.871   0.906   3.160
    1CAL  O007A  764   1.936   0.234   2.624
    1CAL  O007B  765   1.064   0.182   3.079
    1CAL  O007C  766   0.436   1.196   2.465
    1CAL  O007D  767   0.435   1.039   2.624
    1CAL  O007E  768   0.629   1.117   2.545
    1CAL  O007F  769   1.065   0.024   3.238
    1CAL  O007G  770   0.433   1.230   3.238
    1CAL  O007H  771   0.871   0.103   3.159
    1CAL  O007I  772   1.872   0.715   2.545
    1CAL  O007J  773   1.065   1.595   2.466
    1CAL  O007K  774   1.064   1.438   2.624
    1CAL  O007L  775   1.622   1.212   2.849
    1CAL  O007M  776   1.814   1.133   2.929
    1CAL  O007N  777   1.815   1.290   2.770
    1CAL  O007O  778   1.937   1.196   2.465
    1CAL  O007P  779   1.935   1.039   2.624
    1CAL  O007Q  780   1.936   0.392   2.465
    1CAL  O007R  781   0.629   0.313   2.544
    1CAL  O007S  782   0.379   0.812   2.853
    1CAL  O007T  783   0.370   0.906   3.162
    1CAL  O007U  784   1.065   0.637   2.624
    1CAL  O007V  785   1.564   1.438   2.624
    1CAL  O007W  786   1.565   1.595   2.466
    1CAL  O007X  787   1.622   0.410   2.852
    1CAL  O007Y  788   1.815   0.331   2.931
    1CAL  O007Z  789   1.372   1.518   2.544
    1CAL  O007a  790   1.121   0.410   2.852
    1CAL  O007b  791   1.314   0.489   2.773
    1CAL  O007c  792   0.628   1.307   3.159
    1CAL  O007d  793   1.436   0.391   2.466
    1CAL  O007e  794   1.436   0.234   2.624
    1CAL  O007f  795   1.629   0.313   2.544
    1CAL  O007g  796   1.371   0.906   3.161
    1CAL  O007h  797   1.566   0.829   3.237
    1CAL  O007i  798   1.315   0.331   2.931
    1CAL  O007j  799   1.563   0.987   3.078
    1CAL  O007k  800   0.065   0.637   2.624
    1CAL  O007l  801   1.565   0.637   2.624
    1CAL  O007m  802   0.186   0.891   2.773
    1CAL  O007n  803   0.063   0.987   3.078
    1CAL  O007o  804   0.065   0.829   3.238
    1CAL  O007p  805   0.128   0.504   3.160
    1CAL  O007q  806   0.129   0.313   2.545
    1CAL  O007r  807   0.128   1.117   2.545
    1CAL  O007s  808   1.564   0.794   2.466
    1CAL  O007t  809   0.315   1.290   2.771
    1CAL  O007u  810   1.872   1.518   2.544
    1CAL  O007v  811   1.871   0.103   3.160
    1CAL  O007w  812   0.121   1.212   2.849
    1CAL  O007x  813   1.935   1.386   3.078
    1CAL  O007y  814   0.064   0.794   2.466
    1CAL  O007z  815   1.372   0.715   2.545
    1CAL  O0080  816   0.314   1.133   2.929
    1CAL  O0081  817   0.434   1.387   3.078
    1CAL  O0082  818   0.628   0.504   3.159
    1CAL  O0083  819   1.371   0.102   3.161
    1CAL  O0084  820   1.436   0.584   3.078
    1CAL  O0085  821   1.434   0.427   3.238
    1CAL  O0086  822   1.629   0.504   3.159
    1CAL  O0087  823   0.879   0.007   2.852
    1CAL  O0088  824   0.686   1.535   2.931
    1CAL  O0089  825   1.434   1.386   3.078
    1CAL  O008A  826   1.628   1.307   3.158
    1CAL  O008B  827   0.686   0.086   2.773
    1CAL  O008C  828   0.563   0.182   3.079
    1CAL  O008D  829   0.566   0.025   3.238
    1CAL  O008E  830   0.370   0.103   3.161
    1CAL  O008F  831   0.562   0.987   3.078
    1CAL  O008G  832   0.567   0.829   3.238
    1CAL  O008H  833   0.871   0.715   2.545
    1CAL  O008I  834   1.566   0.024   3.238
    1CAL  O008J  835   1.564   0.182   3.079
    1CAL  O008K  836   0.433   0.427   3.238
    1CAL  O008L  837   0.435   0.585   3.079
    1CAL  O008M  838   1.686   0.086   2.773
    1CAL  O008N  839   1.686   1.535   2.931
    1CAL  O008O  840   1.879   0.007   2.852
    1CAL  O008P  841   0.379   0.008   2.852
    1CAL  O008Q  842   0.186   1.535   2.931
    1CAL  O008R  843   0.185   0.086   2.773
    1CAL  O008S  844   1.186   0.086   2.773
    1CAL  O008T  845   1.186   1.535   2.931
    1CAL  O008U  846   1.379   0.008   2.852
    1CAL  O008V  847   1.064   0.794   2.466
    1CAL  O008W  848   1.815   0.489   2.773
    1CAL  O008X  849   0.820   1.480   3.387
    1CAL  O008Y  850   0.811   1.328   3.553
    1CAL  O008Z  851   0.621   1.412   3.467
    1CAL  O008a  852   0.678   1.079   3.386
    1CAL  O008b  853   0.687   0.928   3.552
    1CAL  O008c  854   0.877   1.010   3.465
    1CAL  O008d  855   0.877   0.207   3.466
    1CAL  O008e  856   0.687   0.124   3.553
    1CAL  O008f  857   0.678   0.275   3.387
    1CAL  O008g  858   0.621   0.609   3.466
    1CAL  O008h  859   0.811   0.525   3.552
    1CAL  O008i  860   0.820   0.677   3.387
    1CAL  O008j  861   1.679   1.079   3.386
    1CAL  O008k  862   1.877   1.010   3.466
    1CAL  O008l  863   1.687   0.927   3.552
    1CAL  O008m  864   1.622   1.411   3.466
    1CAL  O008n  865   1.811   1.328   3.552
    1CAL  O008o  866   1.820   1.480   3.387
    1CAL  O008p  867   1.678   0.275   3.387
    1CAL  O008q  868   1.877   0.207   3.466
    1CAL  O008r  869   1.687   0.124   3.553
    1CAL  O008s  870   1.621   0.608   3.466
    1CAL  O008t  871   1.811   0.525   3.552
    1CAL  O008u  872   1.820   0.677   3.387
    1CAL  O008v  873   1.311   1.328   3.553
    1CAL  O008w  874   1.121   1.411   3.467
    1CAL  O008x  875   1.320   1.479   3.387
    1CAL  O008y  876   1.179   1.078   3.387
    1CAL  O008z  877   1.188   0.926   3.553
    1CAL  O0090  878   1.378   1.010   3.467
    1CAL  O0091  879   1.311   0.525   3.553
    1CAL  O0092  880   1.320   0.676   3.387
    1CAL  O0093  881   1.121   0.609   3.466
    1CAL  O0094  882   1.179   0.275   3.388
    1CAL  O0095  883   1.187   0.123   3.553
    1CAL  O0096  884   1.377   0.207   3.468
    1CAL  O0097  885   0.310   1.328   3.554
    1CAL  O0098  886   0.121   1.412   3.467
    1CAL  O0099  887   0.320   1.479   3.388
    1CAL  O009A  888   0.179   1.078   3.388
    1CAL  O009B  889   0.188   0.926   3.553
    1CAL  O009C  890   0.378   1.010   3.469
    1CAL  O009D  891   0.310   0.526   3.554
    1CAL  O009E  892   0.121   0.609   3.466
    1CAL  O009F  893   0.320   0.677   3.387
    1CAL  O009G  894   0.377   0.207   3.469
    1CAL  O009H  895   0.187   0.123   3.554
    1CAL  O009I  896   0.179   0.275   3.389
    1CAL  Ca025  897   1.002   0.810   3.464
    1CAL  Ca026  898   1.750   0.514   2.545
    1CAL  Ca027  899   1.496   1.211   3.465
    1CAL  Ca028  900   0.002   0.810   3.465
    1CAL  Ca029  901   0.750   1.507   3.160
    1CAL  Ca02A  902   1.750   0.916   2.545
    1CAL  Ca02B  903   1.500   0.611   2.852
    1CAL  Ca02C  904   1.500   1.413   2.852
    1CAL  Ca02D  905   0.249   1.106   3.159
    1CAL  Ca02E  906   1.000   1.413   2.852
    1CAL  Ca02F  907   0.502   0.007   3.465
    1CAL  Ca02G  908   0.250   0.514   2.545
    1CAL  Ca02H  909   0.250   0.705   3.160
    1CAL  Ca02I  910   1.997   0.408   3.465
    1CAL  Ca02J  911   1.997   1.211   3.465
    1CAL  Ca02K  912   1.749   1.106   3.158
    1CAL  Ca02L  913   1.250   0.112   2.545
    1CAL  Ca02M  914   2.000   1.413   2.852
    1CAL  Ca02N  915   1.750   0.112   2.545
    1CAL  Ca02O  916   0.495   0.409   3.465
    1CAL  Ca02P  917   0.002   0.007   3.466
    1CAL  Ca02Q  918   1.751   0.705   3.160
    1CAL  Ca02R  919   0.250   0.916   2.545
    1CAL  Ca02S  920   2.000   0.611   2.852
    1CAL  Ca02T  921   1.500   1.012   2.851
    1CAL  Ca02U  922   0.250   1.508   3.160
    1CAL  Ca02V  923   1.750   1.317   2.546
    1CAL  Ca02W  924   0.500   1.012   2.851
    1CAL  Ca02X  925   0.496   1.212   3.465
    1CAL  Ca02Y  926   2.000   0.209   2.852
    1CAL  Ca02Z  927   0.500   1.413   2.852
    1CAL  Ca02a  928   1.496   0.408   3.465
    1CAL  Ca02b  929   1.250   0.916   2.545
    1CAL  Ca02c  930   0.750   0.916   2.545
    1CAL  Ca02d  931   1.000   0.209   2.852
    1CAL  Ca02e  932   1.000   1.012   2.851
    1CAL  Ca02f  933   0.500   0.611   2.852
    1CAL  Ca02g  934   1.000   0.611   2.852
    1CAL  Ca02h  935   0.749   1.106   3.159
    1CAL  Ca02i  936   0.250   0.112   2.545
    1CAL  Ca02j  937   0.750   0.514   2.545
    1CAL  Ca02k  938   1.250   0.514   2.545
    1CAL  Ca02l  939   1.249   1.106   3.159
    1CAL  Ca02m  940   1.250   1.507   3.160
    1CAL  Ca02n  941   1.749   0.303   3.160
    1CAL  Ca02o  942   1.002   0.007   3.465
    1CAL  Ca02p  943   0.748   0.303   3.160
    1CAL  Ca02q  944   0.503   0.810   3.464
    1CAL  Ca02r  945   0.500   0.209   2.852
    1CAL  Ca02s  946   0.750   0.112   2.545
    1CAL  Ca02t  947   1.250   1.317   2.546
    1CAL  Ca02u  948   1.249   0.303   3.160
    1CAL  Ca02v  949   0.996   0.408   3.465
    1CAL  Ca02w  950   0.750   1.317   2.546
    1CAL  Ca02x  951   0.996   1.211   3.465
    1CAL  Ca02y  952   0.250   1.317   2.546
    1CAL  Ca02z  953   1.500   0.209   2.852
    1CAL  Ca030  954   1.503   0.810   3.464
    1CAL  Ca031  955   1.502   0.006   3.465
    1CAL  Ca032  956   0.750   0.705   3.160
    1CAL  Ca033  957   1.750   1.508   3.160
    1CAL  Ca034  958   1.250   0.705   3.160
    1CAL  Ca035  959   0.249   0.303   3.160
    1CAL  Ca036  960   2.000   1.012   2.851
    1CAL  C0037  961   2.000   3.123   0.089
    1CAL  C0038  962   1.250   1.613   0.396
    1CAL  C0039  963   0.250   1.613   0.396
    1CAL  C003A  964   1.499   2.111   0.702
    1CAL  C003B  965   1.499   2.914   0.702
    1CAL  C003C  966   0.750   1.613   0.396
    1CAL  C003D  967   1.000   2.321   0.089
    1CAL  C003E  968   1.250   2.818   0.393
    1CAL  C003F  969   0.750   2.818   0.394
    1CAL  C003G  970   0.500   2.513   0.703
    1CAL  C003H  971   0.500   1.919   0.089
    1CAL  C003I  972   1.000   2.723   0.089
    1CAL  C003J  973   1.000   1.919   0.089
    1CAL  C003K  974   0.250   2.016   0.396
    1CAL  C003L  975   0.500   1.709   0.703
    1CAL  C003M  976   1.000   2.513   0.702
    1CAL  C003N  977   1.750   1.613   0.396
    1CAL  C003O  978   1.500   1.709   0.703
    1CAL  C003P  979   0.250   2.418   0.396
    1CAL  C003Q  980   1.999   2.111   0.703
    1CAL  C003R  981   2.000   2.513   0.702
    1CAL  C003S  982   2.000   1.919   0.089
    1CAL  C003T  983   2.000   2.723   0.089
    1CAL  C003U  984   0.250   2.818   0.394
    1CAL  C003V  985   0.499   2.111   0.702
    1CAL  C003W  986   1.500   2.321   0.089
    1CAL  C003X  987   2.000   2.321   0.089
    1CAL  C003Y  988   1.750   2.016   0.396
    1CAL  C003Z  989   1.250   2.016   0.396
    1CAL  C003a  990   1.500   1.919   0.089
    1CAL  C003b  991   1.500   2.513   0.702
    1CAL  C003c  992   0.498   2.914   0.702
    1CAL  C003d  993   1.500   3.123   0.089
    1CAL  C003e  994   0.750   2.016   0.396
    1CAL  C003f  995   1.250   2.418   0.396
    1CAL  C003g  996   0.500   2.723   0.089
    1CAL  C003h  997   1.750   2.818   0.393
    1CAL  C003i  998   1.000   3.123   0.089
    1CAL  C003j  999   1.999   2.914   0.703
    1CAL  C003k 1000   1.000   1.709   0.702
    1CAL  C003l 1001   0.999   2.914   0.702
    1CAL  C003m 1002   0.999   2.111   0.703
    1CAL  C003n 1003   1.750   2.418   0.396
    1CAL  C003o 1004   0.500   3.123   0.089
    1CAL  C003p 1005   1.500   2.723   0.089
    1CAL  C003q 1006   0.500   2.321   0.089
    1CAL  C003r 1007   0.750   2.418   0.396
    1CAL  C003s 1008   2.000   1.709   0.703
    1CAL  C003t 1009   0.751   2.209   1.013
    1CAL  C003u 1010   0.747   1.808   1.013
    1CAL  C003v 1011   0.747   2.611   1.012
    1CAL  C003w 1012   0.751   3.012   1.013
    1CAL  C003x 1013   1.751   2.209   1.013
    1CAL  C003y 1014   1.747   1.808   1.013
    1CAL  C003z 1015   1.751   3.012   1.013
    1CAL  C0040 1016   1.748   2.611   1.012
    1CAL  C0041 1017   1.251   3.012   1.013
    1CAL  C0042 1018   1.248   2.610   1.013
    1CAL  C0043 1019   1.251   2.209   1.013
    1CAL  C0044 1020   1.247   1.807   1.014
    1CAL  C0045 1021   0.251   3.012   1.014
    1CAL  C0046 1022   0.248   2.610   1.014
    1CAL  C0047 1023   0.251   2.210   1.013
    1CAL  C0048 1024   0.247   1.807   1.015
    1CAL  O009J 1025   0.185   2.340   0.475
    1CAL  O009K 1026   1.186   2.497   0.317
    1CAL  O009L 1027   1.185   2.340   0.475
    1CAL  O009M 1028   1.379   2.418   0.397
    1CAL  O009N 1029   0.564   3.044   0.168
    1CAL  O009O 1030   0.371   3.124   0.088
    1CAL  O009P 1031   0.564   2.400   0.010
    1CAL  O009Q 1032   0.686   2.497   0.317
    1CAL  O009R 1033   0.685   2.340   0.475
    1CAL  O009S 1034   0.879   2.418   0.397
    1CAL  O009T 1035   0.565   3.201   0.010
    1CAL  O009U 1036   0.564   2.243   0.168
    1CAL  O009V 1037   0.371   2.321   0.089
    1CAL  O009W 1038   1.128   2.913   0.703
    1CAL  O009X 1039   0.935   2.992   0.622
    1CAL  O009Y 1040   0.936   2.190   0.622
    1CAL  O009Z 1041   0.933   2.033   0.782
    1CAL  O009a 1042   1.128   2.110   0.704
    1CAL  O009b 1043   0.933   2.836   0.782
    1CAL  O009c 1044   0.621   2.016   0.396
    1CAL  O009d 1045   1.063   2.592   0.622
    1CAL  O009e 1046   1.122   2.818   0.393
    1CAL  O009f 1047   1.314   2.739   0.473
    1CAL  O009g 1048   1.315   2.896   0.315
    1CAL  O009h 1049   0.436   1.840   0.168
    1CAL  O009i 1050   0.435   1.997   0.010
    1CAL  O009j 1051   0.621   2.818   0.393
    1CAL  O009k 1052   0.814   2.739   0.473
    1CAL  O009l 1053   0.815   2.896   0.315
    1CAL  O009m 1054   0.314   2.095   0.317
    1CAL  O009n 1055   0.814   1.937   0.475
    1CAL  O009o 1056   0.936   2.802   0.009
    1CAL  O009p 1057   1.129   2.723   0.089
    1CAL  O009q 1058   0.314   1.937   0.476
    1CAL  O009r 1059   0.121   2.016   0.396
    1CAL  O009s 1060   0.814   2.095   0.317
    1CAL  O009t 1061   0.936   1.998   0.009
    1CAL  O009u 1062   0.936   1.840   0.168
    1CAL  O009v 1063   1.129   1.919   0.089
    1CAL  O009w 1064   0.870   2.512   0.703
    1CAL  O009x 1065   1.066   2.435   0.781
    1CAL  O009y 1066   0.935   2.645   0.168
    1CAL  O009z 1067   1.686   2.497   0.317
    1CAL  O00A0 1068   1.685   2.340   0.475
    1CAL  O00A1 1069   1.879   2.418   0.397
    1CAL  O00A2 1070   1.934   2.835   0.782
    1CAL  O00A3 1071   1.936   2.190   0.623
    1CAL  O00A4 1072   1.934   2.032   0.782
    1CAL  O00A5 1073   0.128   2.913   0.704
    1CAL  O00A6 1074   0.064   1.788   0.623
    1CAL  O00A7 1075   1.436   2.802   0.009
    1CAL  O00A8 1076   1.435   2.645   0.168
    1CAL  O00A9 1077   1.629   2.723   0.089
    1CAL  O00AA 1078   0.065   1.631   0.783
    1CAL  O00AB 1079   1.434   2.836   0.782
    1CAL  O00AC 1080   0.065   3.201   0.010
    1CAL  O00AD 1081   0.064   3.044   0.168
    1CAL  O00AE 1082   0.871   3.124   0.088
    1CAL  O00AF 1083   1.871   2.512   0.704
    1CAL  O00AG 1084   1.936   1.840   0.168
    1CAL  O00AH 1085   1.064   1.788   0.623
    1CAL  O00AI 1086   0.436   2.802   0.009
    1CAL  O00AJ 1087   0.435   2.645   0.168
    1CAL  O00AK 1088   0.629   2.723   0.089
    1CAL  O00AL 1089   1.065   1.630   0.782
    1CAL  O00AM 1090   0.433   2.836   0.782
    1CAL  O00AN 1091   0.871   1.709   0.703
    1CAL  O00AO 1092   1.872   2.321   0.089
    1CAL  O00AP 1093   1.065   3.201   0.010
    1CAL  O00AQ 1094   1.064   3.044   0.168
    1CAL  O00AR 1095   1.622   2.818   0.393
    1CAL  O00AS 1096   1.814   2.739   0.473
    1CAL  O00AT 1097   1.815   2.896   0.314
    1CAL  O00AU 1098   1.937   2.802   0.009
    1CAL  O00AV 1099   1.935   2.645   0.168
    1CAL  O00AW 1100   1.936   1.998   0.009
    1CAL  O00AX 1101   0.629   1.919   0.088
    1CAL  O00AY 1102   0.379   2.418   0.397
    1CAL  O00AZ 1103   0.370   2.512   0.706
    1CAL  O00Aa 1104   1.065   2.243   0.168
    1CAL  O00Ab 1105   1.564   3.044   0.168
    1CAL  O00Ac 1106   1.565   3.201   0.010
    1CAL  O00Ad 1107   1.622   2.016   0.396
    1CAL  O00Ae 1108   1.815   1.937   0.475
    1CAL  O00Af 1109   1.372   3.124   0.088
    1CAL  O00Ag 1110   1.121   2.016   0.396
    1CAL  O00Ah 1111   1.314   2.095   0.317
    1CAL  O00Ai 1112   0.628   2.913   0.703
    1CAL  O00Aj 1113   1.436   1.997   0.010
    1CAL  O00Ak 1114   1.436   1.840   0.168
    1CAL  O00Al 1115   1.629   1.919   0.088
    1CAL  O00Am 1116   1.371   2.512   0.705
    1CAL  O00An 1117   1.566   2.435   0.781
    1CAL  O00Ao 1118   1.315   1.937   0.475
    1CAL  O00Ap 1119   1.563   2.593   0.622
    1CAL  O00Aq 1120   0.065   2.243   0.168
    1CAL  O00Ar 1121   1.565   2.243   0.168
    1CAL  O00As 1122   0.186   2.497   0.317
    1CAL  O00At 1123   0.063   2.593   0.622
    1CAL  O00Au 1124   0.065   2.435   0.782
    1CAL  O00Av 1125   0.128   2.110   0.704
    1CAL  O00Aw 1126   0.129   1.919   0.089
    1CAL  O00Ax 1127   0.128   2.723   0.089
    1CAL  O00Ay 1128   1.564   2.400   0.010
    1CAL  O00Az 1129   0.315   2.896   0.315
    1CAL  O00B0 1130   1.872   3.124   0.088
    1CAL  O00B1 1131   1.871   1.709   0.704
    1CAL  O00B2 1132   0.121   2.818   0.393
    1CAL  O00B3 1133   1.935   2.992   0.622
    1CAL  O00B4 1134   0.064   2.400   0.010
    1CAL  O00B5 1135   1.372   2.321   0.089
    1CAL  O00B6 1136   0.314   2.739   0.473
    1CAL  O00B7 1137   0.434   2.993   0.622
    1CAL  O00B8 1138   0.628   2.110   0.703
    1CAL  O00B9 1139   1.371   1.708   0.705
    1CAL  O00BA 1140   1.436   2.190   0.622
    1CAL  O00BB 1141   1.434   2.033   0.782
    1CAL  O00BC 1142   1.629   2.110   0.703
    1CAL  O00BD 1143   0.879   1.613   0.396
    1CAL  O00BE 1144   0.686   3.141   0.475
    1CAL  O00BF 1145   1.434   2.992   0.622
    1CAL  O00BG 1146   1.628   2.913   0.702
    1CAL  O00BH 1147   0.686   1.692   0.317
    1CAL  O00BI 1148   0.563   1.788   0.623
    1CAL  O00BJ 1149   0.566   1.631   0.782
    1CAL  O00BK 1150   0.370   1.709   0.705
    1CAL  O00BL 1151   0.562   2.593   0.622
    1CAL  O00BM 1152   0.567   2.435   0.782
    1CAL  O00BN 1153   0.871   2.321   0.089
    1CAL  O00BO 1154   1.566   1.630   0.782
    1CAL  O00BP 1155   1.564   1.788   0.623
    1CAL  O00BQ 1156   0.433   2.033   0.782
    1CAL  O00BR 1157   0.435   2.191   0.623
    1CAL  O00BS 1158   1.686   1.692   0.317
    1CAL  O00BT 1159   1.686   3.141   0.475
    1CAL  O00BU 1160   1.879   1.613   0.396
    1CAL  O00BV 1161   0.379   1.614   0.396
    1CAL  O00BW 1162   0.186   3.141   0.475
    1CAL  O00BX 1163   0.185   1.692   0.317
    1CAL  O00BY 1164   1.186   1.692   0.317
    1CAL  O00BZ 1165   1.186   3.141   0.475
    1CAL  O00Ba 1166   1.379   1.614   0.396
    1CAL  O00Bb 1167   1.064   2.400   0.010
    1CAL  O00Bc 1168   1.815   2.095   0.317
    1CAL  O00Bd 1169   0.820   3.086   0.931
    1CAL  O00Be 1170   0.811   2.934   1.097
    1CAL  O00Bf 1171   0.621   3.018   1.011
    1CAL  O00Bg 1172   0.678   2.685   0.930
    1CAL  O00Bh 1173   0.687   2.534   1.096
    1CAL  O00Bi 1174   0.877   2.616   1.009
    1CAL  O00Bj 1175   0.877   1.813   1.010
    1CAL  O00Bk 1176   0.687   1.730   1.097
    1CAL  O00Bl 1177   0.678   1.881   0.931
    1CAL  O00Bm 1178   0.621   2.215   1.010
    1CAL  O00Bn 1179   0.811   2.131   1.096
    1CAL  O00Bo 1180   0.820   2.283   0.931
    1CAL  O00Bp 1181   1.679   2.685   0.930
    1CAL  O00Bq 1182   1.877   2.616   1.010
    1CAL  O00Br 1183   1.687   2.533   1.096
    1CAL  O00Bs 1184   1.622   3.017   1.010
    1CAL  O00Bt 1185   1.811   2.934   1.096
    1CAL  O00Bu 1186   1.820   3.086   0.931
    1CAL  O00Bv 1187   1.678   1.881   0.931
    1CAL  O00Bw 1188   1.877   1.813   1.010
    1CAL  O00Bx 1189   1.687   1.730   1.097
    1CAL  O00By 1190   1.621   2.214   1.010
    1CAL  O00Bz 1191   1.811   2.131   1.096
    1CAL  O00C0 1192   1.820   2.283   0.931
    1CAL  O00C1 1193   1.311   2.934   1.097
    1CAL  O00C2 1194   1.121   3.017   1.011
    1CAL  O00C3 1195   1.320   3.085   0.931
    1CAL  O00C4 1196   1.179   2.684   0.931
    1CAL  O00C5 1197   1.188   2.532   1.097
    1CAL  O00C6 1198   1.378   2.616   1.011
    1CAL  O00C7 1199   1.311   2.131   1.097
    1CAL  O00C8 1200   1.320   2.282   0.931
    1CAL  O00C9 1201   1.121   2.215   1.010
    1CAL  O00CA 1202   1.179   1.881   0.932
    1CAL  O00CB 1203   1.187   1.729   1.097
    1CAL  O00CC 1204   1.377   1.813   1.012
    1CAL  O00CD 1205   0.310   2.934   1.098
    1CAL  O00CE 1206   0.121   3.018   1.011
    1CAL  O00CF 1207   0.320   3.085   0.932
    1CAL  O00CG 1208   0.179   2.684   0.932
    1CAL  O00CH 1209   0.188   2.532   1.097
    1CAL  O00CI 1210   0.378   2.616   1.013
    1CAL  O00CJ 1211   0.310   2.132   1.098
    1CAL  O00CK 1212   0.121   2.215   1.010
    1CAL  O00CL 1213   0.320   2.283   0.931
    1CAL  O00CM 1214   0.377   1.813   1.013
    1CAL  O00CN 1215   0.187   1.729   1.098
    1CAL  O00CO 1216   0.179   1.881   0.933
    1CAL  Ca037 1217   1.002   2.416   1.008
    1CAL  Ca038 1218   1.750   2.120   0.089
    1CAL  Ca039 1219   1.496   2.817   1.009
    1CAL  Ca03A 1220   0.002   2.416   1.009
    1CAL  Ca03B 1221   0.750   3.113   0.704
    1CAL  Ca03C 1222   1.750   2.522   0.089
    1CAL  Ca03D 1223   1.500   2.217   0.396
    1CAL  Ca03E 1224   1.500   3.019   0.396
    1CAL  Ca03F 1225   0.249   2.712   0.703
    1CAL  Ca03G 1226   1.000   3.019   0.396
    1CAL  Ca03H 1227   0.502   1.613   1.009
    1CAL  Ca03I 1228   0.250   2.120   0.089
    1CAL  Ca03J 1229   0.250   2.311   0.704
    1CAL  Ca03K 1230   1.997   2.014   1.009
    1CAL  Ca03L 1231   1.997   2.817   1.009
    1CAL  Ca03M 1232   1.749   2.712   0.702
    1CAL  Ca03N 1233   1.250   1.718   0.089
    1CAL  Ca03O 1234   2.000   3.019   0.396
    1CAL  Ca03P 1235   1.750   1.718   0.089
    1CAL  Ca03Q 1236   0.495   2.015   1.009
    1CAL  Ca03R 1237   0.002   1.613   1.010
    1CAL  Ca03S 1238   1.751   2.311   0.704
    1CAL  Ca03T 1239   0.250   2.522   0.089
    1CAL  Ca03U 1240   2.000   2.217   0.396
    1CAL  Ca03V 1241   1.500   2.618   0.395
    1CAL  Ca03W 1242   0.250   3.114   0.704
    1CAL  Ca03X 1243   1.750   2.923   0.090
    1CAL  Ca03Y 1244   0.500   2.618   0.395
    1CAL  Ca03Z 1245   0.496   2.818   1.009
    1CAL  Ca03a 1246   2.000   1.815   0.396
    1CAL  Ca03b 1247   0.500   3.019   0.396
    1CAL  Ca03c 1248   1.496   2.014   1.009
    1CAL  Ca03d 1249   1.250   2.522   0.089
    1CAL  Ca03e 1250   0.750   2.522   0.089
    1CAL  Ca03f 1251   1.000   1.815   0.396
    1CAL  Ca03g 1252   1.000   2.618   0.395
    1CAL  Ca03h 1253   0.500   2.217   0.396
    1CAL  Ca03i 1254   1.000   2.217   0.396
    1CAL  Ca03j 1255   0.749   2.712   0.703
    1CAL  Ca03k 1256   0.250   1.718   0.089
    1CAL  Ca03l 1257   0.750   2.120   0.089
    1CAL  Ca03m 1258   1.250   2.120   0.089
    1CAL  Ca03n 1259   1.249   2.712   0.703
    1CAL  Ca03o 1260   1.250   3.113   0.704
    1CAL  Ca03p 1261   1.749   1.909   0.704
    1CAL  Ca03q 1262   1.002   1.613   1.009
    1CAL  Ca03r 1263   0.748   1.909   0.704
    1CAL  Ca03s 1264   0.503   2.416   1.008
    1CAL  Ca03t 1265   0.500   1.815   0.396
    1CAL  Ca03u 1266   0.750   1.718   0.089
    1CAL  Ca03v 1267   1.250   2.923   0.090
    1CAL  Ca03w 1268   1.249   1.909   0.704
    1CAL  Ca03x 1269   0.996   2.014   1.009
    1CAL  Ca03y 1270   0.750   2.923   0.090
    1CAL  Ca03z 1271   0.996   2.817   1.009
    1CAL  Ca040 1272   0.250   2.923   0.090
    1CAL  Ca041 1273   1.500   1.815   0.396
    1CAL  Ca042 1274   1.503   2.416   1.008
    1CAL  Ca043 1275   1.502   1.612   1.009
    1CAL  Ca044 1276   0.750   2.311   0.704
    1CAL  Ca045 1277   1.750   3.114   0.704
    1CAL  Ca046 1278   1.250   2.311   0.704
    1CAL  Ca047 1279   0.249   1.909   0.704
    1CAL  Ca048 1280   2.000   2.618   0.395
    1CAL  C0049 1281   2.000   3.123   1.317
    1CAL  C004A 1282   1.250   1.613   1.624
    1CAL  C004B 1283   0.250   1.613   1.624
    1CAL  C004C 1284   1.499   2.111   1.930
    1CAL  C004D 1285   1.499   2.914   1.930
    1CAL  C004E 1286   0.750   1.613   1.624
    1CAL  C004F 1287   1.000   2.321   1.317
    1CAL  C004G 1288   1.250   2.818   1.621
    1CAL  C004H 1289   0.750   2.818   1.622
    1CAL  C004I 1290   0.500   2.513   1.931
    1CAL  C004J 1291   0.500   1.919   1.317
    1CAL  C004K 1292   1.000   2.723   1.317
    1CAL  C004L 1293   1.000   1.919   1.317
    1CAL  C004M 1294   0.250   2.016   1.624
    1CAL  C004N 1295   0.500   1.709   1.931
    1CAL  C004O 1296   1.000   2.513   1.930
    1CAL  C004P 1297   1.750   1.613   1.624
    1CAL  C004Q 1298   1.500   1.709   1.931
    1CAL  C004R 1299   0.250   2.418   1.624
    1CAL  C004S 1300   1.999   2.111   1.931
    1CAL  C004T 1301   2.000   2.513   1.930
    1CAL  C004U 1302   2.000   1.919   1.317
    1CAL  C004V 1303   2.000   2.723   1.317
    1CAL  C004W 1304   0.250   2.818   1.622
    1CAL  C004X 1305   0.499   2.111   1.930
    1CAL  C004Y 1306   1.500   2.321   1.317
    1CAL  C004Z 1307   2.000   2.321   1.317
    1CAL  C004a 1308   1.750   2.016   1.624
    1CAL  C004b 1309   1.250   2.016   1.624
    1CAL  C004c 1310   1.500   1.919   1.317
    1CAL  C004d 1311   1.500   2.513   1.930
    1CAL  C004e 1312   0.498   2.914   1.930
    1CAL  C004f 1313   1.500   3.123   1.317
    1CAL  C004g 1314   0.750   2.016   1.624
    1CAL  C004h 1315   1.250   2.418   1.624
    1CAL  C004i 1316   0.500   2.723   1.317
    1CAL  C004j 1317   1.750   2.818   1.621
    1CAL  C004k 1318   1.000   3.123   1.317
    1CAL  C004l 1319   1.999   2.914   1.931
    1CAL  C004m 1320   1.000   1.709   1.930
    1CAL  C004n 1321   0.999   2.914   1.930
    1CAL  C004o 1322   0.999   2.111   1.931
    1CAL  C004p 1323   1.750   2.418   1.624
    1CAL  C004q 1324   0.500   3.123   1.317
    1CAL  C004r 1325   1.500   2.723   1.317
    1CAL  C004s 1326   0.500   2.321   1.317
    1CAL  C004t 1327   0.750   2.418   1.624
    1CAL  C004u 1328   2.000   1.709   1.931
    1CAL  C004v 1329   0.751   2.209   2.241
    1CAL  C004w 1330   0.747   1.808   2.241
    1CAL  C004x 1331   0.747   2.611   2.240
    1CAL  C004y 1332   0.751   3.012   2.241
    1CAL  C004z 1333   1.751   2.209   2.241
    1CAL  C0050 1334   1.747   1.808   2.241
    1CAL  C0051 1335   1.751   3.012   2.241
    1CAL  C0052 1336   1.748   2.611   2.240
    1CAL  C0053 1337   1.251   3.012   2.241
    1CAL  C0054 1338   1.248   2.610   2.241
    1CAL  C0055 1339   1.251   2.209   2.241
    1CAL  C0056 1340   1.247   1.807   2.242
    1CAL  C0057 1341   0.251   3.012   2.242
    1CAL  C0058 1342   0.248   2.610   2.242
    1CAL  C0059 1343   0.251   2.210   2.241
    1CAL  C005A 1344   0.247   1.807   2.243
    1CAL  O00CP 1345   0.185   2.340   1.703
    1CAL  O00CQ 1346   1.186   2.497   1.545
    1CAL  O00CR 1347   1.185   2.340   1.703
    1CAL  O00CS 1348   1.379   2.418   1.625
    1CAL  O00CT 1349   0.564   3.044   1.396
    1CAL  O00CU 1350   0.371   3.124   1.316
    1CAL  O00CV 1351   0.564   2.400   1.238
    1CAL  O00CW 1352   0.686   2.497   1.545
    1CAL  O00CX 1353   0.685   2.340   1.703
    1CAL  O00CY 1354   0.879   2.418   1.625
    1CAL  O00CZ 1355   0.565   3.201   1.238
    1CAL  O00Ca 1356   0.564   2.243   1.396
    1CAL  O00Cb 1357   0.371   2.321   1.317
    1CAL  O00Cc 1358   1.128   2.913   1.931
    1CAL  O00Cd 1359   0.935   2.992   1.850
    1CAL  O00Ce 1360   0.936   2.190   1.850
    1CAL  O00Cf 1361   0.933   2.033   2.010
    1CAL  O00Cg 1362   1.128   2.110   1.932
    1CAL  O00Ch 1363   0.933   2.836   2.010
    1CAL  O00Ci 1364   0.621   2.016   1.624
    1CAL  O00Cj 1365   1.063   2.592   1.850
    1CAL  O00Ck 1366   1.122   2.818   1.621
    1CAL  O00Cl 1367   1.314   2.739   1.701
    1CAL  O00Cm 1368   1.315   2.896   1.543
    1CAL  O00Cn 1369   0.436   1.840   1.396
    1CAL  O00Co 1370   0.435   1.997   1.238
    1CAL  O00Cp 1371   0.621   2.818   1.621
    1CAL  O00Cq 1372   0.814   2.739   1.701
    1CAL  O00Cr 1373   0.815   2.896   1.543
    1CAL  O00Cs 1374   0.314   2.095   1.545
    1CAL  O00Ct 1375   0.814   1.937   1.703
    1CAL  O00Cu 1376   0.936   2.802   1.237
    1CAL  O00Cv 1377   1.129   2.723   1.317
    1CAL  O00Cw 1378   0.314   1.937   1.704
    1CAL  O00Cx 1379   0.121   2.016   1.624
    1CAL  O00Cy 1380   0.814   2.095   1.545
    1CAL  O00Cz 1381   0.936   1.998   1.237
    1CAL  O00D0 1382   0.936   1.840   1.396
    1CAL  O00D1 1383   1.129   1.919   1.317
    1CAL  O00D2 1384   0.870   2.512   1.931
    1CAL  O00D3 1385   1.066   2.435   2.009
    1CAL  O00D4 1386   0.935   2.645   1.396
    1CAL  O00D5 1387   1.686   2.497   1.545
    1CAL  O00D6 1388   1.685   2.340   1.703
    1CAL  O00D7 1389   1.879   2.418   1.625
    1CAL  O00D8 1390   1.934   2.835   2.010
    1CAL  O00D9 1391   1.936   2.190   1.851
    1CAL  O00DA 1392   1.934   2.032   2.010
    1CAL  O00DB 1393   0.128   2.913   1.932
    1CAL  O00DC 1394   0.064   1.788   1.851
    1CAL  O00DD 1395   1.436   2.802   1.237
    1CAL  O00DE 1396   1.435   2.645   1.396
    1CAL  O00DF 1397   1.629   2.723   1.317
    1CAL  O00DG 1398   0.065   1.631   2.011
    1CAL  O00DH 1399   1.434   2.836   2.010
    1CAL  O00DI 1400   0.065   3.201   1.238
    1CAL  O00DJ 1401   0.064   3.044   1.396
    1CAL  O00DK 1402   0.871   3.124   1.316
    1CAL  O00DL 1403   1.871   2.512   1.932
    1CAL  O00DM 1404   1.936   1.840   1.396
    1CAL  O00DN 1405   1.064   1.788   1.851
    1CAL  O00DO 1406   0.436   2.802   1.237
    1CAL  O00DP 1407   0.435   2.645   1.396
    1CAL  O00DQ 1408   0.629   2.723   1.317
    1CAL  O00DR 1409   1.065   1.630   2.010
    1CAL  O00DS 1410   0.433   2.836   2.010
    1CAL  O00DT 1411   0.871   1.709   1.931
    1CAL  O00DU 1412   1.872   2.321   1.317
    1CAL  O00DV 1413   1.065   3.201   1.238
    1CAL  O00DW 1414   1.064   3.044   1.396
    1CAL  O00DX 1415   1.622   2.818   1.621
    1CAL  O00DY 1416   1.814   2.739   1.701
    1CAL  O00DZ 1417   1.815   2.896   1.542
    1CAL  O00Da 1418   1.937   2.802   1.237
    1CAL  O00Db 1419   1.935   2.645   1.396
    1CAL  O00Dc 1420   1.936   1.998   1.237
    1CAL  O00Dd 1421   0.629   1.919   1.316
    1CAL  O00De 1422   0.379   2.418   1.625
    1CAL  O00Df 1423   0.370   2.512   1.934
    1CAL  O00Dg 1424   1.065   2.243   1.396
    1CAL  O00Dh 1425   1.564   3.044   1.396
    1CAL  O00Di 1426   1.565   3.201   1.238
    1CAL  O00Dj 1427   1.622   2.016   1.624
    1CAL  O00Dk 1428   1.815   1.937   1.703
    1CAL  O00Dl 1429   1.372   3.124   1.316
    1CAL  O00Dm 1430   1.121   2.016   1.624
    1CAL  O00Dn 1431   1.314   2.095   1.545
    1CAL  O00Do 1432   0.628   2.913   1.931
    1CAL  O00Dp 1433   1.436   1.997   1.238
    1CAL  O00Dq 1434   1.436   1.840   1.396
    1CAL  O00Dr 1435   1.629   1.919   1.316
    1CAL  O00Ds 1436   1.371   2.512   1.933
    1CAL  O00Dt 1437   1.566   2.435   2.009
    1CAL  O00Du 1438   1.315   1.937   1.703
    1CAL  O00Dv 1439   1.563   2.593   1.850
    1CAL  O00Dw 1440   0.065   2.243   1.396
    1CAL  O00Dx 1441   1.565   2.243   1.396
    1CAL  O00Dy 1442   0.186   2.497   1.545
    1CAL  O00Dz 1443   0.063   2.593   1.850
    1CAL  O00E0 1444   0.065   2.435   2.010
    1CAL  O00E1 1445   0.128   2.110   1.932
    1CAL  O00E2 1446   0.129   1.919   1.317
    1CAL  O00E3 1447   0.128   2.723   1.317
    1CAL  O00E4 1448   1.564   2.400   1.238
    1CAL  O00E5 1449   0.315   2.896   1.543
    1CAL  O00E6 1450   1.872   3.124   1.316
    1CAL  O00E7 1451   1.871   1.709   1.932
    1CAL  O00E8 1452   0.121   2.818   1.621
    1CAL  O00E9 1453   1.935   2.992   1.850
    1CAL  O00EA 1454   0.064   2.400   1.238
    1CAL  O00EB 1455   1.372   2.321   1.317
    1CAL  O00EC 1456   0.314   2.739   1.701
    1CAL  O00ED 1457   0.434   2.993   1.850
    1CAL  O00EE 1458   0.628   2.110   1.931
    1CAL  O00EF 1459   1.371   1.708   1.933
    1CAL  O00EG 1460   1.436   2.190   1.850
    1CAL  O00EH 1461   1.434   2.033   2.010
    1CAL  O00EI 1462   1.629   2.110   1.931
    1CAL  O00EJ 1463   0.879   1.613   1.624
    1CAL  O00EK 1464   0.686   3.141   1.703
    1CAL  O00EL 1465   1.434   2.992   1.850
    1CAL  O00EM 1466   1.628   2.913   1.930
    1CAL  O00EN 1467   0.686   1.692   1.545
    1CAL  O00EO 1468   0.563   1.788   1.851
    1CAL  O00EP 1469   0.566   1.631   2.010
    1CAL  O00EQ 1470   0.370   1.709   1.933
    1CAL  O00ER 1471   0.562   2.593   1.850
    1CAL  O00ES 1472   0.567   2.435   2.010
    1CAL  O00ET 1473   0.871   2.321   1.317
    1CAL  O00EU 1474   1.566   1.630   2.010
    1CAL  O00EV 1475   1.564   1.788   1.851
    1CAL  O00EW 1476   0.433   2.033   2.010
    1CAL  O00EX 1477   0.435   2.191   1.851
    1CAL  O00EY 1478   1.686   1.692   1.545
    1CAL  O00EZ 1479   1.686   3.141   1.703
    1CAL  O00Ea 1480   1.879   1.613   1.624
    1CAL  O00Eb 1481   0.379   1.614   1.624
    1CAL  O00Ec 1482   0.186   3.141   1.703
    1CAL  O00Ed 1483   0.185   1.692   1.545
    1CAL  O00Ee 1484   1.186   1.692   1.545
    1CAL  O00Ef 1485   1.186   3.141   1.703
    1CAL  O00Eg 1486   1.379   1.614   1.624
    1CAL  O00Eh 1487   1.064   2.400   1.238
    1CAL  O00Ei 1488   1.815   2.095   1.545
    1CAL  O00Ej 1489   0.820   3.086   2.159
    1CAL  O00Ek 1490   0.811   2.934   2.325
    1CAL  O00El 1491   0.621   3.018   2.239
    1CAL  O00Em 1492   0.678   2.685   2.158
    1CAL  O00En 1493   0.687   2.534   2.324
    1CAL  O00Eo 1494   0.877   2.616   2.237
    1CAL  O00Ep 1495   0.877   1.813   2.238
    1CAL  O00Eq 1496   0.687   1.730   2.325
    1CAL  O00Er 1497   0.678   1.881   2.159
    1CAL  O00Es 1498   0.621   2.215   2.238
    1CAL  O00Et 1499   0.811   2.131   2.324
    1CAL  O00Eu 1500   0.820   2.283   2.159
    1CAL  O00Ev 1501   1.679   2.685   2.158
    1CAL  O00Ew 1502   1.877   2.616   2.238
    1CAL  O00Ex 1503   1.687   2.533   2.324
    1CAL  O00Ey 1504   1.622   3.017   2.238
    1CAL  O00Ez 1505   1.811   2.934   2.324
    1CAL  O00F0 1506   1.820   3.086   2.159
    1CAL  O00F1 1507   1.678   1.881   2.159
    1CAL  O00F2 1508   1.877   1.813   2.238
    1CAL  O00F3 1509   1.687   1.730   2.325
    1CAL  O00F4 1510   1.621   2.214   2.238
    1CAL  O00F5 1511   1.811   2.131   2.324
    1CAL  O00F6 1512   1.820   2.283   2.159
    1CAL  O00F7 1513   1.311   2.934   2.325
    1CAL  O00F8 1514   1.121   3.017   2.239
    1CAL  O00F9 1515   1.320   3.085   2.159
    1CAL  O00FA 1516   1.179   2.684   2.159
    1CAL  O00FB 1517   1.188   2.532   2.325
    1CAL  O00FC 1518   1.378   2.616   2.239
    1CAL  O00FD 1519   1.311   2.131   2.325
    1CAL  O00FE 1520   1.320   2.282   2.159
    1CAL  O00FF 1521   1.121   2.215   2.238
    1CAL  O00FG 1522   1.179   1.881   2.160
    1CAL  O00FH 1523   1.187   1.729   2.325
    1CAL  O00FI 1524   1.377   1.813   2.240
    1CAL  O00FJ 1525   0.310   2.934   2.326
    1CAL  O00FK 1526   0.121   3.018   2.239
    1CAL  O00FL 1527   0.320   3.085   2.160
    1CAL  O00FM 1528   0.179   2.684   2.160
    1CAL  O00FN 1529   0.188   2.532   2.325
    1CAL  O00FO 1530   0.378   2.616   2.241
    1CAL  O00FP 1531   0.310   2.132   2.326
    1CAL  O00FQ 1532   0.121   2.215   2.238
    1CAL  O00FR 1533   0.320   2.283   2.159
    1CAL  O00FS 1534   0.377   1.813   2.241
    1CAL  O00FT 1535   0.187   1.729   2.326
    1CAL  O00FU 1536   0.179   1.881   2.161
    1CAL  Ca049 1537   1.002   2.416   2.236
    1CAL  Ca04A 1538   1.750   2.120   1.317
    1CAL  Ca04B 1539   1.496   2.817   2.237
    1CAL  Ca04C 1540   0.002   2.416   2.237
    1CAL  Ca04D 1541   0.750   3.113   1.932
    1CAL  Ca04E 1542   1.750   2.522   1.317
    1CAL  Ca04F 1543   1.500   2.217   1.624
    1CAL  Ca04G 1544   1.500   3.019   1.624
    1CAL  Ca04H 1545   0.249   2.712   1.931
    1CAL  Ca04I 1546   1.000   3.019   1.624
    1CAL  Ca04J 1547   0.502   1.613   2.237
    1CAL  Ca04K 1548   0.250   2.120   1.317
    1CAL  Ca04L 1549   0.250   2.311   1.932
    1CAL  Ca04M 1550   1.997   2.014   2.237
    1CAL  Ca04N 1551   1.997   2.817   2.237
    1CAL  Ca04O 1552   1.749   2.712   1.930
    1CAL  Ca04P 1553   1.250   1.718   1.317
    1CAL  Ca04Q 1554   2.000   3.019   1.624
    1CAL  Ca04R 1555   1.750   1.718   1.317
    1CAL  Ca04S 1556   0.495   2.015   2.237
    1CAL  Ca04T 1557   0.002   1.613   2.238
    1CAL  Ca04U 1558   1.751   2.311   1.932
    1CAL  Ca04V 1559   0.250   2.522   1.317
    1CAL  Ca04W 1560   2.000   2.217   1.624
    1CAL  Ca04X 1561   1.500   2.618   1.623
    1CAL  Ca04Y 1562   0.250   3.114   1.932
    1CAL  Ca04Z 1563   1.750   2.923   1.318
    1CAL  Ca04a 1564   0.500   2.618   1.623
    1CAL  Ca04b 1565   0.496   2.818   2.237
    1CAL  Ca04c 1566   2.000   1.815   1.624
    1CAL  Ca04d 1567   0.500   3.019   1.624
    1CAL  Ca04e 1568   1.496   2.014   2.237
    1CAL  Ca04f 1569   1.250   2.522   1.317
    1CAL  Ca04g 1570   0.750   2.522   1.317
    1CAL  Ca04h 1571   1.000   1.815   1.624
    1CAL  Ca04i 1572   1.000   2.618   1.623
    1CAL  Ca04j 1573   0.500   2.217   1.624
    1CAL  Ca04k 1574   1.000   2.217   1.624
    1CAL  Ca04l 1575   0.749   2.712   1.931
    1CAL  Ca04m 1576   0.250   1.718   1.317
    1CAL  Ca04n 1577   0.750   2.120   1.317
    1CAL  Ca04o 1578   1.250   2.120   1.317
    1CAL  Ca04p 1579   1.249   2.712   1.931
    1CAL  Ca04q 1580   1.250   3.113   1.932
    1CAL  Ca04r 1581   1.749   1.909   1.932
    1CAL  Ca04s 1582   1.002   1.613   2.237
    1CAL  Ca04t 1583   0.748   1.909   1.932
    1CAL  Ca04u 1584   0.503   2.416   2.236
    1CAL  Ca04v 1585   0.500   1.815   1.624
    1CAL  Ca04w 1586   0.750   1.718   1.317
    1CAL  Ca04x 1587   1.250   2.923   1.318
    1CAL  Ca04y 1588   1.249   1.909   1.932
    1CAL  Ca04z 1589   0.996   2.014   2.237
    1CAL  Ca050 1590   0.750   2.923   1.318
    1CAL  Ca051 1591   0.996   2.817   2.237
    1CAL  Ca052 1592   0.250   2.923   1.318
    1CAL  Ca053 1593   1.500   1.815   1.624
    1CAL  Ca054 1594   1.503   2.416   2.236
    1CAL  Ca055 1595   1.502   1.612   2.237
    1CAL  Ca056 1596   0.750   2.311   1.932
    1CAL  Ca057 1597   1.750   3.114   1.932
    1CAL  Ca058 1598   1.250   2.311   1.932
    1CAL  Ca059 1599   0.249   1.909   1.932
    1CAL  Ca05A 1600   2.000   2.618   1.623
    1CAL  C005B 1601   2.000   3.123   2.545
    1CAL  C005C 1602   1.250   1.613   2.852
    1CAL  C005D 1603   0.250   1.613   2.852
    1CAL  C005E 1604   1.499   2.111   3.158
    1CAL  C005F 1605   1.499   2.914   3.158
    1CAL  C005G 1606   0.750   1.613   2.852
    1CAL  C005H 1607   1.000   2.321   2.545
    1CAL  C005I 1608   1.250   2.818   2.849
    1CAL  C005J 1609   0.750   2.818   2.850
    1CAL  C005K 1610   0.500   2.513   3.159
    1CAL  C005L 1611   0.500   1.919   2.545
    1CAL  C005M 1612   1.000   2.723   2.545
    1CAL  C005N 1613   1.000   1.919   2.545
    1CAL  C005O 1614   0.250   2.016   2.852
    1CAL  C005P 1615   0.500   1.709   3.159
    1CAL  C005Q 1616   1.000   2.513   3.158
    1CAL  C005R 1617   1.750   1.613   2.852
    1CAL  C005S 1618   1.500   1.709   3.159
    1CAL  C005T 1619   0.250   2.418   2.852
    1CAL  C005U 1620   1.999   2.111   3.159
    1CAL  C005V 1621   2.000   2.513   3.158
    1CAL  C005W 1622   2.000   1.919   2.545
    1CAL  C005X 1623   2.000   2.723   2.545
    1CAL  C005Y 1624   0.250   2.818   2.850
    1CAL  C005Z 1625   0.499   2.111   3.158
    1CAL  C005a 1626   1.500   2.321   2.545
    1CAL  C005b 1627   2.000   2.321   2.545
    1CAL  C005c 1628   1.750   2.016   2.852
    1CAL  C005d 1629   1.250   2.016   2.852
    1CAL  C005e 1630   1.500   1.919   2.545
    1CAL  C005f 1631   1.500   2.513   3.158
    1CAL  C005g 1632   0.498   2.914   3.158
    1CAL  C005h 1633   1.500   3.123   2.545
    1CAL  C005i 1634   0.750   2.016   2.852
    1CAL  C005j 1635   1.250   2.418   2.852
    1CAL  C005k 1636   0.500   2.723   2.545
    1CAL  C005l 1637   1.750   2.818   2.849
    1CAL  C005m 1638   1.000   3.123   2.545
    1CAL  C005n 1639   1.999   2.914   3.159
    1CAL  C005o 1640   1.000   1.709   3.158
    1CAL  C005p 1641   0.999   2.914   3.158
    1CAL  C005q 1642   0.999   2.111   3.159
    1CAL  C005r 1643   1.750   2.418   2.852
    1CAL  C005s 1644   0.500   3.123   2.545
    1CAL  C005t 1645   1.500   2.723   2.545
    1CAL  C005u 1646   0.500   2.321   2.545
    1CAL  C005v 1647   0.750   2.418   2.852
    1CAL  C005w 1648   2.000   1.709   3.159
    1CAL  C005x 1649   0.751   2.209   3.469
    1CAL  C005y 1650   0.747   1.808   3.469
    1CAL  C005z 1651   0.747   2.611   3.468
    1CAL  C0060 1652   0.751   3.012   3.469
    1CAL  C0061 1653   1.751   2.209   3.469
    1CAL  C0062 1654   1.747   1.808   3.469
    1CAL  C0063 1655   1.751   3.012   3.469
    1CAL  C0064 1656   1.748   2.611   3.468
    1CAL  C0065 1657   1.251   3.012   3.469
    1CAL  C0066 1658   1.248   2.610   3.469
    1CAL  C0067 1659   1.251   2.209   3.469
    1CAL  C0068 1660   1.247   1.807   3.470
    1CAL  C0069 1661   0.251   3.012   3.470
    1CAL  C006A 1662   0.248   2.610   3.470
    1CAL  C006B 1663   0.251   2.210   3.469
    1CAL  C006C 1664   0.247   1.807   3.471
    1CAL  O00FV 1665   0.185   2.340   2.931
    1CAL  O00FW 1666   1.186   2.497   2.773
    1CAL  O00FX 1667   1.185   2.340   2.931
    1CAL  O00FY 1668   1.379   2.418   2.853
    1CAL  O00FZ 1669   0.564   3.044   2.624
    1CAL  O00Fa 1670   0.371   3.124   2.544
    1CAL  O00Fb 1671   0.564   2.400   2.466
    1CAL  O00Fc 1672   0.686   2.497   2.773
    1CAL  O00Fd 1673   0.685   2.340   2.931
    1CAL  O00Fe 1674   0.879   2.418   2.853
    1CAL  O00Ff 1675   0.565   3.201   2.466
    1CAL  O00Fg 1676   0.564   2.243   2.624
    1CAL  O00Fh 1677   0.371   2.321   2.545
    1CAL  O00Fi 1678   1.128   2.913   3.159
    1CAL  O00Fj 1679   0.935   2.992   3.078
    1CAL  O00Fk 1680   0.936   2.190   3.078
    1CAL  O00Fl 1681   0.933   2.033   3.238
    1CAL  O00Fm 1682   1.128   2.110   3.160
    1CAL  O00Fn 1683   0.933   2.836   3.238
    1CAL  O00Fo 1684   0.621   2.016   2.852
    1CAL  O00Fp 1685   1.063   2.592   3.078
    1CAL  O00Fq 1686   1.122   2.818   2.849
    1CAL  O00Fr 1687   1.314   2.739   2.929
    1CAL  O00Fs 1688   1.315   2.896   2.771
    1CAL  O00Ft 1689   0.436   1.840   2.624
    1CAL  O00Fu 1690   0.435   1.997   2.466
    1CAL  O00Fv 1691   0.621   2.818   2.849
    1CAL  O00Fw 1692   0.814   2.739   2.929
    1CAL  O00Fx 1693   0.815   2.896   2.771
    1CAL  O00Fy 1694   0.314   2.095   2.773
    1CAL  O00Fz 1695   0.814   1.937   2.931
    1CAL  O00G0 1696   0.936   2.802   2.465
    1CAL  O00G1 1697   1.129   2.723   2.545
    1CAL  O00G2 1698   0.314   1.937   2.932
    1CAL  O00G3 1699   0.121   2.016   2.852
    1CAL  O00G4 1700   0.814   2.095   2.773
    1CAL  O00G5 1701   0.936   1.998   2.465
    1CAL  O00G6 1702   0.936   1.840   2.624
    1CAL  O00G7 1703   1.129   1.919   2.545
    1CAL  O00G8 1704   0.870   2.512   3.159
    1CAL  O00G9 1705   1.066   2.435   3.237
    1CAL  O00GA 1706   0.935   2.645   2.624
    1CAL  O00GB 1707   1.686   2.497   2.773
    1CAL  O00GC 1708   1.685   2.340   2.931
    1CAL  O00GD 1709   1.879   2.418   2.853
    1CAL  O00GE 1710   1.934   2.835   3.238
    1CAL  O00GF 1711   1.936   2.190   3.079
    1CAL  O00GG 1712   1.934   2.032   3.238
    1CAL  O00GH 1713   0.128   2.913   3.160
    1CAL  O00GI 1714   0.064   1.788   3.079
    1CAL  O00GJ 1715   1.436   2.802   2.465
    1CAL  O00GK 1716   1.435   2.645   2.624
    1CAL  O00GL 1717   1.629   2.723   2.545
    1CAL  O00GM 1718   0.065   1.631   3.239
    1CAL  O00GN 1719   1.434   2.836   3.238
    1CAL  O00GO 1720   0.065   3.201   2.466
    1CAL  O00GP 1721   0.064   3.044   2.624
    1CAL  O00GQ 1722   0.871   3.124   2.544
    1CAL  O00GR 1723   1.871   2.512   3.160
    1CAL  O00GS 1724   1.936   1.840   2.624
    1CAL  O00GT 1725   1.064   1.788   3.079
    1CAL  O00GU 1726   0.436   2.802   2.465
    1CAL  O00GV 1727   0.435   2.645   2.624
    1CAL  O00GW 1728   0.629   2.723   2.545
    1CAL  O00GX 1729   1.065   1.630   3.238
    1CAL  O00GY 1730   0.433   2.836   3.238
    1CAL  O00GZ 1731   0.871   1.709   3.159
    1CAL  O00Ga 1732   1.872   2.321   2.545
    1CAL  O00Gb 1733   1.065   3.201   2.466
    1CAL  O00Gc 1734   1.064   3.044   2.624
    1CAL  O00Gd 1735   1.622   2.818   2.849
    1CAL  O00Ge 1736   1.814   2.739   2.929
    1CAL  O00Gf 1737   1.815   2.896   2.770
    1CAL  O00Gg 1738   1.937   2.802   2.465
    1CAL  O00Gh 1739   1.935   2.645   2.624
    1CAL  O00Gi 1740   1.936   1.998   2.465
    1CAL  O00Gj 1741   0.629   1.919   2.544
    1CAL  O00Gk 1742   0.379   2.418   2.853
    1CAL  O00Gl 1743   0.370   2.512   3.162
    1CAL  O00Gm 1744   1.065   2.243   2.624
    1CAL  O00Gn 1745   1.564   3.044   2.624
    1CAL  O00Go 1746   1.565   3.201   2.466
    1CAL  O00Gp 1747   1.622   2.016   2.852
    1CAL  O00Gq 1748   1.815   1.937   2.931
    1CAL  O00Gr 1749   1.372   3.124   2.544
    1CAL  O00Gs 1750   1.121   2.016   2.852
    1CAL  O00Gt 1751   1.314   2.095   2.773
    1CAL  O00Gu 1752   0.628   2.913   3.159
    1CAL  O00Gv 1753   1.436   1.997   2.466
    1CAL  O00Gw 1754   1.436   1.840   2.624
    1CAL  O00Gx 1755   1.629   1.919   2.544
    1CAL  O00Gy 1756   1.371   2.512   3.161
    1CAL  O00Gz 1757   1.566   2.435   3.237
    1CAL  O00H0 1758   1.315   1.937   2.931
    1CAL  O00H1 1759   1.563   2.593   3.078
    1CAL  O00H2 1760   0.065   2.243   2.624
    1CAL  O00H3 1761   1.565   2.243   2.624
    1CAL  O00H4 1762   0.186   2.497   2.773
    1CAL  O00H5 1763   0.063   2.593   3.078
    1CAL  O00H6 1764   0.065   2.435   3.238
    1CAL  O00H7 1765   0.128   2.110   3.160
    1CAL  O00H8 1766   0.129   1.919   2.545
    1CAL  O00H9 1767   0.128   2.723   2.545
    1CAL  O00HA 1768   1.564   2.400   2.466
    1CAL  O00HB 1769   0.315   2.896   2.771
    1CAL  O00HC 1770   1.872   3.124   2.544
    1CAL  O00HD 1771   1.871   1.709   3.160
    1CAL  O00HE 1772   0.121   2.818   2.849
    1CAL  O00HF 1773   1.935   2.992   3.078
    1CAL  O00HG 1774   0.064   2.400   2.466
    1CAL  O00HH 1775   1.372   2.321   2.545
    1CAL  O00HI 1776   0.314   2.739   2.929
    1CAL  O00HJ 1777   0.434   2.993   3.078
    1CAL  O00HK 1778   0.628   2.110   3.159
    1CAL  O00HL 1779   1.371   1.708   3.161
    1CAL  O00HM 1780   1.436   2.190   3.078
    1CAL  O00HN 1781   1.434   2.033   3.238
    1CAL  O00HO 1782   1.629   2.110   3.159
    1CAL  O00HP 1783   0.879   1.613   2.852
    1CAL  O00HQ 1784   0.686   3.141   2.931
    1CAL  O00HR 1785   1.434   2.992   3.078
    1CAL  O00HS 1786   1.628   2.913   3.158
    1CAL  O00HT 1787   0.686   1.692   2.773
    1CAL  O00HU 1788   0.563   1.788   3.079
    1CAL  O00HV 1789   0.566   1.631   3.238
    1CAL  O00HW 1790   0.370   1.709   3.161
    1CAL  O00HX 1791   0.562   2.593   3.078
    1CAL  O00HY 1792   0.567   2.435   3.238
    1CAL  O00HZ 1793   0.871   2.321   2.545
    1CAL  O00Ha 1794   1.566   1.630   3.238
    1CAL  O00Hb 1795   1.564   1.788   3.079
    1CAL  O00Hc 1796   0.433   2.033   3.238
    1CAL  O00Hd 1797   0.435   2.191   3.079
    1CAL  O00He 1798   1.686   1.692   2.773
    1CAL  O00Hf 1799   1.686   3.141   2.931
    1CAL  O00Hg 1800   1.879   1.613   2.852
    1CAL  O00Hh 1801   0.379   1.614   2.852
    1CAL  O00Hi 1802   0.186   3.141   2.931
    1CAL  O00Hj 1803   0.185   1.692   2.773
    1CAL  O00Hk 1804   1.186   1.692   2.773
    1CAL  O00Hl 1805   1.186   3.141   2.931
    1CAL  O00Hm 1806   1.379   1.614   2.852
    1CAL  O00Hn 1807   1.064   2.400   2.466
    1CAL  O00Ho 1808   1.815   2.095   2.773
    1CAL  O00Hp 1809   0.820   3.086   3.387
    1CAL  O00Hq 1810   0.811   2.934   3.553
    1CAL  O00Hr 1811   0.621   3.018   3.467
    1CAL  O00Hs 1812   0.678   2.685   3.386
    1CAL  O00Ht 1813   0.687   2.534   3.552
    1CAL  O00Hu 1814   0.877   2.616   3.465
    1CAL  O00Hv 1815   0.877   1.813   3.466
    1CAL  O00Hw 1816   0.687   1.730   3.553
    1CAL  O00Hx 1817   0.678   1.881   3.387
    1CAL  O00Hy 1818   0.621   2.215   3.466
    1CAL  O00Hz 1819   0.811   2.131   3.552
    1CAL  O00I0 1820   0.820   2.283   3.387
    1CAL  O00I1 1821   1.679   2.685   3.386
    1CAL  O00I2 1822   1.877   2.616   3.466
    1CAL  O00I3 1823   1.687   2.533   3.552
    1CAL  O00I4 1824   1.622   3.017   3.466
    1CAL  O00I5 1825   1.811   2.934   3.552
    1CAL  O00I6 1826   1.820   3.086   3.387
    1CAL  O00I7 1827   1.678   1.881   3.387
    1CAL  O00I8 1828   1.877   1.813   3.466
    1CAL  O00I9 1829   1.687   1.730   3.553
    1CAL  O00IA 1830   1.621   2.214   3.466
    1CAL  O00IB 1831   1.811   2.131   3.552
    1CAL  O00IC 1832   1.820   2.283   3.387
    1CAL  O00ID 1833   1.311   2.934   3.553
    1CAL  O00IE 1834   1.121   3.017   3.467
    1CAL  O00IF 1835   1.320   3.085   3.387
    1CAL  O00IG 1836   1.179   2.684   3.387
    1CAL  O00IH 1837   1.188   2.532   3.553
    1CAL  O00II 1838   1.378   2.616   3.467
    1CAL  O00IJ 1839   1.311   2.131   3.553
    1CAL  O00IK 1840   1.320   2.282   3.387
    1CAL  O00IL 1841   1.121   2.215   3.466
    1CAL  O00IM 1842   1.179   1.881   3.388
    1CAL  O00IN 1843   1.187   1.729   3.553
    1CAL  O00IO 1844   1.377   1.813   3.468
    1CAL  O00IP 1845   0.310   2.934   3.554
    1CAL  O00IQ 1846   0.121   3.018   3.467
    1CAL  O00IR 1847   0.320   3.085   3.388
    1CAL  O00IS 1848   0.179   2.684   3.388
    1CAL  O00IT 1849   0.188   2.532   3.553
    1CAL  O00IU 1850   0.378   2.616   3.469
    1CAL  O00IV 1851   0.310   2.132   3.554
    1CAL  O00IW 1852   0.121   2.215   3.466
    1CAL  O00IX 1853   0.320   2.283   3.387
    1CAL  O00IY 1854   0.377   1.813   3.469
    1CAL  O00IZ 1855   0.187   1.729   3.554
    1CAL  O00Ia 1856   0.179   1.881   3.389
    1CAL  Ca05B 1857   1.002   2.416   3.464
    1CAL  Ca05C 1858   1.750   2.120   2.545
    1CAL  Ca05D 1859   1.496   2.817   3.465
    1CAL  Ca05E 1860   0.002   2.416   3.465
    1CAL  Ca05F 1861   0.750   3.113   3.160
    1CAL  Ca05G 1862   1.750   2.522   2.545
    1CAL  Ca05H 1863   1.500   2.217   2.852
    1CAL  Ca05I 1864   1.500   3.019   2.852
    1CAL  Ca05J 1865   0.249   2.712   3.159
    1CAL  Ca05K 1866   1.000   3.019   2.852
    1CAL  Ca05L 1867   0.502   1.613   3.465
    1CAL  Ca05M 1868   0.250   2.120   2.545
    1CAL  Ca05N 1869   0.250   2.311   3.160
    1CAL  Ca05O 1870   1.997   2.014   3.465
    1CAL  Ca05P 1871   1.997   2.817   3.465
    1CAL  Ca05Q 1872   1.749   2.712   3.158
    1CAL  Ca05R 1873   1.250   1.718   2.545
    1CAL  Ca05S 1874   2.000   3.019   2.852
    1CAL  Ca05T 1875   1.750   1.718   2.545
    1CAL  Ca05U 1876   0.495   2.015   3.465
    1CAL  Ca05V 1877   0.002   1.613   3.466
    1CAL  Ca05W 1878   1.751   2.311   3.160
    1CAL  Ca05X 1879   0.250   2.522   2.545
    1CAL  Ca05Y 1880   2.000   2.217   2.852
    1CAL  Ca05Z 1881   1.500   2.618   2.851
    1CAL  Ca05a 1882   0.250   3.114   3.160
    1CAL  Ca05b 1883   1.750   2.923   2.546
    1CAL  Ca05c 1884   0.500   2.618   2.851
    1CAL  Ca05d 1885   0.496   2.818   3.465
    1CAL  Ca05e 1886   2.000   1.815   2.852
    1CAL  Ca05f 1887   0.500   3.019   2.852
    1CAL  Ca05g 1888   1.496   2.014   3.465
    1CAL  Ca05h 1889   1.250   2.522   2.545
    1CAL  Ca05i 1890   0.750   2.522   2.545
    1CAL  Ca05j 1891   1.000   1.815   2.852
    1CAL  Ca05k 1892   1.000   2.618   2.851
    1CAL  Ca05l 1893   0.500   2.217   2.852
    1CAL  Ca05m 1894   1.000   2.217   2.852
    1CAL  Ca05n 1895   0.749   2.712   3.159
    1CAL  Ca05o 1896   0.250   1.718   2.545
    1CAL  Ca05p 1897   0.750   2.120   2.545
    1CAL  Ca05q 1898   1.250   2.120   2.545
    1CAL  Ca05r 1899   1.249   2.712   3.159
    1CAL  Ca05s 1900   1.250   3.113   3.160
    1CAL  Ca05t 1901   1.749   1.909   3.160
    1CAL  Ca05u 1902   1.002   1.613   3.465
    1CAL  Ca05v 1903   0.748   1.909   3.160
    1CAL  Ca05w 1904   0.503   2.416   3.464
    1CAL  Ca05x 1905   0.500   1.815   2.852
    1CAL  Ca05y 1906   0.750   1.718   2.545
    1CAL  Ca05z 1907   1.250   2.923   2.546
    1CAL  Ca060 1908   1.249   1.909   3.160
    1CAL  Ca061 1909   0.996   2.014   3.465
    1CAL  Ca062 1910   0.750   2.923   2.546
    1CAL  Ca063 1911   0.996   2.817   3.465
    1CAL  Ca064 1912   0.250   2.923   2.546
    1CAL  Ca065 1913   1.500   1.815   2.852
    1CAL  Ca066 1914   1.503   2.416   3.464
    1CAL  Ca067 1915   1.502   1.612   3.465
    1CAL  Ca068 1916   0.750   2.311   3.160
    1CAL  Ca069 1917   1.750   3.114   3.160
    1CAL  Ca06A 1918   1.250   2.311   3.160
    1CAL  Ca06B 1919   0.249   1.909   3.160
    1CAL  Ca06C 1920   2.000   2.618   2.851
    1CAL  C006D 1921   2.000   4.730   0.089
    1CAL  C006E 1922   1.250   3.220   0.396
    1CAL  C006F 1923   0.250   3.220   0.396
    1CAL  C006G 1924   1.499   3.718   0.702
    1CAL  C006H 1925   1.499   4.521   0.702
    1CAL  C006I 1926   0.750   3.220   0.396
    1CAL  C006J 1927   1.000   3.928   0.089
    1CAL  C006K 1928   1.250   4.425   0.393
    1CAL  C006L 1929   0.750   4.425   0.394
    1CAL  C006M 1930   0.500   4.120   0.703
    1CAL  C006N 1931   0.500   3.526   0.089
    1CAL  C006O 1932   1.000   4.330   0.089
    1CAL  C006P 1933   1.000   3.526   0.089
    1CAL  C006Q 1934   0.250   3.623   0.396
    1CAL  C006R 1935   0.500   3.316   0.703
    1CAL  C006S 1936   1.000   4.120   0.702
    1CAL  C006T 1937   1.750   3.220   0.396
    1CAL  C006U 1938   1.500   3.316   0.703
    1CAL  C006V 1939   0.250   4.025   0.396
    1CAL  C006W 1940   1.999   3.718   0.703
    1CAL  C006X 1941   2.000   4.120   0.702
    1CAL  C006Y 1942   2.000   3.526   0.089
    1CAL  C006Z 1943   2.000   4.330   0.089
    1CAL  C006a 1944   0.250   4.425   0.394
    1CAL  C006b 1945   0.499   3.718   0.702
    1CAL  C006c 1946   1.500   3.928   0.089
    1CAL  C006d 1947   2.000   3.928   0.089
    1CAL  C006e 1948   1.750   3.623   0.396
    1CAL  C006f 1949   1.250   3.623   0.396
    1CAL  C006g 1950   1.500   3.526   0.089
    1CAL  C006h 1951   1.500   4.120   0.702
    1CAL  C006i 1952   0.498   4.521   0.702
    1CAL  C006j 1953   1.500   4.730   0.089
    1CAL  C006k 1954   0.750   3.623   0.396
    1CAL  C006l 1955   1.250   4.025   0.396
    1CAL  C006m 1956   0.500   4.330   0.089
    1CAL  C006n 1957   1.750   4.425   0.393
    1CAL  C006o 1958   1.000   4.730   0.089
    1CAL  C006p 1959   1.999   4.521   0.703
    1CAL  C006q 1960   1.000   3.316   0.702
    1CAL  C006r 1961   0.999   4.521   0.702
    1CAL  C006s 1962   0.999   3.718   0.703
    1CAL  C006t 1963   1.750   4.025   0.396
    1CAL  C006u 1964   0.500   4.730   0.089
    1CAL  C006v 1965   1.500   4.330   0.089
    1CAL  C006w 1966   0.500   3.928   0.089
    1CAL  C006x 1967   0.750   4.025   0.396
    1CAL  C006y 1968   2.000   3.316   0.703
    1CAL  C006z 1969   0.751   3.816   1.013
    1CAL  C0070 1970   0.747   3.415   1.013
    1CAL  C0071 1971   0.747   4.218   1.012
    1CAL  C0072 1972   0.751   4.619   1.013
    1CAL  C0073 1973   1.751   3.816   1.013
    1CAL  C0074 1974   1.747   3.415   1.013
    1CAL  C0075 1975   1.751   4.619   1.013
    1CAL  C0076 1976   1.748   4.218   1.012
    1CAL  C0077 1977   1.251   4.619   1.013
    1CAL  C0078 1978   1.248   4.217   1.013
    1CAL  C0079 1979   1.251   3.816   1.013
    1CAL  C007A 1980   1.247   3.414   1.014
    1CAL  C007B 1981   0.251   4.619   1.014
    1CAL  C007C 1982   0.248   4.217   1.014
    1CAL  C007D 1983   0.251   3.817   1.013
    1CAL  C007E 1984   0.247   3.414   1.015
    1CAL  O00Ib 1985   0.185   3.947   0.475
    1CAL  O00Ic 1986   1.186   4.104   0.317
    1CAL  O00Id 1987   1.185   3.947   0.475
    1CAL  O00Ie 1988   1.379   4.025   0.397
    1CAL  O00If 1989   0.564   4.651   0.168
    1CAL  O00Ig 1990   0.371   4.731   0.088
    1CAL  O00Ih 1991   0.564   4.007   0.010
    1CAL  O00Ii 1992   0.686   4.104   0.317
    1CAL  O00Ij 1993   0.685   3.947   0.475
    1CAL  O00Ik 1994   0.879   4.025   0.397
    1CAL  O00Il 1995   0.565   4.808   0.010
    1CAL  O00Im 1996   0.564   3.850   0.168
    1CAL  O00In 1997   0.371   3.928   0.089
    1CAL  O00Io 1998   1.128   4.520   0.703
    1CAL  O00Ip 1999   0.935   4.599   0.622
    1CAL  O00Iq 2000   0.936   3.797   0.622
    1CAL  O00Ir 2001   0.933   3.640   0.782
    1CAL  O00Is 2002   1.128   3.717   0.704
    1CAL  O00It 2003   0.933   4.443   0.782
    1CAL  O00Iu 2004   0.621   3.623   0.396
    1CAL  O00Iv 2005   1.063   4.199   0.622
    1CAL  O00Iw 2006   1.122   4.425   0.393
    1CAL  O00Ix 2007   1.314   4.346   0.473
    1CAL  O00Iy 2008   1.315   4.503   0.315
    1CAL  O00Iz 2009   0.436   3.447   0.168
    1CAL  O00J0 2010   0.435   3.604   0.010
    1CAL  O00J1 2011   0.621   4.425   0.393
    1CAL  O00J2 2012   0.814   4.346   0.473
    1CAL  O00J3 2013   0.815   4.503   0.315
    1CAL  O00J4 2014   0.314   3.702   0.317
    1CAL  O00J5 2015   0.814   3.544   0.475
    1CAL  O00J6 2016   0.936   4.409   0.009
    1CAL  O00J7 2017   1.129   4.330   0.089
    1CAL  O00J8 2018   0.314   3.544   0.476
    1CAL  O00J9 2019   0.121   3.623   0.396
    1CAL  O00JA 2020   0.814   3.702   0.317
    1CAL  O00JB 2021   0.936   3.605   0.009
    1CAL  O00JC 2022   0.936   3.447   0.168
    1CAL  O00JD 2023   1.129   3.526   0.089
    1CAL  O00JE 2024   0.870   4.119   0.703
    1CAL  O00JF 2025   1.066   4.042   0.781
    1CAL  O00JG 2026   0.935   4.252   0.168
    1CAL  O00JH 2027   1.686   4.104   0.317
    1CAL  O00JI 2028   1.685   3.947   0.475
    1CAL  O00JJ 2029   1.879   4.025   0.397
    1CAL  O00JK 2030   1.934   4.442   0.782
    1CAL  O00JL 2031   1.936   3.797   0.623
    1CAL  O00JM 2032   1.934   3.639   0.782
    1CAL  O00JN 2033   0.128   4.520   0.704
    1CAL  O00JO 2034   0.064   3.395   0.623
    1CAL  O00JP 2035   1.436   4.409   0.009
    1CAL  O00JQ 2036   1.435   4.252   0.168
    1CAL  O00JR 2037   1.629   4.330   0.089
    1CAL  O00JS 2038   0.065   3.238   0.783
    1CAL  O00JT 2039   1.434   4.443   0.782
    1CAL  O00JU 2040   0.065   4.808   0.010
    1CAL  O00JV 2041   0.064   4.651   0.168
    1CAL  O00JW 2042   0.871   4.731   0.088
    1CAL  O00JX 2043   1.871   4.119   0.704
    1CAL  O00JY 2044   1.936   3.447   0.168
    1CAL  O00JZ 2045   1.064   3.395   0.623
    1CAL  O00Ja 2046   0.436   4.409   0.009
    1CAL  O00Jb 2047   0.435   4.252   0.168
    1CAL  O00Jc 2048   0.629   4.330   0.089
    1CAL  O00Jd 2049   1.065   3.237   0.782
    1CAL  O00Je 2050   0.433   4.443   0.782
    1CAL  O00Jf 2051   0.871   3.316   0.703
    1CAL  O00Jg 2052   1.872   3.928   0.089
    1CAL  O00Jh 2053   1.065   4.808   0.010
    1CAL  O00Ji 2054   1.064   4.651   0.168
    1CAL  O00Jj 2055   1.622   4.425   0.393
    1CAL  O00Jk 2056   1.814   4.346   0.473
    1CAL  O00Jl 2057   1.815   4.503   0.314
    1CAL  O00Jm 2058   1.937   4.409   0.009
    1CAL  O00Jn 2059   1.935   4.252   0.168
    1CAL  O00Jo 2060   1.936   3.605   0.009
    1CAL  O00Jp 2061   0.629   3.526   0.088
    1CAL  O00Jq 2062   0.379   4.025   0.397
    1CAL  O00Jr 2063   0.370   4.119   0.706
    1CAL  O00Js 2064   1.065   3.850   0.168
    1CAL  O00Jt 2065   1.564   4.651   0.168
    1CAL  O00Ju 2066   1.565   4.808   0.010
    1CAL  O00Jv 2067   1.622   3.623   0.396
    1CAL  O00Jw 2068   1.815   3.544   0.475
    1CAL  O00Jx 2069   1.372   4.731   0.088
    1CAL  O00Jy 2070   1.121   3.623   0.396
    1CAL  O00Jz 2071   1.314   3.702   0.317
    1CAL  O00K0 2072   0.628   4.520   0.703
    1CAL  O00K1 2073   1.436   3.604   0.010
    1CAL  O00K2 2074   1.436   3.447   0.168
    1CAL  O00K3 2075   1.629   3.526   0.088
    1CAL  O00K4 2076   1.371   4.119   0.705
    1CAL  O00K5 2077   1.566   4.042   0.781
    1CAL  O00K6 2078   1.315   3.544   0.475
    1CAL  O00K7 2079   1.563   4.200   0.622
    1CAL  O00K8 2080   0.065   3.850   0.168
    1CAL  O00K9 2081   1.565   3.850   0.168
    1CAL  O00KA 2082   0.186   4.104   0.317
    1CAL  O00KB 2083   0.063   4.200   0.622
    1CAL  O00KC 2084   0.065   4.042   0.782
    1CAL  O00KD 2085   0.128   3.717   0.704
    1CAL  O00KE 2086   0.129   3.526   0.089
    1CAL  O00KF 2087   0.128   4.330   0.089
    1CAL  O00KG 2088   1.564   4.007   0.010
    1CAL  O00KH 2089   0.315   4.503   0.315
    1CAL  O00KI 2090   1.872   4.731   0.088
    1CAL  O00KJ 2091   1.871   3.316   0.704
    1CAL  O00KK 2092   0.121   4.425   0.393
    1CAL  O00KL 2093   1.935   4.599   0.622
    1CAL  O00KM 2094   0.064   4.007   0.010
    1CAL  O00KN 2095   1.372   3.928   0.089
    1CAL  O00KO 2096   0.314   4.346   0.473
    1CAL  O00KP 2097   0.434   4.600   0.622
    1CAL  O00KQ 2098   0.628   3.717   0.703
    1CAL  O00KR 2099   1.371   3.315   0.705
    1CAL  O00KS 2100   1.436   3.797   0.622
    1CAL  O00KT 2101   1.434   3.640   0.782
    1CAL  O00KU 2102   1.629   3.717   0.703
    1CAL  O00KV 2103   0.879   3.220   0.396
    1CAL  O00KW 2104   0.686   4.748   0.475
    1CAL  O00KX 2105   1.434   4.599   0.622
    1CAL  O00KY 2106   1.628   4.520   0.702
    1CAL  O00KZ 2107   0.686   3.299   0.317
    1CAL  O00Ka 2108   0.563   3.395   0.623
    1CAL  O00Kb 2109   0.566   3.238   0.782
    1CAL  O00Kc 2110   0.370   3.316   0.705
    1CAL  O00Kd 2111   0.562   4.200   0.622
    1CAL  O00Ke 2112   0.567   4.042   0.782
    1CAL  O00Kf 2113   0.871   3.928   0.089
    1CAL  O00Kg 2114   1.566   3.237   0.782
    1CAL  O00Kh 2115   1.564   3.395   0.623
    1CAL  O00Ki 2116   0.433   3.640   0.782
    1CAL  O00Kj 2117   0.435   3.798   0.623
    1CAL  O00Kk 2118   1.686   3.299   0.317
    1CAL  O00Kl 2119   1.686   4.748   0.475
    1CAL  O00Km 2120   1.879   3.220   0.396
    1CAL  O00Kn 2121   0.379   3.221   0.396
    1CAL  O00Ko 2122   0.186   4.748   0.475
    1CAL  O00Kp 2123   0.185   3.299   0.317
    1CAL  O00Kq 2124   1.186   3.299   0.317
    1CAL  O00Kr 2125   1.186   4.748   0.475
    1CAL  O00Ks 2126   1.379   3.221   0.396
    1CAL  O00Kt 2127   1.064   4.007   0.010
    1CAL  O00Ku 2128   1.815   3.702   0.317
    1CAL  O00Kv 2129   0.820   4.693   0.931
    1CAL  O00Kw 2130   0.811   4.541   1.097
    1CAL  O00Kx 2131   0.621   4.625   1.011
    1CAL  O00Ky 2132   0.678   4.292   0.930
    1CAL  O00Kz 2133   0.687   4.141   1.096
    1CAL  O00L0 2134   0.877   4.223   1.009
    1CAL  O00L1 2135   0.877   3.420   1.010
    1CAL  O00L2 2136   0.687   3.337   1.097
    1CAL  O00L3 2137   0.678   3.488   0.931
    1CAL  O00L4 2138   0.621   3.822   1.010
    1CAL  O00L5 2139   0.811   3.738   1.096
    1CAL  O00L6 2140   0.820   3.890   0.931
    1CAL  O00L7 2141   1.679   4.292   0.930
    1CAL  O00L8 2142   1.877   4.223   1.010
    1CAL  O00L9 2143   1.687   4.140   1.096
    1CAL  O00LA 2144   1.622   4.624   1.010
    1CAL  O00LB 2145   1.811   4.541   1.096
    1CAL  O00LC 2146   1.820   4.693   0.931
    1CAL  O00LD 2147   1.678   3.488   0.931
    1CAL  O00LE 2148   1.877   3.420   1.010
    1CAL  O00LF 2149   1.687   3.337   1.097
    1CAL  O00LG 2150   1.621   3.821   1.010
    1CAL  O00LH 2151   1.811   3.738   1.096
    1CAL  O00LI 2152   1.820   3.890   0.931
    1CAL  O00LJ 2153   1.311   4.541   1.097
    1CAL  O00LK 2154   1.121   4.624   1.011
    1CAL  O00LL 2155   1.320   4.692   0.931
    1CAL  O00LM 2156   1.179   4.291   0.931
    1CAL  O00LN 2157   1.188   4.139   1.097
    1CAL  O00LO 2158   1.378   4.223   1.011
    1CAL  O00LP 2159   1.311   3.738   1.097
    1CAL  O00LQ 2160   1.320   3.889   0.931
    1CAL  O00LR 2161   1.121   3.822   1.010
    1CAL  O00LS 2162   1.179   3.488   0.932
    1CAL  O00LT 2163   1.187   3.336   1.097
    1CAL  O00LU 2164   1.377   3.420   1.012
    1CAL  O00LV 2165   0.310   4.541   1.098
    1CAL  O00LW 2166   0.121   4.625   1.011
    1CAL  O00LX 2167   0.320   4.692   0.932
    1CAL  O00LY 2168   0.179   4.291   0.932
    1CAL  O00LZ 2169   0.188   4.139   1.097
    1CAL  O00La 2170   0.378   4.223   1.013
    1CAL  O00Lb 2171   0.310   3.739   1.098
    1CAL  O00Lc 2172   0.121   3.822   1.010
    1CAL  O00Ld 2173   0.320   3.890   0.931
    1CAL  O00Le 2174   0.377   3.420   1.013
    1CAL  O00Lf 2175   0.187   3.336   1.098
    1CAL  O00Lg 2176   0.179   3.488   0.933
    1CAL  Ca06D 2177   1.002   4.023   1.008
    1CAL  Ca06E 2178   1.750   3.727   0.089
    1CAL  Ca06F 2179   1.496   4.424   1.009
    1CAL  Ca06G 2180   0.002   4.023   1.009
    1CAL  Ca06H 2181   0.750   4.720   0.704
    1CAL  Ca06I 2182   1.750   4.129   0.089
    1CAL  Ca06J 2183   1.500   3.824   0.396
    1CAL  Ca06K 2184   1.500   4.626   0.396
    1CAL  Ca06L 2185   0.249   4.319   0.703
    1CAL  Ca06M 2186   1.000   4.626   0.396
    1CAL  Ca06N 2187   0.502   3.220   1.009
    1CAL  Ca06O 2188   0.250   3.727   0.089
    1CAL  Ca06P 2189   0.250   3.918   0.704
    1CAL  Ca06Q 2190   1.997   3.621   1.009
    1CAL  Ca06R 2191   1.997   4.424   1.009
    1CAL  Ca06S 2192   1.749   4.319   0.702
    1CAL  Ca06T 2193   1.250   3.325   0.089
    1CAL  Ca06U 2194   2.000   4.626   0.396
    1CAL  Ca06V 2195   1.750   3.325   0.089
    1CAL  Ca06W 2196   0.495   3.622   1.009
    1CAL  Ca06X 2197   0.002   3.220   1.010
    1CAL  Ca06Y 2198   1.751   3.918   0.704
    1CAL  Ca06Z 2199   0.250   4.129   0.089
    1CAL  Ca06a 2200   2.000   3.824   0.396
    1CAL  Ca06b 2201   1.500   4.225   0.395
    1CAL  Ca06c 2202   0.250   4.721   0.704
    1CAL  Ca06d 2203   1.750   4.530   0.090
    1CAL  Ca06e 2204   0.500   4.225   0.395
    1CAL  Ca06f 2205   0.496   4.425   1.009
    1CAL  Ca06g 2206   2.000   3.422   0.396
    1CAL  Ca06h 2207   0.500   4.626   0.396
    1CAL  Ca06i 2208   1.496   3.621   1.009
    1CAL  Ca06j 2209   1.250   4.129   0.089
    1CAL  Ca06k 2210   0.750   4.129   0.089
    1CAL  Ca06l 2211   1.000   3.422   0.396
    1CAL  Ca06m 2212   1.000   4.225   0.395
    1CAL  Ca06n 2213   0.500   3.824   0.396
    1CAL  Ca06o 2214   1.000   3.824   0.396
    1CAL  Ca06p 2215   0.749   4.319   0.703
    1CAL  Ca06q 2216   0.250   3.325   0.089
    1CAL  Ca06r 2217   0.750   3.727   0.089
    1CAL  Ca06s 2218   1.250   3.727   0.089
    1CAL  Ca06t 2219   1.249   4.319   0.703
    1CAL  Ca06u 2220   1.250   4.720   0.704
    1CAL  Ca06v 2221   1.749   3.516   0.704
    1CAL  Ca06w 2222   1.002   3.220   1.009
    1CAL  Ca06x 2223   0.748   3.516   0.704
    1CAL  Ca06y 2224   0.503   4.023   1.008
    1CAL  Ca06z 2225   0.500   3.422   0.396
    1CAL  Ca070 2226   0.750   3.325   0.089
    1CAL  Ca071 2227   1.250   4.530   0.090
    1CAL  Ca072 2228   1.249   3.516   0.704
    1CAL  Ca073 2229   0.996   3.621   1.009
    1CAL  Ca074 2230   0.750   4.530   0.090
    1CAL  Ca075 2231   0.996   4.424   1.009
    1CAL  Ca076 2232   0.250   4.530   0.090
    1CAL  Ca077 2233   1.500   3.422   0.396
    1CAL  Ca078 2234   1.503   4.023   1.008
    1CAL  Ca079 2235   1.502   3.219   1.009
    1CAL  Ca07A 2236   0.750   3.918   0.704
    1CAL  Ca07B 2237   1.750   4.721   0.704
    1CAL  Ca07C 2238   1.250   3.918   0.704
    1CAL  Ca07D 2239   0.249   3.516   0.704
    1CAL  Ca07E 2240   2.000   4.225   0.395
    1CAL  C007F 2241   2.000   4.730   1.317
    1CAL  C007G 2242   1.250   3.220   1.624
    1CAL  C007H 2243   0.250   3.220   1.624
    1CAL  C007I 2244   1.499   3.718   1.930
    1CAL  C007J 2245   1.499   4.521   1.930
    1CAL  C007K 2246   0.750   3.220   1.624
    1CAL  C007L 2247   1.000   3.928   1.317
    1CAL  C007M 2248   1.250   4.425   1.621
    1CAL  C007N 2249   0.750   4.425   1.622
    1CAL  C007O 2250   0.500   4.120   1.931
    1CAL  C007P 2251   0.500   3.526   1.317
    1CAL  C007Q 2252   1.000   4.330   1.317
    1CAL  C007R 2253   1.000   3.526   1.317
    1CAL  C007S 2254   0.250   3.623   1.624
    1CAL  C007T 2255   0.500   3.316   1.931
    1CAL  C007U 2256   1.000   4.120   1.930
    1CAL  C007V 2257   1.750   3.220   1.624
    1CAL  C007W 2258   1.500   3.316   1.931
    1CAL  C007X 2259   0.250   4.025   1.624
    1CAL  C007Y 2260   1.999   3.718   1.931
    1CAL  C007Z 2261   2.000   4.120   1.930
    1CAL  C007a 2262   2.000   3.526   1.317
    1CAL  C007b 2263   2.000   4.330   1.317
    1CAL  C007c 2264   0.250   4.425   1.622
    1CAL  C007d 2265   0.499   3.718   1.930
    1CAL  C007e 2266   1.500   3.928   1.317
    1CAL  C007f 2267   2.000   3.928   1.317
    1CAL  C007g 2268   1.750   3.623   1.624
    1CAL  C007h 2269   1.250   3.623   1.624
    1CAL  C007i 2270   1.500   3.526   1.317
    1CAL  C007j 2271   1.500   4.120   1.930
    1CAL  C007k 2272   0.498   4.521   1.930
    1CAL  C007l 2273   1.500   4.730   1.317
    1CAL  C007m 2274   0.750   3.623   1.624
    1CAL  C007n 2275   1.250   4.025   1.624
    1CAL  C007o 2276   0.500   4.330   1.317
    1CAL  C007p 2277   1.750   4.425   1.621
    1CAL  C007q 2278   1.000   4.730   1.317
    1CAL  C007r 2279   1.999   4.521   1.931
    1CAL  C007s 2280   1.000   3.316   1.930
    1CAL  C007t 2281   0.999   4.521   1.930
    1CAL  C007u 2282   0.999   3.718   1.931
    1CAL  C007v 2283   1.750   4.025   1.624
    1CAL  C007w 2284   0.500   4.730   1.317
    1CAL  C007x 2285   1.500   4.330   1.317
    1CAL  C007y 2286   0.500   3.928   1.317
    1CAL  C007z 2287   0.750   4.025   1.624
    1CAL  C0080 2288   2.000   3.316   1.931
    1CAL  C0081 2289   0.751   3.816   2.241
    1CAL  C0082 2290   0.747   3.415   2.241
    1CAL  C0083 2291   0.747   4.218   2.240
    1CAL  C0084 2292   0.751   4.619   2.241
    1CAL  C0085 2293   1.751   3.816   2.241
    1CAL  C0086 2294   1.747   3.415   2.241
    1CAL  C0087 2295   1.751   4.619   2.241
    1CAL  C0088 2296   1.748   4.218   2.240
    1CAL  C0089 2297   1.251   4.619   2.241
    1CAL  C008A 2298   1.248   4.217   2.241
    1CAL  C008B 2299   1.251   3.816   2.241
    1CAL  C008C 2300   1.247   3.414   2.242
    1CAL  C008D 2301   0.251   4.619   2.242
    1CAL  C008E 2302   0.248   4.217   2.242
    1CAL  C008F 2303   0.251   3.817   2.241
    1CAL  C008G 2304   0.247   3.414   2.243
    1CAL  O00Lh 2305   0.185   3.947   1.703
    1CAL  O00Li 2306   1.186   4.104   1.545
    1CAL  O00Lj 2307   1.185   3.947   1.703
    1CAL  O00Lk 2308   1.379   4.025   1.625
    1CAL  O00Ll 2309   0.564   4.651   1.396
    1CAL  O00Lm 2310   0.371   4.731   1.316
    1CAL  O00Ln 2311   0.564   4.007   1.238
    1CAL  O00Lo 2312   0.686   4.104   1.545
    1CAL  O00Lp 2313   0.685   3.947   1.703
    1CAL  O00Lq 2314   0.879   4.025   1.625
    1CAL  O00Lr 2315   0.565   4.808   1.238
    1CAL  O00Ls 2316   0.564   3.850   1.396
    1CAL  O00Lt 2317   0.371   3.928   1.317
    1CAL  O00Lu 2318   1.128   4.520   1.931
    1CAL  O00Lv 2319   0.935   4.599   1.850
    1CAL  O00Lw 2320   0.936   3.797   1.850
    1CAL  O00Lx 2321   0.933   3.640   2.010
    1CAL  O00Ly 2322   1.128   3.717   1.932
    1CAL  O00Lz 2323   0.933   4.443   2.010
    1CAL  O00M0 2324   0.621   3.623   1.624
    1CAL  O00M1 2325   1.063   4.199   1.850
    1CAL  O00M2 2326   1.122   4.425   1.621
    1CAL  O00M3 2327   1.314   4.346   1.701
    1CAL  O00M4 2328   1.315   4.503   1.543
    1CAL  O00M5 2329   0.436   3.447   1.396
    1CAL  O00M6 2330   0.435   3.604   1.238
    1CAL  O00M7 2331   0.621   4.425   1.621
    1CAL  O00M8 2332   0.814   4.346   1.701
    1CAL  O00M9 2333   0.815   4.503   1.543
    1CAL  O00MA 2334   0.314   3.702   1.545
    1CAL  O00MB 2335   0.814   3.544   1.703
    1CAL  O00MC 2336   0.936   4.409   1.237
    1CAL  O00MD 2337   1.129   4.330   1.317
    1CAL  O00ME 2338   0.314   3.544   1.704
    1CAL  O00MF 2339   0.121   3.623   1.624
    1CAL  O00MG 2340   0.814   3.702   1.545
    1CAL  O00MH 2341   0.936   3.605   1.237
    1CAL  O00MI 2342   0.936   3.447   1.396
    1CAL  O00MJ 2343   1.129   3.526   1.317
    1CAL  O00MK 2344   0.870   4.119   1.931
    1CAL  O00ML 2345   1.066   4.042   2.009
    1CAL  O00MM 2346   0.935   4.252   1.396
    1CAL  O00MN 2347   1.686   4.104   1.545
    1CAL  O00MO 2348   1.685   3.947   1.703
    1CAL  O00MP 2349   1.879   4.025   1.625
    1CAL  O00MQ 2350   1.934   4.442   2.010
    1CAL  O00MR 2351   1.936   3.797   1.851
    1CAL  O00MS 2352   1.934   3.639   2.010
    1CAL  O00MT 2353   0.128   4.520   1.932
    1CAL  O00MU 2354   0.064   3.395   1.851
    1CAL  O00MV 2355   1.436   4.409   1.237
    1CAL  O00MW 2356   1.435   4.252   1.396
    1CAL  O00MX 2357   1.629   4.330   1.317
    1CAL  O00MY 2358   0.065   3.238   2.011
    1CAL  O00MZ 2359   1.434   4.443   2.010
    1CAL  O00Ma 2360   0.065   4.808   1.238
    1CAL  O00Mb 2361   0.064   4.651   1.396
    1CAL  O00Mc 2362   0.871   4.731   1.316
    1CAL  O00Md 2363   1.871   4.119   1.932
    1CAL  O00Me 2364   1.936   3.447   1.396
    1CAL  O00Mf 2365   1.064   3.395   1.851
    1CAL  O00Mg 2366   0.436   4.409   1.237
    1CAL  O00Mh 2367   0.435   4.252   1.396
    1CAL  O00Mi 2368   0.629   4.330   1.317
    1CAL  O00Mj 2369   1.065   3.237   2.010
    1CAL  O00Mk 2370   0.433   4.443   2.010
    1CAL  O00Ml 2371   0.871   3.316   1.931
    1CAL  O00Mm 2372   1.872   3.928   1.317
    1CAL  O00Mn 2373   1.065   4.808   1.238
    1CAL  O00Mo 2374   1.064   4.651   1.396
    1CAL  O00Mp 2375   1.622   4.425   1.621
    1CAL  O00Mq 2376   1.814   4.346   1.701
    1CAL  O00Mr 2377   1.815   4.503   1.542
    1CAL  O00Ms 2378   1.937   4.409   1.237
    1CAL  O00Mt 2379   1.935   4.252   1.396
    1CAL  O00Mu 2380   1.936   3.605   1.237
    1CAL  O00Mv 2381   0.629   3.526   1.316
    1CAL  O00Mw 2382   0.379   4.025   1.625
    1CAL  O00Mx 2383   0.370   4.119   1.934
    1CAL  O00My 2384   1.065   3.850   1.396
    1CAL  O00Mz 2385   1.564   4.651   1.396
    1CAL  O00N0 2386   1.565   4.808   1.238
    1CAL  O00N1 2387   1.622   3.623   1.624
    1CAL  O00N2 2388   1.815   3.544   1.703
    1CAL  O00N3 2389   1.372   4.731   1.316
    1CAL  O00N4 2390   1.121   3.623   1.624
    1CAL  O00N5 2391   1.314   3.702   1.545
    1CAL  O00N6 2392   0.628   4.520   1.931
    1CAL  O00N7 2393   1.436   3.604   1.238
    1CAL  O00N8 2394   1.436   3.447   1.396
    1CAL  O00N9 2395   1.629   3.526   1.316
    1CAL  O00NA 2396   1.371   4.119   1.933
    1CAL  O00NB 2397   1.566   4.042   2.009
    1CAL  O00NC 2398   1.315   3.544   1.703
    1CAL  O00ND 2399   1.563   4.200   1.850
    1CAL  O00NE 2400   0.065   3.850   1.396
    1CAL  O00NF 2401   1.565   3.850   1.396
    1CAL  O00NG 2402   0.186   4.104   1.545
    1CAL  O00NH 2403   0.063   4.200   1.850
    1CAL  O00NI 2404   0.065   4.042   2.010
    1CAL  O00NJ 2405   0.128   3.717   1.932
    1CAL  O00NK 2406   0.129   3.526   1.317
    1CAL  O00NL 2407   0.128   4.330   1.317
    1CAL  O00NM 2408   1.564   4.007   1.238
    1CAL  O00NN 2409   0.315   4.503   1.543
    1CAL  O00NO 2410   1.872   4.731   1.316
    1CAL  O00NP 2411   1.871   3.316   1.932
    1CAL  O00NQ 2412   0.121   4.425   1.621
    1CAL  O00NR 2413   1.935   4.599   1.850
    1CAL  O00NS 2414   0.064   4.007   1.238
    1CAL  O00NT 2415   1.372   3.928   1.317
    1CAL  O00NU 2416   0.314   4.346   1.701
    1CAL  O00NV 2417   0.434   4.600   1.850
    1CAL  O00NW 2418   0.628   3.717   1.931
    1CAL  O00NX 2419   1.371   3.315   1.933
    1CAL  O00NY 2420   1.436   3.797   1.850
    1CAL  O00NZ 2421   1.434   3.640   2.010
    1CAL  O00Na 2422   1.629   3.717   1.931
    1CAL  O00Nb 2423   0.879   3.220   1.624
    1CAL  O00Nc 2424   0.686   4.748   1.703
    1CAL  O00Nd 2425   1.434   4.599   1.850
    1CAL  O00Ne 2426   1.628   4.520   1.930
    1CAL  O00Nf 2427   0.686   3.299   1.545
    1CAL  O00Ng 2428   0.563   3.395   1.851
    1CAL  O00Nh 2429   0.566   3.238   2.010
    1CAL  O00Ni 2430   0.370   3.316   1.933
    1CAL  O00Nj 2431   0.562   4.200   1.850
    1CAL  O00Nk 2432   0.567   4.042   2.010
    1CAL  O00Nl 2433   0.871   3.928   1.317
    1CAL  O00Nm 2434   1.566   3.237   2.010
    1CAL  O00Nn 2435   1.564   3.395   1.851
    1CAL  O00No 2436   0.433   3.640   2.010
    1CAL  O00Np 2437   0.435   3.798   1.851
    1CAL  O00Nq 2438   1.686   3.299   1.545
    1CAL  O00Nr 2439   1.686   4.748   1.703
    1CAL  O00Ns 2440   1.879   3.220   1.624
    1CAL  O00Nt 2441   0.379   3.221   1.624
    1CAL  O00Nu 2442   0.186   4.748   1.703
    1CAL  O00Nv 2443   0.185   3.299   1.545
    1CAL  O00Nw 2444   1.186   3.299   1.545
    1CAL  O00Nx 2445   1.186   4.748   1.703
    1CAL  O00Ny 2446   1.379   3.221   1.624
    1CAL  O00Nz 2447   1.064   4.007   1.238
    1CAL  O00O0 2448   1.815   3.702   1.545
    1CAL  O00O1 2449   0.820   4.693   2.159
    1CAL  O00O2 2450   0.811   4.541   2.325
    1CAL  O00O3 2451   0.621   4.625   2.239
    1CAL  O00O4 2452   0.678   4.292   2.158
    1CAL  O00O5 2453   0.687   4.141   2.324
    1CAL  O00O6 2454   0.877   4.223   2.237
    1CAL  O00O7 2455   0.877   3.420   2.238
    1CAL  O00O8 2456   0.687   3.337   2.325
    1CAL  O00O9 2457   0.678   3.488   2.159
    1CAL  O00OA 2458   0.621   3.822   2.238
    1CAL  O00OB 2459   0.811   3.738   2.324
    1CAL  O00OC 2460   0.820   3.890   2.159
    1CAL  O00OD 2461   1.679   4.292   2.158
    1CAL  O00OE 2462   1.877   4.223   2.238
    1CAL  O00OF 2463   1.687   4.140   2.324
    1CAL  O00OG 2464   1.622   4.624   2.238
    1CAL  O00OH 2465   1.811   4.541   2.324
    1CAL  O00OI 2466   1.820   4.693   2.159
    1CAL  O00OJ 2467   1.678   3.488   2.159
    1CAL  O00OK 2468   1.877   3.420   2.238
    1CAL  O00OL 2469   1.687   3.337   2.325
    1CAL  O00OM 2470   1.621   3.821   2.238
    1CAL  O00ON 2471   1.811   3.738   2.324
    1CAL  O00OO 2472   1.820   3.890   2.159
    1CAL  O00OP 2473   1.311   4.541   2.325
    1CAL  O00OQ 2474   1.121   4.624   2.239
    1CAL  O00OR 2475   1.320   4.692   2.159
    1CAL  O00OS 2476   1.179   4.291   2.159
    1CAL  O00OT 2477   1.188   4.139   2.325
    1CAL  O00OU 2478   1.378   4.223   2.239
    1CAL  O00OV 2479   1.311   3.738   2.325
    1CAL  O00OW 2480   1.320   3.889   2.159
    1CAL  O00OX 2481   1.121   3.822   2.238
    1CAL  O00OY 2482   1.179   3.488   2.160
    1CAL  O00OZ 2483   1.187   3.336   2.325
    1CAL  O00Oa 2484   1.377   3.420   2.240
    1CAL  O00Ob 2485   0.310   4.541   2.326
    1CAL  O00Oc 2486   0.121   4.625   2.239
    1CAL  O00Od 2487   0.320   4.692   2.160
    1CAL  O00Oe 2488   0.179   4.291   2.160
    1CAL  O00Of 2489   0.188   4.139   2.325
    1CAL  O00Og 2490   0.378   4.223   2.241
    1CAL  O00Oh 2491   0.310   3.739   2.326
    1CAL  O00Oi 2492   0.121   3.822   2.238
    1CAL  O00Oj 2493   0.320   3.890   2.159
    1CAL  O00Ok 2494   0.377   3.420   2.241
    1CAL  O00Ol 2495   0.187   3.336   2.326
    1CAL  O00Om 2496   0.179   3.488   2.161
    1CAL  Ca07F 2497   1.002   4.023   2.236
    1CAL  Ca07G 2498   1.750   3.727   1.317
    1CAL  Ca07H 2499   1.496   4.424   2.237
    1CAL  Ca07I 2500   0.002   4.023   2.237
    1CAL  Ca07J 2501   0.750   4.720   1.932
    1CAL  Ca07K 2502   1.750   4.129   1.317
    1CAL  Ca07L 2503   1.500   3.824   1.624
    1CAL  Ca07M 2504   1.500   4.626   1.624
    1CAL  Ca07N 2505   0.249   4.319   1.931
    1CAL  Ca07O 2506   1.000   4.626   1.624
    1CAL  Ca07P 2507   0.502   3.220   2.237
    1CAL  Ca07Q 2508   0.250   3.727   1.317
    1CAL  Ca07R 2509   0.250   3.918   1.932
    1CAL  Ca07S 2510   1.997   3.621   2.237
    1CAL  Ca07T 2511   1.997   4.424   2.237
    1CAL  Ca07U 2512   1.749   4.319   1.930
    1CAL  Ca07V 2513   1.250   3.325   1.317
    1CAL  Ca07W 2514   2.000   4.626   1.624
    1CAL  Ca07X 2515   1.750   3.325   1.317
    1CAL  Ca07Y 2516   0.495   3.622   2.237
    1CAL  Ca07Z 2517   0.002   3.220   2.238
    1CAL  Ca07a 2518   1.751   3.918   1.932
    1CAL  Ca07b 2519   0.250   4.129   1.317
    1CAL  Ca07c 2520   2.000   3.824   1.624
    1CAL  Ca07d 2521   1.500   4.225   1.623
    1CAL  Ca07e 2522   0.250   4.721   1.932
    1CAL  Ca07f 2523   1.750   4.530   1.318
    1CAL  Ca07g 2524   0.500   4.225   1.623
    1CAL  Ca07h 2525   0.496   4.425   2.237
    1CAL  Ca07i 2526   2.000   3.422   1.624
    1CAL  Ca07j 2527   0.500   4.626   1.624
    1CAL  Ca07k 2528   1.496   3.621   2.237
    1CAL  Ca07l 2529   1.250   4.129   1.317
    1CAL  Ca07m 2530   0.750   4.129   1.317
    1CAL  Ca07n 2531   1.000   3.422   1.624
    1CAL  Ca07o 2532   1.000   4.225   1.623
    1CAL  Ca07p 2533   0.500   3.824   1.624
    1CAL  Ca07q 2534   1.000   3.824   1.624
    1CAL  Ca07r 2535   0.749   4.319   1.931
    1CAL  Ca07s 2536   0.250   3.325   1.317
    1CAL  Ca07t 2537   0.750   3.727   1.317
    1CAL  Ca07u 2538   1.250   3.727   1.317
    1CAL  Ca07v 2539   1.249   4.319   1.931
    1CAL  Ca07w 2540   1.250   4.720   1.932
    1CAL  Ca07x 2541   1.749   3.516   1.932
    1CAL  Ca07y 2542   1.002   3.220   2.237
    1CAL  Ca07z 2543   0.748   3.516   1.932
    1CAL  Ca080 2544   0.503   4.023   2.236
    1CAL  Ca081 2545   0.500   3.422   1.624
    1CAL  Ca082 2546   0.750   3.325   1.317
    1CAL  Ca083 2547   1.250   4.530   1.318
    1CAL  Ca084 2548   1.249   3.516   1.932
    1CAL  Ca085 2549   0.996   3.621   2.237
    1CAL  Ca086 2550   0.750   4.530   1.318
    1CAL  Ca087 2551   0.996   4.424   2.237
    1CAL  Ca088 2552   0.250   4.530   1.318
    1CAL  Ca089 2553   1.500   3.422   1.624
    1CAL  Ca08A 2554   1.503   4.023   2.236
    1CAL  Ca08B 2555   1.502   3.219   2.237
    1CAL  Ca08C 2556   0.750   3.918   1.932
    1CAL  Ca08D 2557   1.750   4.721   1.932
    1CAL  Ca08E 2558   1.250   3.918   1.932
    1CAL  Ca08F 2559   0.249   3.516   1.932
    1CAL  Ca08G 2560   2.000   4.225   1.623
    1CAL  C008H 2561   2.000   4.730   2.545
    1CAL  C008I 2562   1.250   3.220   2.852
    1CAL  C008J 2563   0.250   3.220   2.852
    1CAL  C008K 2564   1.499   3.718   3.158
    1CAL  C008L 2565   1.499   4.521   3.158
    1CAL  C008M 2566   0.750   3.220   2.852
    1CAL  C008N 2567   1.000   3.928   2.545
    1CAL  C008O 2568   1.250   4.425   2.849
    1CAL  C008P 2569   0.750   4.425   2.850
    1CAL  C008Q 2570   0.500   4.120   3.159
    1CAL  C008R 2571   0.500   3.526   2.545
    1CAL  C008S 2572   1.000   4.330   2.545
    1CAL  C008T 2573   1.000   3.526   2.545
    1CAL  C008U 2574   0.250   3.623   2.852
    1CAL  C008V 2575   0.500   3.316   3.159
    1CAL  C008W 2576   1.000   4.120   3.158
    1CAL  C008X 2577   1.750   3.220   2.852
    1CAL  C008Y 2578   1.500   3.316   3.159
    1CAL  C008Z 2579   0.250   4.025   2.852
    1CAL  C008a 2580   1.999   3.718   3.159
    1CAL  C008b 2581   2.000   4.120   3.158
    1CAL  C008c 2582   2.000   3.526   2.545
    1CAL  C008d 2583   2.000   4.330   2.545
    1CAL  C008e 2584   0.250   4.425   2.850
    1CAL  C008f 2585   0.499   3.718   3.158
    1CAL  C008g 2586   1.500   3.928   2.545
    1CAL  C008h 2587   2.000   3.928   2.545
    1CAL  C008i 2588   1.750   3.623   2.852
    1CAL  C008j 2589   1.250   3.623   2.852
    1CAL  C008k 2590   1.500   3.526   2.545
    1CAL  C008l 2591   1.500   4.120   3.158
    1CAL  C008m 2592   0.498   4.521   3.158
    1CAL  C008n 2593   1.500   4.730   2.545
    1CAL  C008o 2594   0.750   3.623   2.852
    1CAL  C008p 2595   1.250   4.025   2.852
    1CAL  C008q 2596   0.500   4.330   2.545
    1CAL  C008r 2597   1.750   4.425   2.849
    1CAL  C008s 2598   1.000   4.730   2.545
    1CAL  C008t 2599   1.999   4.521   3.159
    1CAL  C008u 2600   1.000   3.316   3.158
    1CAL  C008v 2601   0.999   4.521   3.158
    1CAL  C008w 2602   0.999   3.718   3.159
    1CAL  C008x 2603   1.750   4.025   2.852
    1CAL  C008y 2604   0.500   4.730   2.545
    1CAL  C008z 2605   1.500   4.330   2.545
    1CAL  C0090 2606   0.500   3.928   2.545
    1CAL  C0091 2607   0.750   4.025   2.852
    1CAL  C0092 2608   2.000   3.316   3.159
    1CAL  C0093 2609   0.751   3.816   3.469
    1CAL  C0094 2610   0.747   3.415   3.469
    1CAL  C0095 2611   0.747   4.218   3.468
    1CAL  C0096 2612   0.751   4.619   3.469
    1CAL  C0097 2613   1.751   3.816   3.469
    1CAL  C0098 2614   1.747   3.415   3.469
    1CAL  C0099 2615   1.751   4.619   3.469
    1CAL  C009A 2616   1.748   4.218   3.468
    1CAL  C009B 2617   1.251   4.619   3.469
    1CAL  C009C 2618   1.248   4.217   3.469
    1CAL  C009D 2619   1.251   3.816   3.469
    1CAL  C009E 2620   1.247   3.414   3.470
    1CAL  C009F 2621   0.251   4.619   3.470
    1CAL  C009G 2622   0.248   4.217   3.470
    1CAL  C009H 2623   0.251   3.817   3.469
    1CAL  C009I 2624   0.247   3.414   3.471
    1CAL  O00On 2625   0.185   3.947   2.931
    1CAL  O00Oo 2626   1.186   4.104   2.773
    1CAL  O00Op 2627   1.185   3.947   2.931
    1CAL  O00Oq 2628   1.379   4.025   2.853
    1CAL  O00Or 2629   0.564   4.651   2.624
    1CAL  O00Os 2630   0.371   4.731   2.544
    1CAL  O00Ot 2631   0.564   4.007   2.466
    1CAL  O00Ou 2632   0.686   4.104   2.773
    1CAL  O00Ov 2633   0.685   3.947   2.931
    1CAL  O00Ow 2634   0.879   4.025   2.853
    1CAL  O00Ox 2635   0.565   4.808   2.466
    1CAL  O00Oy 2636   0.564   3.850   2.624
    1CAL  O00Oz 2637   0.371   3.928   2.545
    1CAL  O00P0 2638   1.128   4.520   3.159
    1CAL  O00P1 2639   0.935   4.599   3.078
    1CAL  O00P2 2640   0.936   3.797   3.078
    1CAL  O00P3 2641   0.933   3.640   3.238
    1CAL  O00P4 2642   1.128   3.717   3.160
    1CAL  O00P5 2643   0.933   4.443   3.238
    1CAL  O00P6 2644   0.621   3.623   2.852
    1CAL  O00P7 2645   1.063   4.199   3.078
    1CAL  O00P8 2646   1.122   4.425   2.849
    1CAL  O00P9 2647   1.314   4.346   2.929
    1CAL  O00PA 2648   1.315   4.503   2.771
    1CAL  O00PB 2649   0.436   3.447   2.624
    1CAL  O00PC 2650   0.435   3.604   2.466
    1CAL  O00PD 2651   0.621   4.425   2.849
    1CAL  O00PE 2652   0.814   4.346   2.929
    1CAL  O00PF 2653   0.815   4.503   2.771
    1CAL  O00PG 2654   0.314   3.702   2.773
    1CAL  O00PH 2655   0.814   3.544   2.931
    1CAL  O00PI 2656   0.936   4.409   2.465
    1CAL  O00PJ 2657   1.129   4.330   2.545
    1CAL  O00PK 2658   0.314   3.544   2.932
    1CAL  O00PL 2659   0.121   3.623   2.852
    1CAL  O00PM 2660   0.814   3.702   2.773
    1CAL  O00PN 2661   0.936   3.605   2.465
    1CAL  O00PO 2662   0.936   3.447   2.624
    1CAL  O00PP 2663   1.129   3.526   2.545
    1CAL  O00PQ 2664   0.870   4.119   3.159
    1CAL  O00PR 2665   1.066   4.042   3.237
    1CAL  O00PS 2666   0.935   4.252   2.624
    1CAL  O00PT 2667   1.686   4.104   2.773
    1CAL  O00PU 2668   1.685   3.947   2.931
    1CAL  O00PV 2669   1.879   4.025   2.853
    1CAL  O00PW 2670   1.934   4.442   3.238
    1CAL  O00PX 2671   1.936   3.797   3.079
    1CAL  O00PY 2672   1.934   3.639   3.238
    1CAL  O00PZ 2673   0.128   4.520   3.160
    1CAL  O00Pa 2674   0.064   3.395   3.079
    1CAL  O00Pb 2675   1.436   4.409   2.465
    1CAL  O00Pc 2676   1.435   4.252   2.624
    1CAL  O00Pd 2677   1.629   4.330   2.545
    1CAL  O00Pe 2678   0.065   3.238   3.239
    1CAL  O00Pf 2679   1.434   4.443   3.238
    1CAL  O00Pg 2680   0.065   4.808   2.466
    1CAL  O00Ph 2681   0.064   4.651   2.624
    1CAL  O00Pi 2682   0.871   4.731   2.544
    1CAL  O00Pj 2683   1.871   4.119   3.160
    1CAL  O00Pk 2684   1.936   3.447   2.624
    1CAL  O00Pl 2685   1.064   3.395   3.079
    1CAL  O00Pm 2686   0.436   4.409   2.465
    1CAL  O00Pn 2687   0.435   4.252   2.624
    1CAL  O00Po 2688   0.629   4.330   2.545
    1CAL  O00Pp 2689   1.065   3.237   3.238
    1CAL  O00Pq 2690   0.433   4.443   3.238
    1CAL  O00Pr 2691   0.871   3.316   3.159
    1CAL  O00Ps 2692   1.872   3.928   2.545
    1CAL  O00Pt 2693   1.065   4.808   2.466
    1CAL  O00Pu 2694   1.064   4.651   2.624
    1CAL  O00Pv 2695   1.622   4.425   2.849
    1CAL  O00Pw 2696   1.814   4.346   2.929
    1CAL  O00Px 2697   1.815   4.503   2.770
    1CAL  O00Py 2698   1.937   4.409   2.465
    1CAL  O00Pz 2699   1.935   4.252   2.624
    1CAL  O00Q0 2700   1.936   3.605   2.465
    1CAL  O00Q1 2701   0.629   3.526   2.544
    1CAL  O00Q2 2702   0.379   4.025   2.853
    1CAL  O00Q3 2703   0.370   4.119   3.162
    1CAL  O00Q4 2704   1.065   3.850   2.624
    1CAL  O00Q5 2705   1.564   4.651   2.624
    1CAL  O00Q6 2706   1.565   4.808   2.466
    1CAL  O00Q7 2707   1.622   3.623   2.852
    1CAL  O00Q8 2708   1.815   3.544   2.931
    1CAL  O00Q9 2709   1.372   4.731   2.544
    1CAL  O00QA 2710   1.121   3.623   2.852
    1CAL  O00QB 2711   1.314   3.702   2.773
    1CAL  O00QC 2712   0.628   4.520   3.159
    1CAL  O00QD 2713   1.436   3.604   2.466
    1CAL  O00QE 2714   1.436   3.447   2.624
    1CAL  O00QF 2715   1.629   3.526   2.544
    1CAL  O00QG 2716   1.371   4.119   3.161
    1CAL  O00QH 2717   1.566   4.042   3.237
    1CAL  O00QI 2718   1.315   3.544   2.931
    1CAL  O00QJ 2719   1.563   4.200   3.078
    1CAL  O00QK 2720   0.065   3.850   2.624
    1CAL  O00QL 2721   1.565   3.850   2.624
    1CAL  O00QM 2722   0.186   4.104   2.773
    1CAL  O00QN 2723   0.063   4.200   3.078
    1CAL  O00QO 2724   0.065   4.042   3.238
    1CAL  O00QP 2725   0.128   3.717   3.160
    1CAL  O00QQ 2726   0.129   3.526   2.545
    1CAL  O00QR 2727   0.128   4.330   2.545
    1CAL  O00QS 2728   1.564   4.007   2.466
    1CAL  O00QT 2729   0.315   4.503   2.771
    1CAL  O00QU 2730   1.872   4.731   2.544
    1CAL  O00QV 2731   1.871   3.316   3.160
    1CAL  O00QW 2732   0.121   4.425   2.849
    1CAL  O00QX 2733   1.935   4.599   3.078
    1CAL  O00QY 2734   0.064   4.007   2.466
    1CAL  O00QZ 2735   1.372   3.928   2.545
    1CAL  O00Qa 2736   0.314   4.346   2.929
    1CAL  O00Qb 2737   0.434   4.600   3.078
    1CAL  O00Qc 2738   0.628   3.717   3.159
    1CAL  O00Qd 2739   1.371   3.315   3.161
    1CAL  O00Qe 2740   1.436   3.797   3.078
    1CAL  O00Qf 2741   1.434   3.640   3.238
    1CAL  O00Qg 2742   1.629   3.717   3.159
    1CAL  O00Qh 2743   0.879   3.220   2.852
    1CAL  O00Qi 2744   0.686   4.748   2.931
    1CAL  O00Qj 2745   1.434   4.599   3.078
    1CAL  O00Qk 2746   1.628   4.520   3.158
    1CAL  O00Ql 2747   0.686   3.299   2.773
    1CAL  O00Qm 2748   0.563   3.395   3.079
    1CAL  O00Qn 2749   0.566   3.238   3.238
    1CAL  O00Qo 2750   0.370   3.316   3.161
    1CAL  O00Qp 2751   0.562   4.200   3.078
    1CAL  O00Qq 2752   0.567   4.042   3.238
    1CAL  O00Qr 2753   0.871   3.928   2.545
    1CAL  O00Qs 2754   1.566   3.237   3.238
    1CAL  O00Qt 2755   1.564   3.395   3.079
    1CAL  O00Qu 2756   0.433   3.640   3.238
    1CAL  O00Qv 2757   0.435   3.798   3.079
    1CAL  O00Qw 2758   1.686   3.299   2.773
    1CAL  O00Qx 2759   1.686   4.748   2.931
    1CAL  O00Qy 2760   1.879   3.220   2.852
    1CAL  O00Qz 2761   0.379   3.221   2.852
    1CAL  O00R0 2762   0.186   4.748   2.931
    1CAL  O00R1 2763   0.185   3.299   2.773
    1CAL  O00R2 2764   1.186   3.299   2.773
    1CAL  O00R3 2765   1.186   4.748   2.931
    1CAL  O00R4 2766   1.379   3.221   2.852
    1CAL  O00R5 2767   1.064   4.007   2.466
    1CAL  O00R6 2768   1.815   3.702   2.773
    1CAL  O00R7 2769   0.820   4.693   3.387
    1CAL  O00R8 2770   0.811   4.541   3.553
    1CAL  O00R9 2771   0.621   4.625   3.467
    1CAL  O00RA 2772   0.678   4.292   3.386
    1CAL  O00RB 2773   0.687   4.141   3.552
    1CAL  O00RC 2774   0.877   4.223   3.465
    1CAL  O00RD 2775   0.877   3.420   3.466
    1CAL  O00RE 2776   0.687   3.337   3.553
    1CAL  O00RF 2777   0.678   3.488   3.387
    1CAL  O00RG 2778   0.621   3.822   3.466
    1CAL  O00RH 2779   0.811   3.738   3.552
    1CAL  O00RI 2780   0.820   3.890   3.387
    1CAL  O00RJ 2781   1.679   4.292   3.386
    1CAL  O00RK 2782   1.877   4.223   3.466
    1CAL  O00RL 2783   1.687   4.140   3.552
    1CAL  O00RM 2784   1.622   4.624   3.466
    1CAL  O00RN 2785   1.811   4.541   3.552
    1CAL  O00RO 2786   1.820   4.693   3.387
    1CAL  O00RP 2787   1.678   3.488   3.387
    1CAL  O00RQ 2788   1.877   3.420   3.466
    1CAL  O00RR 2789   1.687   3.337   3.553
    1CAL  O00RS 2790   1.621   3.821   3.466
    1CAL  O00RT 2791   1.811   3.738   3.552
    1CAL  O00RU 2792   1.820   3.890   3.387
    1CAL  O00RV 2793   1.311   4.541   3.553
    1CAL  O00RW 2794   1.121   4.624   3.467
    1CAL  O00RX 2795   1.320   4.692   3.387
    1CAL  O00RY 2796   1.179   4.291   3.387
    1CAL  O00RZ 2797   1.188   4.139   3.553
    1CAL  O00Ra 2798   1.378   4.223   3.467
    1CAL  O00Rb 2799   1.311   3.738   3.553
    1CAL  O00Rc 2800   1.320   3.889   3.387
    1CAL  O00Rd 2801   1.121   3.822   3.466
    1CAL  O00Re 2802   1.179   3.488   3.388
    1CAL  O00Rf 2803   1.187   3.336   3.553
    1CAL  O00Rg 2804   1.377   3.420   3.468
    1CAL  O00Rh 2805   0.310   4.541   3.554
    1CAL  O00Ri 2806   0.121   4.625   3.467
    1CAL  O00Rj 2807   0.320   4.692   3.388
    1CAL  O00Rk 2808   0.179   4.291   3.388
    1CAL  O00Rl 2809   0.188   4.139   3.553
    1CAL  O00Rm 2810   0.378   4.223   3.469
    1CAL  O00Rn 2811   0.310   3.739   3.554
    1CAL  O00Ro 2812   0.121   3.822   3.466
    1CAL  O00Rp 2813   0.320   3.890   3.387
    1CAL  O00Rq 2814   0.377   3.420   3.469
    1CAL  O00Rr 2815   0.187   3.336   3.554
    1CAL  O00Rs 2816   0.179   3.488   3.389
    1CAL  Ca08H 2817   1.002   4.023   3.464
    1CAL  Ca08I 2818   1.750   3.727   2.545
    1CAL  Ca08J 2819   1.496   4.424   3.465
    1CAL  Ca08K 2820   0.002   4.023   3.465
    1CAL  Ca08L 2821   0.750   4.720   3.160
    1CAL  Ca08M 2822   1.750   4.129   2.545
    1CAL  Ca08N 2823   1.500   3.824   2.852
    1CAL  Ca08O 2824   1.500   4.626   2.852
    1CAL  Ca08P 2825   0.249   4.319   3.159
    1CAL  Ca08Q 2826   1.000   4.626   2.852
    1CAL  Ca08R 2827   0.502   3.220   3.465
    1CAL  Ca08S 2828   0.250   3.727   2.545
    1CAL  Ca08T 2829   0.250   3.918   3.160
    1CAL  Ca08U 2830   1.997   3.621   3.465
    1CAL  Ca08V 2831   1.997   4.424   3.465
    1CAL  Ca08W 2832   1.749   4.319   3.158
    1CAL  Ca08X 2833   1.250   3.325   2.545
    1CAL  Ca08Y 2834   2.000   4.626   2.852
    1CAL  Ca08Z 2835   1.750   3.325   2.545
    1CAL  Ca08a 2836   0.495   3.622   3.465
    1CAL  Ca08b 2837   0.002   3.220   3.466
    1CAL  Ca08c 2838   1.751   3.918   3.160
    1CAL  Ca08d 2839   0.250   4.129   2.545
    1CAL  Ca08e 2840   2.000   3.824   2.852
    1CAL  Ca08f 2841   1.500   4.225   2.851
    1CAL  Ca08g 2842   0.250   4.721   3.160
    1CAL  Ca08h 2843   1.750   4.530   2.546
    1CAL  Ca08i 2844   0.500   4.225   2.851
    1CAL  Ca08j 2845   0.496   4.425   3.465
    1CAL  Ca08k 2846   2.000   3.422   2.852
    1CAL  Ca08l 2847   0.500   4.626   2.852
    1CAL  Ca08m 2848   1.496   3.621   3.465
    1CAL  Ca08n 2849   1.250   4.129   2.545
    1CAL  Ca08o 2850   0.750   4.129   2.545
    1CAL  Ca08p 2851   1.000   3.422   2.852
    1CAL  Ca08q 2852   1.000   4.225   2.851
    1CAL  Ca08r 2853   0.500   3.824   2.852
    1CAL  Ca08s 2854   1.000   3.824   2.852
    1CAL  Ca08t 2855   0.749   4.319   3.159
    1CAL  Ca08u 2856   0.250   3.325   2.545
    1CAL  Ca08v 2857   0.750   3.727   2.545
    1CAL  Ca08w 2858   1.250   3.727   2.545
    1CAL  Ca08x 2859   1.249   4.319   3.159
    1CAL  Ca08y 2860   1.250   4.720   3.160
    1CAL  Ca08z 2861   1.749   3.516   3.160
    1CAL  Ca090 2862   1.002   3.220   3.465
    1CAL  Ca091 2863   0.748   3.516   3.160
    1CAL  Ca092 2864   0.503   4.023   3.464
    1CAL  Ca093 2865   0.500   3.422   2.852
    1CAL  Ca094 2866   0.750   3.325   2.545
    1CAL  Ca095 2867   1.250   4.530   2.546
    1CAL  Ca096 2868   1.249   3.516   3.160
    1CAL  Ca097 2869   0.996   3.621   3.465
    1CAL  Ca098 2870   0.750   4.530   2.546
    1CAL  Ca099 2871   0.996   4.424   3.465
    1CAL  Ca09A 2872   0.250   4.530   2.546
    1CAL  Ca09B 2873   1.500   3.422   2.852
    1CAL  Ca09C 2874   1.503   4.023   3.464
    1CAL  Ca09D 2875   1.502   3.219   3.465
    1CAL  Ca09E 2876   0.750   3.918   3.160
    1CAL  Ca09F 2877   1.750   4.721   3.160
    1CAL  Ca09G 2878   1.250   3.918   3.160
    1CAL  Ca09H 2879   0.249   3.516   3.160
    1CAL  Ca09I 2880   2.000   4.225   2.851
    1CAL  C009J 2881   2.000   6.336   0.089
    1CAL  C009K 2882   1.250   4.826   0.396
    1CAL  C009L 2883   0.250   4.826   0.396
    1CAL  C009M 2884   1.499   5.324   0.702
    1CAL  C009N 2885   1.499   6.127   0.702
    1CAL  C009O 2886   0.750   4.826   0.396
    1CAL  C009P 2887   1.000   5.534   0.089
    1CAL  C009Q 2888   1.250   6.031   0.393
    1CAL  C009R 2889   0.750   6.031   0.394
    1CAL  C009S 2890   0.500   5.726   0.703
    1CAL  C009T 2891   0.500   5.132   0.089
    1CAL  C009U 2892   1.000   5.936   0.089
    1CAL  C009V 2893   1.000   5.132   0.089
    1CAL  C009W 2894   0.250   5.229   0.396
    1CAL  C009X 2895   0.500   4.922   0.703
    1CAL  C009Y 2896   1.000   5.726   0.702
    1CAL  C009Z 2897   1.750   4.826   0.396
    1CAL  C009a 2898   1.500   4.922   0.703
    1CAL  C009b 2899   0.250   5.631   0.396
    1CAL  C009c 2900   1.999   5.324   0.703
    1CAL  C009d 2901   2.000   5.726   0.702
    1CAL  C009e 2902   2.000   5.132   0.089
    1CAL  C009f 2903   2.000   5.936   0.089
    1CAL  C009g 2904   0.250   6.031   0.394
    1CAL  C009h 2905   0.499   5.324   0.702
    1CAL  C009i 2906   1.500   5.534   0.089
    1CAL  C009j 2907   2.000   5.534   0.089
    1CAL  C009k 2908   1.750   5.229   0.396
    1CAL  C009l 2909   1.250   5.229   0.396
    1CAL  C009m 2910   1.500   5.132   0.089
    1CAL  C009n 2911   1.500   5.726   0.702
    1CAL  C009o 2912   0.498   6.127   0.702
    1CAL  C009p 2913   1.500   6.336   0.089
    1CAL  C009q 2914   0.750   5.229   0.396
    1CAL  C009r 2915   1.250   5.631   0.396
    1CAL  C009s 2916   0.500   5.936   0.089
    1CAL  C009t 2917   1.750   6.031   0.393
    1CAL  C009u 2918   1.000   6.336   0.089
    1CAL  C009v 2919   1.999   6.127   0.703
    1CAL  C009w 2920   1.000   4.922   0.702
    1CAL  C009x 2921   0.999   6.127   0.702
    1CAL  C009y 2922   0.999   5.324   0.703
    1CAL  C009z 2923   1.750   5.631   0.396
    1CAL  C00A0 2924   0.500   6.336   0.089
    1CAL  C00A1 2925   1.500   5.936   0.089
    1CAL  C00A2 2926   0.500   5.534   0.089
    1CAL  C00A3 2927   0.750   5.631   0.396
    1CAL  C00A4 2928   2.000   4.922   0.703
    1CAL  C00A5 2929   0.751   5.422   1.013
    1CAL  C00A6 2930   0.747   5.021   1.013
    1CAL  C00A7 2931   0.747   5.824   1.012
    1CAL  C00A8 2932   0.751   6.225   1.013
    1CAL  C00A9 2933   1.751   5.422   1.013
    1CAL  C00AA 2934   1.747   5.021   1.013
    1CAL  C00AB 2935   1.751   6.225   1.013
    1CAL  C00AC 2936   1.748   5.824   1.012
    1CAL  C00AD 2937   1.251   6.225   1.013
    1CAL  C00AE 2938   1.248   5.823   1.013
    1CAL  C00AF 2939   1.251   5.422   1.013
    1CAL  C00AG 2940   1.247   5.020   1.014
    1CAL  C00AH 2941   0.251   6.225   1.014
    1CAL  C00AI 2942   0.248   5.823   1.014
    1CAL  C00AJ 2943   0.251   5.423   1.013
    1CAL  C00AK 2944   0.247   5.020   1.015
    1CAL  O00Rt 2945   0.185   5.553   0.475
    1CAL  O00Ru 2946   1.186   5.710   0.317
    1CAL  O00Rv 2947   1.185   5.553   0.475
    1CAL  O00Rw 2948   1.379   5.631   0.397
    1CAL  O00Rx 2949   0.564   6.257   0.168
    1CAL  O00Ry 2950   0.371   6.337   0.088
    1CAL  O00Rz 2951   0.564   5.613   0.010
    1CAL  O00S0 2952   0.686   5.710   0.317
    1CAL  O00S1 2953   0.685   5.553   0.475
    1CAL  O00S2 2954   0.879   5.631   0.397
    1CAL  O00S3 2955   0.565   6.414   0.010
    1CAL  O00S4 2956   0.564   5.456   0.168
    1CAL  O00S5 2957   0.371   5.534   0.089
    1CAL  O00S6 2958   1.128   6.126   0.703
    1CAL  O00S7 2959   0.935   6.205   0.622
    1CAL  O00S8 2960   0.936   5.403   0.622
    1CAL  O00S9 2961   0.933   5.246   0.782
    1CAL  O00SA 2962   1.128   5.323   0.704
    1CAL  O00SB 2963   0.933   6.049   0.782
    1CAL  O00SC 2964   0.621   5.229   0.396
    1CAL  O00SD 2965   1.063   5.805   0.622
    1CAL  O00SE 2966   1.122   6.031   0.393
    1CAL  O00SF 2967   1.314   5.952   0.473
    1CAL  O00SG 2968   1.315   6.109   0.315
    1CAL  O00SH 2969   0.436   5.053   0.168
    1CAL  O00SI 2970   0.435   5.210   0.010
    1CAL  O00SJ 2971   0.621   6.031   0.393
    1CAL  O00SK 2972   0.814   5.952   0.473
    1CAL  O00SL 2973   0.815   6.109   0.315
    1CAL  O00SM 2974   0.314   5.308   0.317
    1CAL  O00SN 2975   0.814   5.150   0.475
    1CAL  O00SO 2976   0.936   6.015   0.009
    1CAL  O00SP 2977   1.129   5.936   0.089
    1CAL  O00SQ 2978   0.314   5.150   0.476
    1CAL  O00SR 2979   0.121   5.229   0.396
    1CAL  O00SS 2980   0.814   5.308   0.317
    1CAL  O00ST 2981   0.936   5.211   0.009
    1CAL  O00SU 2982   0.936   5.053   0.168
    1CAL  O00SV 2983   1.129   5.132   0.089
    1CAL  O00SW 2984   0.870   5.725   0.703
    1CAL  O00SX 2985   1.066   5.648   0.781
    1CAL  O00SY 2986   0.935   5.858   0.168
    1CAL  O00SZ 2987   1.686   5.710   0.317
    1CAL  O00Sa 2988   1.685   5.553   0.475
    1CAL  O00Sb 2989   1.879   5.631   0.397
    1CAL  O00Sc 2990   1.934   6.048   0.782
    1CAL  O00Sd 2991   1.936   5.403   0.623
    1CAL  O00Se 2992   1.934   5.245   0.782
    1CAL  O00Sf 2993   0.128   6.126   0.704
    1CAL  O00Sg 2994   0.064   5.001   0.623
    1CAL  O00Sh 2995   1.436   6.015   0.009
    1CAL  O00Si 2996   1.435   5.858   0.168
    1CAL  O00Sj 2997   1.629   5.936   0.089
    1CAL  O00Sk 2998   0.065   4.844   0.783
    1CAL  O00Sl 2999   1.434   6.049   0.782
    1CAL  O00Sm 3000   0.065   6.414   0.010
    1CAL  O00Sn 3001   0.064   6.257   0.168
    1CAL  O00So 3002   0.871   6.337   0.088
    1CAL  O00Sp 3003   1.871   5.725   0.704
    1CAL  O00Sq 3004   1.936   5.053   0.168
    1CAL  O00Sr 3005   1.064   5.001   0.623
    1CAL  O00Ss 3006   0.436   6.015   0.009
    1CAL  O00St 3007   0.435   5.858   0.168
    1CAL  O00Su 3008   0.629   5.936   0.089
    1CAL  O00Sv 3009   1.065   4.843   0.782
    1CAL  O00Sw 3010   0.433   6.049   0.782
    1CAL  O00Sx 3011   0.871   4.922   0.703
    1CAL  O00Sy 3012   1.872   5.534   0.089
    1CAL  O00Sz 3013   1.065   6.414   0.010
    1CAL  O00T0 3014   1.064   6.257   0.168
    1CAL  O00T1 3015   1.622   6.031   0.393
    1CAL  O00T2 3016   1.814   5.952   0.473
    1CAL  O00T3 3017   1.815   6.109   0.314
    1CAL  O00T4 3018   1.937   6.015   0.009
    1CAL  O00T5 3019   1.935   5.858   0.168
    1CAL  O00T6 3020   1.936   5.211   0.009
    1CAL  O00T7 3021   0.629   5.132   0.088
    1CAL  O00T8 3022   0.379   5.631   0.397
    1CAL  O00T9 3023   0.370   5.725   0.706
    1CAL  O00TA 3024   1.065   5.456   0.168
    1CAL  O00TB 3025   1.564   6.257   0.168
    1CAL  O00TC 3026   1.565   6.414   0.010
    1CAL  O00TD 3027   1.622   5.229   0.396
    1CAL  O00TE 3028   1.815   5.150   0.475
    1CAL  O00TF 3029   1.372   6.337   0.088
    1CAL  O00TG 3030   1.121   5.229   0.396
    1CAL  O00TH 3031   1.314   5.308   0.317
    1CAL  O00TI 3032   0.628   6.126   0.703
    1CAL  O00TJ 3033   1.436   5.210   0.010
    1CAL  O00TK 3034   1.436   5.053   0.168
    1CAL  O00TL 3035   1.629   5.132   0.088
    1CAL  O00TM 3036   1.371   5.725   0.705
    1CAL  O00TN 3037   1.566   5.648   0.781
    1CAL  O00TO 3038   1.315   5.150   0.475
    1CAL  O00TP 3039   1.563   5.806   0.622
    1CAL  O00TQ 3040   0.065   5.456   0.168
    1CAL  O00TR 3041   1.565   5.456   0.168
    1CAL  O00TS 3042   0.186   5.710   0.317
    1CAL  O00TT 3043   0.063   5.806   0.622
    1CAL  O00TU 3044   0.065   5.648   0.782
    1CAL  O00TV 3045   0.128   5.323   0.704
    1CAL  O00TW 3046   0.129   5.132   0.089
    1CAL  O00TX 3047   0.128   5.936   0.089
    1CAL  O00TY 3048   1.564   5.613   0.010
    1CAL  O00TZ 3049   0.315   6.109   0.315
    1CAL  O00Ta 3050   1.872   6.337   0.088
    1CAL  O00Tb 3051   1.871   4.922   0.704
    1CAL  O00Tc 3052   0.121   6.031   0.393
    1CAL  O00Td 3053   1.935   6.205   0.622
    1CAL  O00Te 3054   0.064   5.613   0.010
    1CAL  O00Tf 3055   1.372   5.534   0.089
    1CAL  O00Tg 3056   0.314   5.952   0.473
    1CAL  O00Th 3057   0.434   6.206   0.622
    1CAL  O00Ti 3058   0.628   5.323   0.703
    1CAL  O00Tj 3059   1.371   4.921   0.705
    1CAL  O00Tk 3060   1.436   5.403   0.622
    1CAL  O00Tl 3061   1.434   5.246   0.782
    1CAL  O00Tm 3062   1.629   5.323   0.703
    1CAL  O00Tn 3063   0.879   4.826   0.396
    1CAL  O00To 3064   0.686   6.354   0.475
    1CAL  O00Tp 3065   1.434   6.205   0.622
    1CAL  O00Tq 3066   1.628   6.126   0.702
    1CAL  O00Tr 3067   0.686   4.905   0.317
    1CAL  O00Ts 3068   0.563   5.001   0.623
    1CAL  O00Tt 3069   0.566   4.844   0.782
    1CAL  O00Tu 3070   0.370   4.922   0.705
    1CAL  O00Tv 3071   0.562   5.806   0.622
    1CAL  O00Tw 3072   0.567   5.648   0.782
    1CAL  O00Tx 3073   0.871   5.534   0.089
    1CAL  O00Ty 3074   1.566   4.843   0.782
    1CAL  O00Tz 3075   1.564   5.001   0.623
    1CAL  O00U0 3076   0.433   5.246   0.782
    1CAL  O00U1 3077   0.435   5.404   0.623
    1CAL  O00U2 3078   1.686   4.905   0.317
    1CAL  O00U3 3079   1.686   6.354   0.475
    1CAL  O00U4 3080   1.879   4.826   0.396
    1CAL  O00U5 3081   0.379   4.827   0.396
    1CAL  O00U6 3082   0.186   6.354   0.475
    1CAL  O00U7 3083   0.185   4.905   0.317
    1CAL  O00U8 3084   1.186   4.905   0.317
    1CAL  O00U9 3085   1.186   6.354   0.475
    1CAL  O00UA 3086   1.379   4.827   0.396
    1CAL  O00UB 3087   1.064   5.613   0.010
    1CAL  O00UC 3088   1.815   5.308   0.317
    1CAL  O00UD 3089   0.820   6.299   0.931
    1CAL  O00UE 3090   0.811   6.147   1.097
    1CAL  O00UF 3091   0.621   6.231   1.011
    1CAL  O00UG 3092   0.678   5.898   0.930
    1CAL  O00UH 3093   0.687   5.747   1.096
    1CAL  O00UI 3094   0.877   5.829   1.009
    1CAL  O00UJ 3095   0.877   5.026   1.010
    1CAL  O00UK 3096   0.687   4.943   1.097
    1CAL  O00UL 3097   0.678   5.094   0.931
    1CAL  O00UM 3098   0.621   5.428   1.010
    1CAL  O00UN 3099   0.811   5.344   1.096
    1CAL  O00UO 3100   0.820   5.496   0.931
    1CAL  O00UP 3101   1.679   5.898   0.930
    1CAL  O00UQ 3102   1.877   5.829   1.010
    1CAL  O00UR 3103   1.687   5.746   1.096
    1CAL  O00US 3104   1.622   6.230   1.010
    1CAL  O00UT 3105   1.811   6.147   1.096
    1CAL  O00UU 3106   1.820   6.299   0.931
    1CAL  O00UV 3107   1.678   5.094   0.931
    1CAL  O00UW 3108   1.877   5.026   1.010
    1CAL  O00UX 3109   1.687   4.943   1.097
    1CAL  O00UY 3110   1.621   5.427   1.010
    1CAL  O00UZ 3111   1.811   5.344   1.096
    1CAL  O00Ua 3112   1.820   5.496   0.931
    1CAL  O00Ub 3113   1.311   6.147   1.097
    1CAL  O00Uc 3114   1.121   6.230   1.011
    1CAL  O00Ud 3115   1.320   6.298   0.931
    1CAL  O00Ue 3116   1.179   5.897   0.931
    1CAL  O00Uf 3117   1.188   5.745   1.097
    1CAL  O00Ug 3118   1.378   5.829   1.011
    1CAL  O00Uh 3119   1.311   5.344   1.097
    1CAL  O00Ui 3120   1.320   5.495   0.931
    1CAL  O00Uj 3121   1.121   5.428   1.010
    1CAL  O00Uk 3122   1.179   5.094   0.932
    1CAL  O00Ul 3123   1.187   4.942   1.097
    1CAL  O00Um 3124   1.377   5.026   1.012
    1CAL  O00Un 3125   0.310   6.147   1.098
    1CAL  O00Uo 3126   0.121   6.231   1.011
    1CAL  O00Up 3127   0.320   6.298   0.932
    1CAL  O00Uq 3128   0.179   5.897   0.932
    1CAL  O00Ur 3129   0.188   5.745   1.097
    1CAL  O00Us 3130   0.378   5.829   1.013
    1CAL  O00Ut 3131   0.310   5.345   1.098
    1CAL  O00Uu 3132   0.121   5.428   1.010
    1CAL  O00Uv 3133   0.320   5.496   0.931
    1CAL  O00Uw 3134   0.377   5.026   1.013
    1CAL  O00Ux 3135   0.187   4.942   1.098
    1CAL  O00Uy 3136   0.179   5.094   0.933
    1CAL  Ca09J 3137   1.002   5.629   1.008
    1CAL  Ca09K 3138   1.750   5.333   0.089
    1CAL  Ca09L 3139   1.496   6.030   1.009
    1CAL  Ca09M 3140   0.002   5.629   1.009
    1CAL  Ca09N 3141   0.750   6.326   0.704
    1CAL  Ca09O 3142   1.750   5.735   0.089
    1CAL  Ca09P 3143   1.500   5.430   0.396
    1CAL  Ca09Q 3144   1.500   6.232   0.396
    1CAL  Ca09R 3145   0.249   5.925   0.703
    1CAL  Ca09S 3146   1.000   6.232   0.396
    1CAL  Ca09T 3147   0.502   4.826   1.009
    1CAL  Ca09U 3148   0.250   5.333   0.089
    1CAL  Ca09V 3149   0.250   5.524   0.704
    1CAL  Ca09W 3150   1.997   5.227   1.009
    1CAL  Ca09X 3151   1.997   6.030   1.009
    1CAL  Ca09Y 3152   1.749   5.925   0.702
    1CAL  Ca09Z 3153   1.250   4.931   0.089
    1CAL  Ca09a 3154   2.000   6.232   0.396
    1CAL  Ca09b 3155   1.750   4.931   0.089
    1CAL  Ca09c 3156   0.495   5.228   1.009
    1CAL  Ca09d 3157   0.002   4.826   1.010
    1CAL  Ca09e 3158   1.751   5.524   0.704
    1CAL  Ca09f 3159   0.250   5.735   0.089
    1CAL  Ca09g 3160   2.000   5.430   0.396
    1CAL  Ca09h 3161   1.500   5.831   0.395
    1CAL  Ca09i 3162   0.250   6.327   0.704
    1CAL  Ca09j 3163   1.750   6.136   0.090
    1CAL  Ca09k 3164   0.500   5.831   0.395
    1CAL  Ca09l 3165   0.496   6.031   1.009
    1CAL  Ca09m 3166   2.000   5.028   0.396
    1CAL  Ca09n 3167   0.500   6.232   0.396
    1CAL  Ca09o 3168   1.496   5.227   1.009
    1CAL  Ca09p 3169   1.250   5.735   0.089
    1CAL  Ca09q 3170   0.750   5.735   0.089
    1CAL  Ca09r 3171   1.000   5.028   0.396
    1CAL  Ca09s 3172   1.000   5.831   0.395
    1CAL  Ca09t 3173   0.500   5.430   0.396
    1CAL  Ca09u 3174   1.000   5.430   0.396
    1CAL  Ca09v 3175   0.749   5.925   0.703
    1CAL  Ca09w 3176   0.250   4.931   0.089
    1CAL  Ca09x 3177   0.750   5.333   0.089
    1CAL  Ca09y 3178   1.250   5.333   0.089
    1CAL  Ca09z 3179   1.249   5.925   0.703
    1CAL  Ca0A0 3180   1.250   6.326   0.704
    1CAL  Ca0A1 3181   1.749   5.122   0.704
    1CAL  Ca0A2 3182   1.002   4.826   1.009
    1CAL  Ca0A3 3183   0.748   5.122   0.704
    1CAL  Ca0A4 3184   0.503   5.629   1.008
    1CAL  Ca0A5 3185   0.500   5.028   0.396
    1CAL  Ca0A6 3186   0.750   4.931   0.089
    1CAL  Ca0A7 3187   1.250   6.136   0.090
    1CAL  Ca0A8 3188   1.249   5.122   0.704
    1CAL  Ca0A9 3189   0.996   5.227   1.009
    1CAL  Ca0AA 3190   0.750   6.136   0.090
    1CAL  Ca0AB 3191   0.996   6.030   1.009
    1CAL  Ca0AC 3192   0.250   6.136   0.090
    1CAL  Ca0AD 3193   1.500   5.028   0.396
    1CAL  Ca0AE 3194   1.503   5.629   1.008
    1CAL  Ca0AF 3195   1.502   4.825   1.009
    1CAL  Ca0AG 3196   0.750   5.524   0.704
    1CAL  Ca0AH 3197   1.750   6.327   0.704
    1CAL  Ca0AI 3198   1.250   5.524   0.704
    1CAL  Ca0AJ 3199   0.249   5.122   0.704
    1CAL  Ca0AK 3200   2.000   5.831   0.395
    1CAL  C00AL 3201   2.000   6.336   1.317
    1CAL  C00AM 3202   1.250   4.826   1.624
    1CAL  C00AN 3203   0.250   4.826   1.624
    1CAL  C00AO 3204   1.499   5.324   1.930
    1CAL  C00AP 3205   1.499   6.127   1.930
    1CAL  C00AQ 3206   0.750   4.826   1.624
    1CAL  C00AR 3207   1.000   5.534   1.317
    1CAL  C00AS 3208   1.250   6.031   1.621
    1CAL  C00AT 3209   0.750   6.031   1.622
    1CAL  C00AU 3210   0.500   5.726   1.931
    1CAL  C00AV 3211   0.500   5.132   1.317
    1CAL  C00AW 3212   1.000   5.936   1.317
    1CAL  C00AX 3213   1.000   5.132   1.317
    1CAL  C00AY 3214   0.250   5.229   1.624
    1CAL  C00AZ 3215   0.500   4.922   1.931
    1CAL  C00Aa 3216   1.000   5.726   1.930
    1CAL  C00Ab 3217   1.750   4.826   1.624
    1CAL  C00Ac 3218   1.500   4.922   1.931
    1CAL  C00Ad 3219   0.250   5.631   1.624
    1CAL  C00Ae 3220   1.999   5.324   1.931
    1CAL  C00Af 3221   2.000   5.726   1.930
    1CAL  C00Ag 3222   2.000   5.132   1.317
    1CAL  C00Ah 3223   2.000   5.936   1.317
    1CAL  C00Ai 3224   0.250   6.031   1.622
    1CAL  C00Aj 3225   0.499   5.324   1.930
    1CAL  C00Ak 3226   1.500   5.534   1.317
    1CAL  C00Al 3227   2.000   5.534   1.317
    1CAL  C00Am 3228   1.750   5.229   1.624
    1CAL  C00An 3229   1.250   5.229   1.624
    1CAL  C00Ao 3230   1.500   5.132   1.317
    1CAL  C00Ap 3231   1.500   5.726   1.930
    1CAL  C00Aq 3232   0.498   6.127   1.930
    1CAL  C00Ar 3233   1.500   6.336   1.317
    1CAL  C00As 3234   0.750   5.229   1.624
    1CAL  C00At 3235   1.250   5.631   1.624
    1CAL  C00Au 3236   0.500   5.936   1.317
    1CAL  C00Av 3237   1.750   6.031   1.621
    1CAL  C00Aw 3238   1.000   6.336   1.317
    1CAL  C00Ax 3239   1.999   6.127   1.931
    1CAL  C00Ay 3240   1.000   4.922   1.930
    1CAL  C00Az 3241   0.999   6.127   1.930
    1CAL  C00B0 3242   0.999   5.324   1.931
    1CAL  C00B1 3243   1.750   5.631   1.624
    1CAL  C00B2 3244   0.500   6.336   1.317
    1CAL  C00B3 3245   1.500   5.936   1.317
    1CAL  C00B4 3246   0.500   5.534   1.317
    1CAL  C00B5 3247   0.750   5.631   1.624
    1CAL  C00B6 3248   2.000   4.922   1.931
    1CAL  C00B7 3249   0.751   5.422   2.241
    1CAL  C00B8 3250   0.747   5.021   2.241
    1CAL  C00B9 3251   0.747   5.824   2.240
    1CAL  C00BA 3252   0.751   6.225   2.241
    1CAL  C00BB 3253   1.751   5.422   2.241
    1CAL  C00BC 3254   1.747   5.021   2.241
    1CAL  C00BD 3255   1.751   6.225   2.241
    1CAL  C00BE 3256   1.748   5.824   2.240
    1CAL  C00BF 3257   1.251   6.225   2.241
    1CAL  C00BG 3258   1.248   5.823   2.241
    1CAL  C00BH 3259   1.251   5.422   2.241
    1CAL  C00BI 3260   1.247   5.020   2.242
    1CAL  C00BJ 3261   0.251   6.225   2.242
    1CAL  C00BK 3262   0.248   5.823   2.242
    1CAL  C00BL 3263   0.251   5.423   2.241
    1CAL  C00BM 3264   0.247   5.020   2.243
    1CAL  O00Uz 3265   0.185   5.553   1.703
    1CAL  O00V0 3266   1.186   5.710   1.545
    1CAL  O00V1 3267   1.185   5.553   1.703
    1CAL  O00V2 3268   1.379   5.631   1.625
    1CAL  O00V3 3269   0.564   6.257   1.396
    1CAL  O00V4 3270   0.371   6.337   1.316
    1CAL  O00V5 3271   0.564   5.613   1.238
    1CAL  O00V6 3272   0.686   5.710   1.545
    1CAL  O00V7 3273   0.685   5.553   1.703
    1CAL  O00V8 3274   0.879   5.631   1.625
    1CAL  O00V9 3275   0.565   6.414   1.238
    1CAL  O00VA 3276   0.564   5.456   1.396
    1CAL  O00VB 3277   0.371   5.534   1.317
    1CAL  O00VC 3278   1.128   6.126   1.931
    1CAL  O00VD 3279   0.935   6.205   1.850
    1CAL  O00VE 3280   0.936   5.403   1.850
    1CAL  O00VF 3281   0.933   5.246   2.010
    1CAL  O00VG 3282   1.128   5.323   1.932
    1CAL  O00VH 3283   0.933   6.049   2.010
    1CAL  O00VI 3284   0.621   5.229   1.624
    1CAL  O00VJ 3285   1.063   5.805   1.850
    1CAL  O00VK 3286   1.122   6.031   1.621
    1CAL  O00VL 3287   1.314   5.952   1.701
    1CAL  O00VM 3288   1.315   6.109   1.543
    1CAL  O00VN 3289   0.436   5.053   1.396
    1CAL  O00VO 3290   0.435   5.210   1.238
    1CAL  O00VP 3291   0.621   6.031   1.621
    1CAL  O00VQ 3292   0.814   5.952   1.701
    1CAL  O00VR 3293   0.815   6.109   1.543
    1CAL  O00VS 3294   0.314   5.308   1.545
    1CAL  O00VT 3295   0.814   5.150   1.703
    1CAL  O00VU 3296   0.936   6.015   1.237
    1CAL  O00VV 3297   1.129   5.936   1.317
    1CAL  O00VW 3298   0.314   5.150   1.704
    1CAL  O00VX 3299   0.121   5.229   1.624
    1CAL  O00VY 3300   0.814   5.308   1.545
    1CAL  O00VZ 3301   0.936   5.211   1.237
    1CAL  O00Va 3302   0.936   5.053   1.396
    1CAL  O00Vb 3303   1.129   5.132   1.317
    1CAL  O00Vc 3304   0.870   5.725   1.931
    1CAL  O00Vd 3305   1.066   5.648   2.009
    1CAL  O00Ve 3306   0.935   5.858   1.396
    1CAL  O00Vf 3307   1.686   5.710   1.545
    1CAL  O00Vg 3308   1.685   5.553   1.703
    1CAL  O00Vh 3309   1.879   5.631   1.625
    1CAL  O00Vi 3310   1.934   6.048   2.010
    1CAL  O00Vj 3311   1.936   5.403   1.851
    1CAL  O00Vk 3312   1.934   5.245   2.010
    1CAL  O00Vl 3313   0.128   6.126   1.932
    1CAL  O00Vm 3314   0.064   5.001   1.851
    1CAL  O00Vn 3315   1.436   6.015   1.237
    1CAL  O00Vo 3316   1.435   5.858   1.396
    1CAL  O00Vp 3317   1.629   5.936   1.317
    1CAL  O00Vq 3318   0.065   4.844   2.011
    1CAL  O00Vr 3319   1.434   6.049   2.010
    1CAL  O00Vs 3320   0.065   6.414   1.238
    1CAL  O00Vt 3321   0.064   6.257   1.396
    1CAL  O00Vu 3322   0.871   6.337   1.316
    1CAL  O00Vv 3323   1.871   5.725   1.932
    1CAL  O00Vw 3324   1.936   5.053   1.396
    1CAL  O00Vx 3325   1.064   5.001   1.851
    1CAL  O00Vy 3326   0.436   6.015   1.237
    1CAL  O00Vz 3327   0.435   5.858   1.396
    1CAL  O00W0 3328   0.629   5.936   1.317
    1CAL  O00W1 3329   1.065   4.843   2.010
    1CAL  O00W2 3330   0.433   6.049   2.010
    1CAL  O00W3 3331   0.871   4.922   1.931
    1CAL  O00W4 3332   1.872   5.534   1.317
    1CAL  O00W5 3333   1.065   6.414   1.238
    1CAL  O00W6 3334   1.064   6.257   1.396
    1CAL  O00W7 3335   1.622   6.031   1.621
    1CAL  O00W8 3336   1.814   5.952   1.701
    1CAL  O00W9 3337   1.815   6.109   1.542
    1CAL  O00WA 3338   1.937   6.015   1.237
    1CAL  O00WB 3339   1.935   5.858   1.396
    1CAL  O00WC 3340   1.936   5.211   1.237
    1CAL  O00WD 3341   0.629   5.132   1.316
    1CAL  O00WE 3342   0.379   5.631   1.625
    1CAL  O00WF 3343   0.370   5.725   1.934
    1CAL  O00WG 3344   1.065   5.456   1.396
    1CAL  O00WH 3345   1.564   6.257   1.396
    1CAL  O00WI 3346   1.565   6.414   1.238
    1CAL  O00WJ 3347   1.622   5.229   1.624
    1CAL  O00WK 3348   1.815   5.150   1.703
    1CAL  O00WL 3349   1.372   6.337   1.316
    1CAL  O00WM 3350   1.121   5.229   1.624
    1CAL  O00WN 3351   1.314   5.308   1.545
    1CAL  O00WO 3352   0.628   6.126   1.931
    1CAL  O00WP 3353   1.436   5.210   1.238
    1CAL  O00WQ 3354   1.436   5.053   1.396
    1CAL  O00WR 3355   1.629   5.132   1.316
    1CAL  O00WS 3356   1.371   5.725   1.933
    1CAL  O00WT 3357   1.566   5.648   2.009
    1CAL  O00WU 3358   1.315   5.150   1.703
    1CAL  O00WV 3359   1.563   5.806   1.850
    1CAL  O00WW 3360   0.065   5.456   1.396
    1CAL  O00WX 3361   1.565   5.456   1.396
    1CAL  O00WY 3362   0.186   5.710   1.545
    1CAL  O00WZ 3363   0.063   5.806   1.850
    1CAL  O00Wa 3364   0.065   5.648   2.010
    1CAL  O00Wb 3365   0.128   5.323   1.932
    1CAL  O00Wc 3366   0.129   5.132   1.317
    1CAL  O00Wd 3367   0.128   5.936   1.317
    1CAL  O00We 3368   1.564   5.613   1.238
    1CAL  O00Wf 3369   0.315   6.109   1.543
    1CAL  O00Wg 3370   1.872   6.337   1.316
    1CAL  O00Wh 3371   1.871   4.922   1.932
    1CAL  O00Wi 3372   0.121   6.031   1.621
    1CAL  O00Wj 3373   1.935   6.205   1.850
    1CAL  O00Wk 3374   0.064   5.613   1.238
    1CAL  O00Wl 3375   1.372   5.534   1.317
    1CAL  O00Wm 3376   0.314   5.952   1.701
    1CAL  O00Wn 3377   0.434   6.206   1.850
    1CAL  O00Wo 3378   0.628   5.323   1.931
    1CAL  O00Wp 3379   1.371   4.921   1.933
    1CAL  O00Wq 3380   1.436   5.403   1.850
    1CAL  O00Wr 3381   1.434   5.246   2.010
    1CAL  O00Ws 3382   1.629   5.323   1.931
    1CAL  O00Wt 3383   0.879   4.826   1.624
    1CAL  O00Wu 3384   0.686   6.354   1.703
    1CAL  O00Wv 3385   1.434   6.205   1.850
    1CAL  O00Ww 3386   1.628   6.126   1.930
    1CAL  O00Wx 3387   0.686   4.905   1.545
    1CAL  O00Wy 3388   0.563   5.001   1.851
    1CAL  O00Wz 3389   0.566   4.844   2.010
    1CAL  O00X0 3390   0.370   4.922   1.933
    1CAL  O00X1 3391   0.562   5.806   1.850
    1CAL  O00X2 3392   0.567   5.648   2.010
    1CAL  O00X3 3393   0.871   5.534   1.317
    1CAL  O00X4 3394   1.566   4.843   2.010
    1CAL  O00X5 3395   1.564   5.001   1.851
    1CAL  O00X6 3396   0.433   5.246   2.010
    1CAL  O00X7 3397   0.435   5.404   1.851
    1CAL  O00X8 3398   1.686   4.905   1.545
    1CAL  O00X9 3399   1.686   6.354   1.703
    1CAL  O00XA 3400   1.879   4.826   1.624
    1CAL  O00XB 3401   0.379   4.827   1.624
    1CAL  O00XC 3402   0.186   6.354   1.703
    1CAL  O00XD 3403   0.185   4.905   1.545
    1CAL  O00XE 3404   1.186   4.905   1.545
    1CAL  O00XF 3405   1.186   6.354   1.703
    1CAL  O00XG 3406   1.379   4.827   1.624
    1CAL  O00XH 3407   1.064   5.613   1.238
    1CAL  O00XI 3408   1.815   5.308   1.545
    1CAL  O00XJ 3409   0.820   6.299   2.159
    1CAL  O00XK 3410   0.811   6.147   2.325
    1CAL  O00XL 3411   0.621   6.231   2.239
    1CAL  O00XM 3412   0.678   5.898   2.158
    1CAL  O00XN 3413   0.687   5.747   2.324
    1CAL  O00XO 3414   0.877   5.829   2.237
    1CAL  O00XP 3415   0.877   5.026   2.238
    1CAL  O00XQ 3416   0.687   4.943   2.325
    1CAL  O00XR 3417   0.678   5.094   2.159
    1CAL  O00XS 3418   0.621   5.428   2.238
    1CAL  O00XT 3419   0.811   5.344   2.324
    1CAL  O00XU 3420   0.820   5.496   2.159
    1CAL  O00XV 3421   1.679   5.898   2.158
    1CAL  O00XW 3422   1.877   5.829   2.238
    1CAL  O00XX 3423   1.687   5.746   2.324
    1CAL  O00XY 3424   1.622   6.230   2.238
    1CAL  O00XZ 3425   1.811   6.147   2.324
    1CAL  O00Xa 3426   1.820   6.299   2.159
    1CAL  O00Xb 3427   1.678   5.094   2.159
    1CAL  O00Xc 3428   1.877   5.026   2.238
    1CAL  O00Xd 3429   1.687   4.943   2.325
    1CAL  O00Xe 3430   1.621   5.427   2.238
    1CAL  O00Xf 3431   1.811   5.344   2.324
    1CAL  O00Xg 3432   1.820   5.496   2.159
    1CAL  O00Xh 3433   1.311   6.147   2.325
    1CAL  O00Xi 3434   1.121   6.230   2.239
    1CAL  O00Xj 3435   1.320   6.298   2.159
    1CAL  O00Xk 3436   1.179   5.897   2.159
    1CAL  O00Xl 3437   1.188   5.745   2.325
    1CAL  O00Xm 3438   1.378   5.829   2.239
    1CAL  O00Xn 3439   1.311   5.344   2.325
    1CAL  O00Xo 3440   1.320   5.495   2.159
    1CAL  O00Xp 3441   1.121   5.428   2.238
    1CAL  O00Xq 3442   1.179   5.094   2.160
    1CAL  O00Xr 3443   1.187   4.942   2.325
    1CAL  O00Xs 3444   1.377   5.026   2.240
    1CAL  O00Xt 3445   0.310   6.147   2.326
    1CAL  O00Xu 3446   0.121   6.231   2.239
    1CAL  O00Xv 3447   0.320   6.298   2.160
    1CAL  O00Xw 3448   0.179   5.897   2.160
    1CAL  O00Xx 3449   0.188   5.745   2.325
    1CAL  O00Xy 3450   0.378   5.829   2.241
    1CAL  O00Xz 3451   0.310   5.345   2.326
    1CAL  O00Y0 3452   0.121   5.428   2.238
    1CAL  O00Y1 3453   0.320   5.496   2.159
    1CAL  O00Y2 3454   0.377   5.026   2.241
    1CAL  O00Y3 3455   0.187   4.942   2.326
    1CAL  O00Y4 3456   0.179   5.094   2.161
    1CAL  Ca0AL 3457   1.002   5.629   2.236
    1CAL  Ca0AM 3458   1.750   5.333   1.317
    1CAL  Ca0AN 3459   1.496   6.030   2.237
    1CAL  Ca0AO 3460   0.002   5.629   2.237
    1CAL  Ca0AP 3461   0.750   6.326   1.932
    1CAL  Ca0AQ 3462   1.750   5.735   1.317
    1CAL  Ca0AR 3463   1.500   5.430   1.624
    1CAL  Ca0AS 3464   1.500   6.232   1.624
    1CAL  Ca0AT 3465   0.249   5.925   1.931
    1CAL  Ca0AU 3466   1.000   6.232   1.624
    1CAL  Ca0AV 3467   0.502   4.826   2.237
    1CAL  Ca0AW 3468   0.250   5.333   1.317
    1CAL  Ca0AX 3469   0.250   5.524   1.932
    1CAL  Ca0AY 3470   1.997   5.227   2.237
    1CAL  Ca0AZ 3471   1.997   6.030   2.237
    1CAL  Ca0Aa 3472   1.749   5.925   1.930
    1CAL  Ca0Ab 3473   1.250   4.931   1.317
    1CAL  Ca0Ac 3474   2.000   6.232   1.624
    1CAL  Ca0Ad 3475   1.750   4.931   1.317
    1CAL  Ca0Ae 3476   0.495   5.228   2.237
    1CAL  Ca0Af 3477   0.002   4.826   2.238
    1CAL  Ca0Ag 3478   1.751   5.524   1.932
    1CAL  Ca0Ah 3479   0.250   5.735   1.317
    1CAL  Ca0Ai 3480   2.000   5.430   1.624
    1CAL  Ca0Aj 3481   1.500   5.831   1.623
    1CAL  Ca0Ak 3482   0.250   6.327   1.932
    1CAL  Ca0Al 3483   1.750   6.136   1.318
    1CAL  Ca0Am 3484   0.500   5.831   1.623
    1CAL  Ca0An 3485   0.496   6.031   2.237
    1CAL  Ca0Ao 3486   2.000   5.028   1.624
    1CAL  Ca0Ap 3487   0.500   6.232   1.624
    1CAL  Ca0Aq 3488   1.496   5.227   2.237
    1CAL  Ca0Ar 3489   1.250   5.735   1.317
    1CAL  Ca0As 3490   0.750   5.735   1.317
    1CAL  Ca0At 3491   1.000   5.028   1.624
    1CAL  Ca0Au 3492   1.000   5.831   1.623
    1CAL  Ca0Av 3493   0.500   5.430   1.624
    1CAL  Ca0Aw 3494   1.000   5.430   1.624
    1CAL  Ca0Ax 3495   0.749   5.925   1.931
    1CAL  Ca0Ay 3496   0.250   4.931   1.317
    1CAL  Ca0Az 3497   0.750   5.333   1.317
    1CAL  Ca0B0 3498   1.250   5.333   1.317
    1CAL  Ca0B1 3499   1.249   5.925   1.931
    1CAL  Ca0B2 3500   1.250   6.326   1.932
    1CAL  Ca0B3 3501   1.749   5.122   1.932
    1CAL  Ca0B4 3502   1.002   4.826   2.237
    1CAL  Ca0B5 3503   0.748   5.122   1.932
    1CAL  Ca0B6 3504   0.503   5.629   2.236
    1CAL  Ca0B7 3505   0.500   5.028   1.624
    1CAL  Ca0B8 3506   0.750   4.931   1.317
    1CAL  Ca0B9 3507   1.250   6.136   1.318
    1CAL  Ca0BA 3508   1.249   5.122   1.932
    1CAL  Ca0BB 3509   0.996   5.227   2.237
    1CAL  Ca0BC 3510   0.750   6.136   1.318
    1CAL  Ca0BD 3511   0.996   6.030   2.237
    1CAL  Ca0BE 3512   0.250   6.136   1.318
    1CAL  Ca0BF 3513   1.500   5.028   1.624
    1CAL  Ca0BG 3514   1.503   5.629   2.236
    1CAL  Ca0BH 3515   1.502   4.825   2.237
    1CAL  Ca0BI 3516   0.750   5.524   1.932
    1CAL  Ca0BJ 3517   1.750   6.327   1.932
    1CAL  Ca0BK 3518   1.250   5.524   1.932
    1CAL  Ca0BL 3519   0.249   5.122   1.932
    1CAL  Ca0BM 3520   2.000   5.831   1.623
    1CAL  C00BN 3521   2.000   6.336   2.545
    1CAL  C00BO 3522   1.250   4.826   2.852
    1CAL  C00BP 3523   0.250   4.826   2.852
    1CAL  C00BQ 3524   1.499   5.324   3.158
    1CAL  C00BR 3525   1.499   6.127   3.158
    1CAL  C00BS 3526   0.750   4.826   2.852
    1CAL  C00BT 3527   1.000   5.534   2.545
    1CAL  C00BU 3528   1.250   6.031   2.849
    1CAL  C00BV 3529   0.750   6.031   2.850
    1CAL  C00BW 3530   0.500   5.726   3.159
    1CAL  C00BX 3531   0.500   5.132   2.545
    1CAL  C00BY 3532   1.000   5.936   2.545
    1CAL  C00BZ 3533   1.000   5.132   2.545
    1CAL  C00Ba 3534   0.250   5.229   2.852
    1CAL  C00Bb 3535   0.500   4.922   3.159
    1CAL  C00Bc 3536   1.000   5.726   3.158
    1CAL  C00Bd 3537   1.750   4.826   2.852
    1CAL  C00Be 3538   1.500   4.922   3.159
    1CAL  C00Bf 3539   0.250   5.631   2.852
    1CAL  C00Bg 3540   1.999   5.324   3.159
    1CAL  C00Bh 3541   2.000   5.726   3.158
    1CAL  C00Bi 3542   2.000   5.132   2.545
    1CAL  C00Bj 3543   2.000   5.936   2.545
    1CAL  C00Bk 3544   0.250   6.031   2.850
    1CAL  C00Bl 3545   0.499   5.324   3.158
    1CAL  C00Bm 3546   1.500   5.534   2.545
    1CAL  C00Bn 3547   2.000   5.534   2.545
    1CAL  C00Bo 3548   1.750   5.229   2.852
    1CAL  C00Bp 3549   1.250   5.229   2.852
    1CAL  C00Bq 3550   1.500   5.132   2.545
    1CAL  C00Br 3551   1.500   5.726   3.158
    1CAL  C00Bs 3552   0.498   6.127   3.158
    1CAL  C00Bt 3553   1.500   6.336   2.545
    1CAL  C00Bu 3554   0.750   5.229   2.852
    1CAL  C00Bv 3555   1.250   5.631   2.852
    1CAL  C00Bw 3556   0.500   5.936   2.545
    1CAL  C00Bx 3557   1.750   6.031   2.849
    1CAL  C00By 3558   1.000   6.336   2.545
    1CAL  C00Bz 3559   1.999   6.127   3.159
    1CAL  C00C0 3560   1.000   4.922   3.158
    1CAL  C00C1 3561   0.999   6.127   3.158
    1CAL  C00C2 3562   0.999   5.324   3.159
    1CAL  C00C3 3563   1.750   5.631   2.852
    1CAL  C00C4 3564   0.500   6.336   2.545
    1CAL  C00C5 3565   1.500   5.936   2.545
    1CAL  C00C6 3566   0.500   5.534   2.545
    1CAL  C00C7 3567   0.750   5.631   2.852
    1CAL  C00C8 3568   2.000   4.922   3.159
    1CAL  C00C9 3569   0.751   5.422   3.469
    1CAL  C00CA 3570   0.747   5.021   3.469
    1CAL  C00CB 3571   0.747   5.824   3.468
    1CAL  C00CC 3572   0.751   6.225   3.469
    1CAL  C00CD 3573   1.751   5.422   3.469
    1CAL  C00CE 3574   1.747   5.021   3.469
    1CAL  C00CF 3575   1.751   6.225   3.469
    1CAL  C00CG 3576   1.748   5.824   3.468
    1CAL  C00CH 3577   1.251   6.225   3.469
    1CAL  C00CI 3578   1.248   5.823   3.469
    1CAL  C00CJ 3579   1.251   5.422   3.469
    1CAL  C00CK 3580   1.247   5.020   3.470
    1CAL  C00CL 3581   0.251   6.225   3.470
    1CAL  C00CM 3582   0.248   5.823   3.470
    1CAL  C00CN 3583   0.251   5.423   3.469
    1CAL  C00CO 3584   0.247   5.020   3.471
    1CAL  O00Y5 3585   0.185   5.553   2.931
    1CAL  O00Y6 3586   1.186   5.710   2.773
    1CAL  O00Y7 3587   1.185   5.553   2.931
    1CAL  O00Y8 3588   1.379   5.631   2.853
    1CAL  O00Y9 3589   0.564   6.257   2.624
    1CAL  O00YA 3590   0.371   6.337   2.544
    1CAL  O00YB 3591   0.564   5.613   2.466
    1CAL  O00YC 3592   0.686   5.710   2.773
    1CAL  O00YD 3593   0.685   5.553   2.931
    1CAL  O00YE 3594   0.879   5.631   2.853
    1CAL  O00YF 3595   0.565   6.414   2.466
    1CAL  O00YG 3596   0.564   5.456   2.624
    1CAL  O00YH 3597   0.371   5.534   2.545
    1CAL  O00YI 3598   1.128   6.126   3.159
    1CAL  O00YJ 3599   0.935   6.205   3.078
    1CAL  O00YK 3600   0.936   5.403   3.078
    1CAL  O00YL 3601   0.933   5.246   3.238
    1CAL  O00YM 3602   1.128   5.323   3.160
    1CAL  O00YN 3603   0.933   6.049   3.238
    1CAL  O00YO 3604   0.621   5.229   2.852
    1CAL  O00YP 3605   1.063   5.805   3.078
    1CAL  O00YQ 3606   1.122   6.031   2.849
    1CAL  O00YR 3607   1.314   5.952   2.929
    1CAL  O00YS 3608   1.315   6.109   2.771
    1CAL  O00YT 3609   0.436   5.053   2.624
    1CAL  O00YU 3610   0.435   5.210   2.466
    1CAL  O00YV 3611   0.621   6.031   2.849
    1CAL  O00YW 3612   0.814   5.952   2.929
    1CAL  O00YX 3613   0.815   6.109   2.771
    1CAL  O00YY 3614   0.314   5.308   2.773
    1CAL  O00YZ 3615   0.814   5.150   2.931
    1CAL  O00Ya 3616   0.936   6.015   2.465
    1CAL  O00Yb 3617   1.129   5.936   2.545
    1CAL  O00Yc 3618   0.314   5.150   2.932
    1CAL  O00Yd 3619   0.121   5.229   2.852
    1CAL  O00Ye 3620   0.814   5.308   2.773
    1CAL  O00Yf 3621   0.936   5.211   2.465
    1CAL  O00Yg 3622   0.936   5.053   2.624
    1CAL  O00Yh 3623   1.129   5.132   2.545
    1CAL  O00Yi 3624   0.870   5.725   3.159
    1CAL  O00Yj 3625   1.066   5.648   3.237
    1CAL  O00Yk 3626   0.935   5.858   2.624
    1CAL  O00Yl 3627   1.686   5.710   2.773
    1CAL  O00Ym 3628   1.685   5.553   2.931
    1CAL  O00Yn 3629   1.879   5.631   2.853
    1CAL  O00Yo 3630   1.934   6.048   3.238
    1CAL  O00Yp 3631   1.936   5.403   3.079
    1CAL  O00Yq 3632   1.934   5.245   3.238
    1CAL  O00Yr 3633   0.128   6.126   3.160
    1CAL  O00Ys 3634   0.064   5.001   3.079
    1CAL  O00Yt 3635   1.436   6.015   2.465
    1CAL  O00Yu 3636   1.435   5.858   2.624
    1CAL  O00Yv 3637   1.629   5.936   2.545
    1CAL  O00Yw 3638   0.065   4.844   3.239
    1CAL  O00Yx 3639   1.434   6.049   3.238
    1CAL  O00Yy 3640   0.065   6.414   2.466
    1CAL  O00Yz 3641   0.064   6.257   2.624
    1CAL  O00Z0 3642   0.871   6.337   2.544
    1CAL  O00Z1 3643   1.871   5.725   3.160
    1CAL  O00Z2 3644   1.936   5.053   2.624
    1CAL  O00Z3 3645   1.064   5.001   3.079
    1CAL  O00Z4 3646   0.436   6.015   2.465
    1CAL  O00Z5 3647   0.435   5.858   2.624
    1CAL  O00Z6 3648   0.629   5.936   2.545
    1CAL  O00Z7 3649   1.065   4.843   3.238
    1CAL  O00Z8 3650   0.433   6.049   3.238
    1CAL  O00Z9 3651   0.871   4.922   3.159
    1CAL  O00ZA 3652   1.872   5.534   2.545
    1CAL  O00ZB 3653   1.065   6.414   2.466
    1CAL  O00ZC 3654   1.064   6.257   2.624
    1CAL  O00ZD 3655   1.622   6.031   2.849
    1CAL  O00ZE 3656   1.814   5.952   2.929
    1CAL  O00ZF 3657   1.815   6.109   2.770
    1CAL  O00ZG 3658   1.937   6.015   2.465
    1CAL  O00ZH 3659   1.935   5.858   2.624
    1CAL  O00ZI 3660   1.936   5.211   2.465
    1CAL  O00ZJ 3661   0.629   5.132   2.544
    1CAL  O00ZK 3662   0.379   5.631   2.853
    1CAL  O00ZL 3663   0.370   5.725   3.162
    1CAL  O00ZM 3664   1.065   5.456   2.624
    1CAL  O00ZN 3665   1.564   6.257   2.624
    1CAL  O00ZO 3666   1.565   6.414   2.466
    1CAL  O00ZP 3667   1.622   5.229   2.852
    1CAL  O00ZQ 3668   1.815   5.150   2.931
    1CAL  O00ZR 3669   1.372   6.337   2.544
    1CAL  O00ZS 3670   1.121   5.229   2.852
    1CAL  O00ZT 3671   1.314   5.308   2.773
    1CAL  O00ZU 3672   0.628   6.126   3.159
    1CAL  O00ZV 3673   1.436   5.210   2.466
    1CAL  O00ZW 3674   1.436   5.053   2.624
    1CAL  O00ZX 3675   1.629   5.132   2.544
    1CAL  O00ZY 3676   1.371   5.725   3.161
    1CAL  O00ZZ 3677   1.566   5.648   3.237
    1CAL  O00Za 3678   1.315   5.150   2.931
    1CAL  O00Zb 3679   1.563   5.806   3.078
    1CAL  O00Zc 3680   0.065   5.456   2.624
    1CAL  O00Zd 3681   1.565   5.456   2.624
    1CAL  O00Ze 3682   0.186   5.710   2.773
    1CAL  O00Zf 3683   0.063   5.806   3.078
    1CAL  O00Zg 3684   0.065   5.648   3.238
    1CAL  O00Zh 3685   0.128   5.323   3.160
    1CAL  O00Zi 3686   0.129   5.132   2.545
    1CAL  O00Zj 3687   0.128   5.936   2.545
    1CAL  O00Zk 3688   1.564   5.613   2.466
    1CAL  O00Zl 3689   0.315   6.109   2.771
    1CAL  O00Zm 3690   1.872   6.337   2.544
    1CAL  O00Zn 3691   1.871   4.922   3.160
    1CAL  O00Zo 3692   0.121   6.031   2.849
    1CAL  O00Zp 3693   1.935   6.205   3.078
    1CAL  O00Zq 3694   0.064   5.613   2.466
    1CAL  O00Zr 3695   1.372   5.534   2.545
    1CAL  O00Zs 3696   0.314   5.952   2.929
    1CAL  O00Zt 3697   0.434   6.206   3.078
    1CAL  O00Zu 3698   0.628   5.323   3.159
    1CAL  O00Zv 3699   1.371   4.921   3.161
    1CAL  O00Zw 3700   1.436   5.403   3.078
    1CAL  O00Zx 3701   1.434   5.246   3.238
    1CAL  O00Zy 3702   1.629   5.323   3.159
    1CAL  O00Zz 3703   0.879   4.826   2.852
    1CAL  O00a0 3704   0.686   6.354   2.931
    1CAL  O00a1 3705   1.434   6.205   3.078
    1CAL  O00a2 3706   1.628   6.126   3.158
    1CAL  O00a3 3707   0.686   4.905   2.773
    1CAL  O00a4 3708   0.563   5.001   3.079
    1CAL  O00a5 3709   0.566   4.844   3.238
    1CAL  O00a6 3710   0.370   4.922   3.161
    1CAL  O00a7 3711   0.562   5.806   3.078
    1CAL  O00a8 3712   0.567   5.648   3.238
    1CAL  O00a9 3713   0.871   5.534   2.545
    1CAL  O00aA 3714   1.566   4.843   3.238
    1CAL  O00aB 3715   1.564   5.001   3.079
    1CAL  O00aC 3716   0.433   5.246   3.238
    1CAL  O00aD 3717   0.435   5.404   3.079
    1CAL  O00aE 3718   1.686   4.905   2.773
    1CAL  O00aF 3719   1.686   6.354   2.931
    1CAL  O00aG 3720   1.879   4.826   2.852
    1CAL  O00aH 3721   0.379   4.827   2.852
    1CAL  O00aI 3722   0.186   6.354   2.931
    1CAL  O00aJ 3723   0.185   4.905   2.773
    1CAL  O00aK 3724   1.186   4.905   2.773
    1CAL  O00aL 3725   1.186   6.354   2.931
    1CAL  O00aM 3726   1.379   4.827   2.852
    1CAL  O00aN 3727   1.064   5.613   2.466
    1CAL  O00aO 3728   1.815   5.308   2.773
    1CAL  O00aP 3729   0.820   6.299   3.387
    1CAL  O00aQ 3730   0.811   6.147   3.553
    1CAL  O00aR 3731   0.621   6.231   3.467
    1CAL  O00aS 3732   0.678   5.898   3.386
    1CAL  O00aT 3733   0.687   5.747   3.552
    1CAL  O00aU 3734   0.877   5.829   3.465
    1CAL  O00aV 3735   0.877   5.026   3.466
    1CAL  O00aW 3736   0.687   4.943   3.553
    1CAL  O00aX 3737   0.678   5.094   3.387
    1CAL  O00aY 3738   0.621   5.428   3.466
    1CAL  O00aZ 3739   0.811   5.344   3.552
    1CAL  O00aa 3740   0.820   5.496   3.387
    1CAL  O00ab 3741   1.679   5.898   3.386
    1CAL  O00ac 3742   1.877   5.829   3.466
    1CAL  O00ad 3743   1.687   5.746   3.552
    1CAL  O00ae 3744   1.622   6.230   3.466
    1CAL  O00af 3745   1.811   6.147   3.552
    1CAL  O00ag 3746   1.820   6.299   3.387
    1CAL  O00ah 3747   1.678   5.094   3.387
    1CAL  O00ai 3748   1.877   5.026   3.466
    1CAL  O00aj 3749   1.687   4.943   3.553
    1CAL  O00ak 3750   1.621   5.427   3.466
    1CAL  O00al 3751   1.811   5.344   3.552
    1CAL  O00am 3752   1.820   5.496   3.387
    1CAL  O00an 3753   1.311   6.147   3.553
    1CAL  O00ao 3754   1.121   6.230   3.467
    1CAL  O00ap 3755   1.320   6.298   3.387
    1CAL  O00aq 3756   1.179   5.897   3.387
    1CAL  O00ar 3757   1.188   5.745   3.553
    1CAL  O00as 3758   1.378   5.829   3.467
    1CAL  O00at 3759   1.311   5.344   3.553
    1CAL  O00au 3760   1.320   5.495   3.387
    1CAL  O00av 3761   1.121   5.428   3.466
    1CAL  O00aw 3762   1.179   5.094   3.388
    1CAL  O00ax 3763   1.187   4.942   3.553
    1CAL  O00ay 3764   1.377   5.026   3.468
    1CAL  O00az 3765   0.310   6.147   3.554
    1CAL  O00b0 3766   0.121   6.231   3.467
    1CAL  O00b1 3767   0.320   6.298   3.388
    1CAL  O00b2 3768   0.179   5.897   3.388
    1CAL  O00b3 3769   0.188   5.745   3.553
    1CAL  O00b4 3770   0.378   5.829   3.469
    1CAL  O00b5 3771   0.310   5.345   3.554
    1CAL  O00b6 3772   0.121   5.428   3.466
    1CAL  O00b7 3773   0.320   5.496   3.387
    1CAL  O00b8 3774   0.377   5.026   3.469
    1CAL  O00b9 3775   0.187   4.942   3.554
    1CAL  O00bA 3776   0.179   5.094   3.389
    1CAL  Ca0BN 3777   1.002   5.629   3.464
    1CAL  Ca0BO 3778   1.750   5.333   2.545
    1CAL  Ca0BP 3779   1.496   6.030   3.465
    1CAL  Ca0BQ 3780   0.002   5.629   3.465
    1CAL  Ca0BR 3781   0.750   6.326   3.160
    1CAL  Ca0BS 3782   1.750   5.735   2.545
    1CAL  Ca0BT 3783   1.500   5.430   2.852
    1CAL  Ca0BU 3784   1.500   6.232   2.852
    1CAL  Ca0BV 3785   0.249   5.925   3.159
    1CAL  Ca0BW 3786   1.000   6.232   2.852
    1CAL  Ca0BX 3787   0.502   4.826   3.465
    1CAL  Ca0BY 3788   0.250   5.333   2.545
    1CAL  Ca0BZ 3789   0.250   5.524   3.160
    1CAL  Ca0Ba 3790   1.997   5.227   3.465
    1CAL  Ca0Bb 3791   1.997   6.030   3.465
    1CAL  Ca0Bc 3792   1.749   5.925   3.158
    1CAL  Ca0Bd 3793   1.250   4.931   2.545
    1CAL  Ca0Be 3794   2.000   6.232   2.852
    1CAL  Ca0Bf 3795   1.750   4.931   2.545
    1CAL  Ca0Bg 3796   0.495   5.228   3.465
    1CAL  Ca0Bh 3797   0.002   4.826   3.466
    1CAL  Ca0Bi 3798   1.751   5.524   3.160
    1CAL  Ca0Bj 3799   0.250   5.735   2.545
    1CAL  Ca0Bk 3800   2.000   5.430   2.852
    1CAL  Ca0Bl 3801   1.500   5.831   2.851
    1CAL  Ca0Bm 3802   0.250   6.327   3.160
    1CAL  Ca0Bn 3803   1.750   6.136   2.546
    1CAL  Ca0Bo 3804   0.500   5.831   2.851
    1CAL  Ca0Bp 3805   0.496   6.031   3.465
    1CAL  Ca0Bq 3806   2.000   5.028   2.852
    1CAL  Ca0Br 3807   0.500   6.232   2.852
    1CAL  Ca0Bs 3808   1.496   5.227   3.465
    1CAL  Ca0Bt 3809   1.250   5.735   2.545
    1CAL  Ca0Bu 3810   0.750   5.735   2.545
    1CAL  Ca0Bv 3811   1.000   5.028   2.852
    1CAL  Ca0Bw 3812   1.000   5.831   2.851
    1CAL  Ca0Bx 3813   0.500   5.430   2.852
    1CAL  Ca0By 3814   1.000   5.430   2.852
    1CAL  Ca0Bz 3815   0.749   5.925   3.159
    1CAL  Ca0C0 3816   0.250   4.931   2.545
    1CAL  Ca0C1 3817   0.750   5.333   2.545
    1CAL  Ca0C2 3818   1.250   5.333   2.545
    1CAL  Ca0C3 3819   1.249   5.925   3.159
    1CAL  Ca0C4 3820   1.250   6.326   3.160
    1CAL  Ca0C5 3821   1.749   5.122   3.160
    1CAL  Ca0C6 3822   1.002   4.826   3.465
    1CAL  Ca0C7 3823   0.748   5.122   3.160
    1CAL  Ca0C8 3824   0.503   5.629   3.464
    1CAL  Ca0C9 3825   0.500   5.028   2.852
    1CAL  Ca0CA 3826   0.750   4.931   2.545
    1CAL  Ca0CB 3827   1.250   6.136   2.546
    1CAL  Ca0CC 3828   1.249   5.122   3.160
    1CAL  Ca0CD 3829   0.996   5.227   3.465
    1CAL  Ca0CE 3830   0.750   6.136   2.546
    1CAL  Ca0CF 3831   0.996   6.030   3.465
    1CAL  Ca0CG 3832   0.250   6.136   2.546
    1CAL  Ca0CH 3833   1.500   5.028   2.852
    1CAL  Ca0CI 3834   1.503   5.629   3.464
    1CAL  Ca0CJ 3835   1.502   4.825   3.465
    1CAL  Ca0CK 3836   0.750   5.524   3.160
    1CAL  Ca0CL 3837   1.750   6.327   3.160
    1CAL  Ca0CM 3838   1.250   5.524   3.160
    1CAL  Ca0CN 3839   0.249   5.122   3.160
    1CAL  Ca0CO 3840   2.000   5.831   2.851
    1CAL  C00CP 3841   2.000   7.942   0.089
    1CAL  C00CQ 3842   1.250   6.432   0.396
    1CAL  C00CR 3843   0.250   6.432   0.396
    1CAL  C00CS 3844   1.499   6.930   0.702
    1CAL  C00CT 3845   1.499   7.733   0.702
    1CAL  C00CU 3846   0.750   6.432   0.396
    1CAL  C00CV 3847   1.000   7.140   0.089
    1CAL  C00CW 3848   1.250   7.637   0.393
    1CAL  C00CX 3849   0.750   7.637   0.394
    1CAL  C00CY 3850   0.500   7.332   0.703
    1CAL  C00CZ 3851   0.500   6.738   0.089
    1CAL  C00Ca 3852   1.000   7.542   0.089
    1CAL  C00Cb 3853   1.000   6.738   0.089
    1CAL  C00Cc 3854   0.250   6.835   0.396
    1CAL  C00Cd 3855   0.500   6.528   0.703
    1CAL  C00Ce 3856   1.000   7.332   0.702
    1CAL  C00Cf 3857   1.750   6.432   0.396
    1CAL  C00Cg 3858   1.500   6.528   0.703
    1CAL  C00Ch 3859   0.250   7.237   0.396
    1CAL  C00Ci 3860   1.999   6.930   0.703
    1CAL  C00Cj 3861   2.000   7.332   0.702
    1CAL  C00Ck 3862   2.000   6.738   0.089
    1CAL  C00Cl 3863   2.000   7.542   0.089
    1CAL  C00Cm 3864   0.250   7.637   0.394
    1CAL  C00Cn 3865   0.499   6.930   0.702
    1CAL  C00Co 3866   1.500   7.140   0.089
    1CAL  C00Cp 3867   2.000   7.140   0.089
    1CAL  C00Cq 3868   1.750   6.835   0.396
    1CAL  C00Cr 3869   1.250   6.835   0.396
    1CAL  C00Cs 3870   1.500   6.738   0.089
    1CAL  C00Ct 3871   1.500   7.332   0.702
    1CAL  C00Cu 3872   0.498   7.733   0.702
    1CAL  C00Cv 3873   1.500   7.942   0.089
    1CAL  C00Cw 3874   0.750   6.835   0.396
    1CAL  C00Cx 3875   1.250   7.237   0.396
    1CAL  C00Cy 3876   0.500   7.542   0.089
    1CAL  C00Cz 3877   1.750   7.637   0.393
    1CAL  C00D0 3878   1.000   7.942   0.089
    1CAL  C00D1 3879   1.999   7.733   0.703
    1CAL  C00D2 3880   1.000   6.528   0.702
    1CAL  C00D3 3881   0.999   7.733   0.702
    1CAL  C00D4 3882   0.999   6.930   0.703
    1CAL  C00D5 3883   1.750   7.237   0.396
    1CAL  C00D6 3884   0.500   7.942   0.089
    1CAL  C00D7 3885   1.500   7.542   0.089
    1CAL  C00D8 3886   0.500   7.140   0.089
    1CAL  C00D9 3887   0.750   7.237   0.396
    1CAL  C00DA 3888   2.000   6.528   0.703
    1CAL  C00DB 3889   0.751   7.028   1.013
    1CAL  C00DC 3890   0.747   6.627   1.013
    1CAL  C00DD 3891   0.747   7.430   1.012
    1CAL  C00DE 3892   0.751   7.831   1.013
    1CAL  C00DF 3893   1.751   7.028   1.013
    1CAL  C00DG 3894   1.747   6.627   1.013
    1CAL  C00DH 3895   1.751   7.831   1.013
    1CAL  C00DI 3896   1.748   7.430   1.012
    1CAL  C00DJ 3897   1.251   7.831   1.013
    1CAL  C00DK 3898   1.248   7.429   1.013
    1CAL  C00DL 3899   1.251   7.028   1.013
    1CAL  C00DM 3900   1.247   6.626   1.014
    1CAL  C00DN 3901   0.251   7.831   1.014
    1CAL  C00DO 3902   0.248   7.429   1.014
    1CAL  C00DP 3903   0.251   7.029   1.013
    1CAL  C00DQ 3904   0.247   6.626   1.015
    1CAL  O00bB 3905   0.185   7.159   0.475
    1CAL  O00bC 3906   1.186   7.316   0.317
    1CAL  O00bD 3907   1.185   7.159   0.475
    1CAL  O00bE 3908   1.379   7.237   0.397
    1CAL  O00bF 3909   0.564   7.863   0.168
    1CAL  O00bG 3910   0.371   7.943   0.088
    1CAL  O00bH 3911   0.564   7.219   0.010
    1CAL  O00bI 3912   0.686   7.316   0.317
    1CAL  O00bJ 3913   0.685   7.159   0.475
    1CAL  O00bK 3914   0.879   7.237   0.397
    1CAL  O00bL 3915   0.565   8.020   0.010
    1CAL  O00bM 3916   0.564   7.062   0.168
    1CAL  O00bN 3917   0.371   7.140   0.089
    1CAL  O00bO 3918   1.128   7.732   0.703
    1CAL  O00bP 3919   0.935   7.811   0.622
    1CAL  O00bQ 3920   0.936   7.009   0.622
    1CAL  O00bR 3921   0.933   6.852   0.782
    1CAL  O00bS 3922   1.128   6.929   0.704
    1CAL  O00bT 3923   0.933   7.655   0.782
    1CAL  O00bU 3924   0.621   6.835   0.396
    1CAL  O00bV 3925   1.063   7.411   0.622
    1CAL  O00bW 3926   1.122   7.637   0.393
    1CAL  O00bX 3927   1.314   7.558   0.473
    1CAL  O00bY 3928   1.315   7.715   0.315
    1CAL  O00bZ 3929   0.436   6.659   0.168
    1CAL  O00ba 3930   0.435   6.816   0.010
    1CAL  O00bb 3931   0.621   7.637   0.393
    1CAL  O00bc 3932   0.814   7.558   0.473
    1CAL  O00bd 3933   0.815   7.715   0.315
    1CAL  O00be 3934   0.314   6.914   0.317
    1CAL  O00bf 3935   0.814   6.756   0.475
    1CAL  O00bg 3936   0.936   7.621   0.009
    1CAL  O00bh 3937   1.129   7.542   0.089
    1CAL  O00bi 3938   0.314   6.756   0.476
    1CAL  O00bj 3939   0.121   6.835   0.396
    1CAL  O00bk 3940   0.814   6.914   0.317
    1CAL  O00bl 3941   0.936   6.817   0.009
    1CAL  O00bm 3942   0.936   6.659   0.168
    1CAL  O00bn 3943   1.129   6.738   0.089
    1CAL  O00bo 3944   0.870   7.331   0.703
    1CAL  O00bp 3945   1.066   7.254   0.781
    1CAL  O00bq 3946   0.935   7.464   0.168
    1CAL  O00br 3947   1.686   7.316   0.317
    1CAL  O00bs 3948   1.685   7.159   0.475
    1CAL  O00bt 3949   1.879   7.237   0.397
    1CAL  O00bu 3950   1.934   7.654   0.782
    1CAL  O00bv 3951   1.936   7.009   0.623
    1CAL  O00bw 3952   1.934   6.851   0.782
    1CAL  O00bx 3953   0.128   7.732   0.704
    1CAL  O00by 3954   0.064   6.607   0.623
    1CAL  O00bz 3955   1.436   7.621   0.009
    1CAL  O00c0 3956   1.435   7.464   0.168
    1CAL  O00c1 3957   1.629   7.542   0.089
    1CAL  O00c2 3958   0.065   6.450   0.783
    1CAL  O00c3 3959   1.434   7.655   0.782
    1CAL  O00c4 3960   0.065   8.020   0.010
    1CAL  O00c5 3961   0.064   7.863   0.168
    1CAL  O00c6 3962   0.871   7.943   0.088
    1CAL  O00c7 3963   1.871   7.331   0.704
    1CAL  O00c8 3964   1.936   6.659   0.168
    1CAL  O00c9 3965   1.064   6.607   0.623
    1CAL  O00cA 3966   0.436   7.621   0.009
    1CAL  O00cB 3967   0.435   7.464   0.168
    1CAL  O00cC 3968   0.629   7.542   0.089
    1CAL  O00cD 3969   1.065   6.449   0.782
    1CAL  O00cE 3970   0.433   7.655   0.782
    1CAL  O00cF 3971   0.871   6.528   0.703
    1CAL  O00cG 3972   1.872   7.140   0.089
    1CAL  O00cH 3973   1.065   8.020   0.010
    1CAL  O00cI 3974   1.064   7.863   0.168
    1CAL  O00cJ 3975   1.622   7.637   0.393
    1CAL  O00cK 3976   1.814   7.558   0.473
    1CAL  O00cL 3977   1.815   7.715   0.314
    1CAL  O00cM 3978   1.937   7.621   0.009
    1CAL  O00cN 3979   1.935   7.464   0.168
    1CAL  O00cO 3980   1.936   6.817   0.009
    1CAL  O00cP 3981   0.629   6.738   0.088
    1CAL  O00cQ 3982   0.379   7.237   0.397
    1CAL  O00cR 3983   0.370   7.331   0.706
    1CAL  O00cS 3984   1.065   7.062   0.168
    1CAL  O00cT 3985   1.564   7.863   0.168
    1CAL  O00cU 3986   1.565   8.020   0.010
    1CAL  O00cV 3987   1.622   6.835   0.396
    1CAL  O00cW 3988   1.815   6.756   0.475
    1CAL  O00cX 3989   1.372   7.943   0.088
    1CAL  O00cY 3990   1.121   6.835   0.396
    1CAL  O00cZ 3991   1.314   6.914   0.317
    1CAL  O00ca 3992   0.628   7.732   0.703
    1CAL  O00cb 3993   1.436   6.816   0.010
    1CAL  O00cc 3994   1.436   6.659   0.168
    1CAL  O00cd 3995   1.629   6.738   0.088
    1CAL  O00ce 3996   1.371   7.331   0.705
    1CAL  O00cf 3997   1.566   7.254   0.781
    1CAL  O00cg 3998   1.315   6.756   0.475
    1CAL  O00ch 3999   1.563   7.412   0.622
    1CAL  O00ci 4000   0.065   7.062   0.168
    1CAL  O00cj 4001   1.565   7.062   0.168
    1CAL  O00ck 4002   0.186   7.316   0.317
    1CAL  O00cl 4003   0.063   7.412   0.622
    1CAL  O00cm 4004   0.065   7.254   0.782
    1CAL  O00cn 4005   0.128   6.929   0.704
    1CAL  O00co 4006   0.129   6.738   0.089
    1CAL  O00cp 4007   0.128   7.542   0.089
    1CAL  O00cq 4008   1.564   7.219   0.010
    1CAL  O00cr 4009   0.315   7.715   0.315
    1CAL  O00cs 4010   1.872   7.943   0.088
    1CAL  O00ct 4011   1.871   6.528   0.704
    1CAL  O00cu 4012   0.121   7.637   0.393
    1CAL  O00cv 4013   1.935   7.811   0.622
    1CAL  O00cw 4014   0.064   7.219   0.010
    1CAL  O00cx 4015   1.372   7.140   0.089
    1CAL  O00cy 4016   0.314   7.558   0.473
    1CAL  O00cz 4017   0.434   7.812   0.622
    1CAL  O00d0 4018   0.628   6.929   0.703
    1CAL  O00d1 4019   1.371   6.527   0.705
    1CAL  O00d2 4020   1.436   7.009   0.622
    1CAL  O00d3 4021   1.434   6.852   0.782
    1CAL  O00d4 4022   1.629   6.929   0.703
    1CAL  O00d5 4023   0.879   6.432   0.396
    1CAL  O00d6 4024   0.686   7.960   0.475
    1CAL  O00d7 4025   1.434   7.811   0.622
    1CAL  O00d8 4026   1.628   7.732   0.702
    1CAL  O00d9 4027   0.686   6.511   0.317
    1CAL  O00dA 4028   0.563   6.607   0.623
    1CAL  O00dB 4029   0.566   6.450   0.782
    1CAL  O00dC 4030   0.370   6.528   0.705
    1CAL  O00dD 4031   0.562   7.412   0.622
    1CAL  O00dE 4032   0.567   7.254   0.782
    1CAL  O00dF 4033   0.871   7.140   0.089
    1CAL  O00dG 4034   1.566   6.449   0.782
    1CAL  O00dH 4035   1.564   6.607   0.623
    1CAL  O00dI 4036   0.433   6.852   0.782
    1CAL  O00dJ 4037   0.435   7.010   0.623
    1CAL  O00dK 4038   1.686   6.511   0.317
    1CAL  O00dL 4039   1.686   7.960   0.475
    1CAL  O00dM 4040   1.879   6.432   0.396
    1CAL  O00dN 4041   0.379   6.433   0.396
    1CAL  O00dO 4042   0.186   7.960   0.475
    1CAL  O00dP 4043   0.185   6.511   0.317
    1CAL  O00dQ 4044   1.186   6.511   0.317
    1CAL  O00dR 4045   1.186   7.960   0.475
    1CAL  O00dS 4046   1.379   6.433   0.396
    1CAL  O00dT 4047   1.064   7.219   0.010
    1CAL  O00dU 4048   1.815   6.914   0.317
    1CAL  O00dV 4049   0.820   7.905   0.931
    1CAL  O00dW 4050   0.811   7.753   1.097
    1CAL  O00dX 4051   0.621   7.837   1.011
    1CAL  O00dY 4052   0.678   7.504   0.930
    1CAL  O00dZ 4053   0.687   7.353   1.096
    1CAL  O00da 4054   0.877   7.435   1.009
    1CAL  O00db 4055   0.877   6.632   1.010
    1CAL  O00dc 4056   0.687   6.549   1.097
    1CAL  O00dd 4057   0.678   6.700   0.931
    1CAL  O00de 4058   0.621   7.034   1.010
    1CAL  O00df 4059   0.811   6.950   1.096
    1CAL  O00dg 4060   0.820   7.102   0.931
    1CAL  O00dh 4061   1.679   7.504   0.930
    1CAL  O00di 4062   1.877   7.435   1.010
    1CAL  O00dj 4063   1.687   7.352   1.096
    1CAL  O00dk 4064   1.622   7.836   1.010
    1CAL  O00dl 4065   1.811   7.753   1.096
    1CAL  O00dm 4066   1.820   7.905   0.931
    1CAL  O00dn 4067   1.678   6.700   0.931
    1CAL  O00do 4068   1.877   6.632   1.010
    1CAL  O00dp 4069   1.687   6.549   1.097
    1CAL  O00dq 4070   1.621   7.033   1.010
    1CAL  O00dr 4071   1.811   6.950   1.096
    1CAL  O00ds 4072   1.820   7.102   0.931
    1CAL  O00dt 4073   1.311   7.753   1.097
    1CAL  O00du 4074   1.121   7.836   1.011
    1CAL  O00dv 4075   1.320   7.904   0.931
    1CAL  O00dw 4076   1.179   7.503   0.931
    1CAL  O00dx 4077   1.188   7.351   1.097
    1CAL  O00dy 4078   1.378   7.435   1.011
    1CAL  O00dz 4079   1.311   6.950   1.097
    1CAL  O00e0 4080   1.320   7.101   0.931
    1CAL  O00e1 4081   1.121   7.034   1.010
    1CAL  O00e2 4082   1.179   6.700   0.932
    1CAL  O00e3 4083   1.187   6.548   1.097
    1CAL  O00e4 4084   1.377   6.632   1.012
    1CAL  O00e5 4085   0.310   7.753   1.098
    1CAL  O00e6 4086   0.121   7.837   1.011
    1CAL  O00e7 4087   0.320   7.904   0.932
    1CAL  O00e8 4088   0.179   7.503   0.932
    1CAL  O00e9 4089   0.188   7.351   1.097
    1CAL  O00eA 4090   0.378   7.435   1.013
    1CAL  O00eB 4091   0.310   6.951   1.098
    1CAL  O00eC 4092   0.121   7.034   1.010
    1CAL  O00eD 4093   0.320   7.102   0.931
    1CAL  O00eE 4094   0.377   6.632   1.013
    1CAL  O00eF 4095   0.187   6.548   1.098
    1CAL  O00eG 4096   0.179   6.700   0.933
    1CAL  Ca0CP 4097   1.002   7.235   1.008
    1CAL  Ca0CQ 4098   1.750   6.939   0.089
    1CAL  Ca0CR 4099   1.496   7.636   1.009
    1CAL  Ca0CS 4100   0.002   7.235   1.009
    1CAL  Ca0CT 4101   0.750   7.932   0.704
    1CAL  Ca0CU 4102   1.750   7.341   0.089
    1CAL  Ca0CV 4103   1.500   7.036   0.396
    1CAL  Ca0CW 4104   1.500   7.838   0.396
    1CAL  Ca0CX 4105   0.249   7.531   0.703
    1CAL  Ca0CY 4106   1.000   7.838   0.396
    1CAL  Ca0CZ 4107   0.502   6.432   1.009
    1CAL  Ca0Ca 4108   0.250   6.939   0.089
    1CAL  Ca0Cb 4109   0.250   7.130   0.704
    1CAL  Ca0Cc 4110   1.997   6.833   1.009
    1CAL  Ca0Cd 4111   1.997   7.636   1.009
    1CAL  Ca0Ce 4112   1.749   7.531   0.702
    1CAL  Ca0Cf 4113   1.250   6.537   0.089
    1CAL  Ca0Cg 4114   2.000   7.838   0.396
    1CAL  Ca0Ch 4115   1.750   6.537   0.089
    1CAL  Ca0Ci 4116   0.495   6.834   1.009
    1CAL  Ca0Cj 4117   0.002   6.432   1.010
    1CAL  Ca0Ck 4118   1.751   7.130   0.704
    1CAL  Ca0Cl 4119   0.250   7.341   0.089
    1CAL  Ca0Cm 4120   2.000   7.036   0.396
    1CAL  Ca0Cn 4121   1.500   7.437   0.395
    1CAL  Ca0Co 4122   0.250   7.933   0.704
    1CAL  Ca0Cp 4123   1.750   7.742   0.090
    1CAL  Ca0Cq 4124   0.500   7.437   0.395
    1CAL  Ca0Cr 4125   0.496   7.637   1.009
    1CAL  Ca0Cs 4126   2.000   6.634   0.396
    1CAL  Ca0Ct 4127   0.500   7.838   0.396
    1CAL  Ca0Cu 4128   1.496   6.833   1.009
    1CAL  Ca0Cv 4129   1.250   7.341   0.089
    1CAL  Ca0Cw 4130   0.750   7.341   0.089
    1CAL  Ca0Cx 4131   1.000   6.634   0.396
    1CAL  Ca0Cy 4132   1.000   7.437   0.395
    1CAL  Ca0Cz 4133   0.500   7.036   0.396
    1CAL  Ca0D0 4134   1.000   7.036   0.396
    1CAL  Ca0D1 4135   0.749   7.531   0.703
    1CAL  Ca0D2 4136   0.250   6.537   0.089
    1CAL  Ca0D3 4137   0.750   6.939   0.089
    1CAL  Ca0D4 4138   1.250   6.939   0.089
    1CAL  Ca0D5 4139   1.249   7.531   0.703
    1CAL  Ca0D6 4140   1.250   7.932   0.704
    1CAL  Ca0D7 4141   1.749   6.728   0.704
    1CAL  Ca0D8 4142   1.002   6.432   1.009
    1CAL  Ca0D9 4143   0.748   6.728   0.704
    1CAL  Ca0DA 4144   0.503   7.235   1.008
    1CAL  Ca0DB 4145   0.500   6.634   0.396
    1CAL  Ca0DC 4146   0.750   6.537   0.089
    1CAL  Ca0DD 4147   1.250   7.742   0.090
    1CAL  Ca0DE 4148   1.249   6.728   0.704
    1CAL  Ca0DF 4149   0.996   6.833   1.009
    1CAL  Ca0DG 4150   0.750   7.742   0.090
    1CAL  Ca0DH 4151   0.996   7.636   1.009
    1CAL  Ca0DI 4152   0.250   7.742   0.090
    1CAL  Ca0DJ 4153   1.500   6.634   0.396
    1CAL  Ca0DK 4154   1.503   7.235   1.008
    1CAL  Ca0DL 4155   1.502   6.431   1.009
    1CAL  Ca0DM 4156   0.750   7.130   0.704
    1CAL  Ca0DN 4157   1.750   7.933   0.704
    1CAL  Ca0DO 4158   1.250   7.130   0.704
    1CAL  Ca0DP 4159   0.249   6.728   0.704
    1CAL  Ca0DQ 4160   2.000   7.437   0.395
    1CAL  C00DR 4161   2.000   7.942   1.317
    1CAL  C00DS 4162   1.250   6.432   1.624
    1CAL  C00DT 4163   0.250   6.432   1.624
    1CAL  C00DU 4164   1.499   6.930   1.930
    1CAL  C00DV 4165   1.499   7.733   1.930
    1CAL  C00DW 4166   0.750   6.432   1.624
    1CAL  C00DX 4167   1.000   7.140   1.317
    1CAL  C00DY 4168   1.250   7.637   1.621
    1CAL  C00DZ 4169   0.750   7.637   1.622
    1CAL  C00Da 4170   0.500   7.332   1.931
    1CAL  C00Db 4171   0.500   6.738   1.317
    1CAL  C00Dc 4172   1.000   7.542   1.317
    1CAL  C00Dd 4173   1.000   6.738   1.317
    1CAL  C00De 4174   0.250   6.835   1.624
    1CAL  C00Df 4175   0.500   6.528   1.931
    1CAL  C00Dg 4176   1.000   7.332   1.930
    1CAL  C00Dh 4177   1.750   6.432   1.624
    1CAL  C00Di 4178   1.500   6.528   1.931
    1CAL  C00Dj 4179   0.250   7.237   1.624
    1CAL  C00Dk 4180   1.999   6.930   1.931
    1CAL  C00Dl 4181   2.000   7.332   1.930
    1CAL  C00Dm 4182   2.000   6.738   1.317
    1CAL  C00Dn 4183   2.000   7.542   1.317
    1CAL  C00Do 4184   0.250   7.637   1.622
    1CAL  C00Dp 4185   0.499   6.930   1.930
    1CAL  C00Dq 4186   1.500   7.140   1.317
    1CAL  C00Dr 4187   2.000   7.140   1.317
    1CAL  C00Ds 4188   1.750   6.835   1.624
    1CAL  C00Dt 4189   1.250   6.835   1.624
    1CAL  C00Du 4190   1.500   6.738   1.317
    1CAL  C00Dv 4191   1.500   7.332   1.930
    1CAL  C00Dw 4192   0.498   7.733   1.930
    1CAL  C00Dx 4193   1.500   7.942   1.317
    1CAL  C00Dy 4194   0.750   6.835   1.624
    1CAL  C00Dz 4195   1.250   7.237   1.624
    1CAL  C00E0 4196   0.500   7.542   1.317
    1CAL  C00E1 4197   1.750   7.637   1.621
    1CAL  C00E2 4198   1.000   7.942   1.317
    1CAL  C00E3 4199   1.999   7.733   1.931
    1CAL  C00E4 4200   1.000   6.528   1.930
    1CAL  C00E5 4201   0.999   7.733   1.930
    1CAL  C00E6 4202   0.999   6.930   1.931
    1CAL  C00E7 4203   1.750   7.237   1.624
    1CAL  C00E8 4204   0.500   7.942   1.317
    1CAL  C00E9 4205   1.500   7.542   1.317
    1CAL  C00EA 4206   0.500   7.140   1.317
    1CAL  C00EB 4207   0.750   7.237   1.624
    1CAL  C00EC 4208   2.000   6.528   1.931
    1CAL  C00ED 4209   0.751   7.028   2.241
    1CAL  C00EE 4210   0.747   6.627   2.241
    1CAL  C00EF 4211   0.747   7.430   2.240
    1CAL  C00EG 4212   0.751   7.831   2.241
    1CAL  C00EH 4213   1.751   7.028   2.241
    1CAL  C00EI 4214   1.747   6.627   2.241
    1CAL  C00EJ 4215   1.751   7.831   2.241
    1CAL  C00EK 4216   1.748   7.430   2.240
    1CAL  C00EL 4217   1.251   7.831   2.241
    1CAL  C00EM 4218   1.248   7.429   2.241
    1CAL  C00EN 4219   1.251   7.028   2.241
    1CAL  C00EO 4220   1.247   6.626   2.242
    1CAL  C00EP 4221   0.251   7.831   2.242
    1CAL  C00EQ 4222   0.248   7.429   2.242
    1CAL  C00ER 4223   0.251   7.029   2.241
    1CAL  C00ES 4224   0.247   6.626   2.243
    1CAL  O00eH 4225   0.185   7.159   1.703
    1CAL  O00eI 4226   1.186   7.316   1.545
    1CAL  O00eJ 4227   1.185   7.159   1.703
    1CAL  O00eK 4228   1.379   7.237   1.625
    1CAL  O00eL 4229   0.564   7.863   1.396
    1CAL  O00eM 4230   0.371   7.943   1.316
    1CAL  O00eN 4231   0.564   7.219   1.238
    1CAL  O00eO 4232   0.686   7.316   1.545
    1CAL  O00eP 4233   0.685   7.159   1.703
    1CAL  O00eQ 4234   0.879   7.237   1.625
    1CAL  O00eR 4235   0.565   8.020   1.238
    1CAL  O00eS 4236   0.564   7.062   1.396
    1CAL  O00eT 4237   0.371   7.140   1.317
    1CAL  O00eU 4238   1.128   7.732   1.931
    1CAL  O00eV 4239   0.935   7.811   1.850
    1CAL  O00eW 4240   0.936   7.009   1.850
    1CAL  O00eX 4241   0.933   6.852   2.010
    1CAL  O00eY 4242   1.128   6.929   1.932
    1CAL  O00eZ 4243   0.933   7.655   2.010
    1CAL  O00ea 4244   0.621   6.835   1.624
    1CAL  O00eb 4245   1.063   7.411   1.850
    1CAL  O00ec 4246   1.122   7.637   1.621
    1CAL  O00ed 4247   1.314   7.558   1.701
    1CAL  O00ee 4248   1.315   7.715   1.543
    1CAL  O00ef 4249   0.436   6.659   1.396
    1CAL  O00eg 4250   0.435   6.816   1.238
    1CAL  O00eh 4251   0.621   7.637   1.621
    1CAL  O00ei 4252   0.814   7.558   1.701
    1CAL  O00ej 4253   0.815   7.715   1.543
    1CAL  O00ek 4254   0.314   6.914   1.545
    1CAL  O00el 4255   0.814   6.756   1.703
    1CAL  O00em 4256   0.936   7.621   1.237
    1CAL  O00en 4257   1.129   7.542   1.317
    1CAL  O00eo 4258   0.314   6.756   1.704
    1CAL  O00ep 4259   0.121   6.835   1.624
    1CAL  O00eq 4260   0.814   6.914   1.545
    1CAL  O00er 4261   0.936   6.817   1.237
    1CAL  O00es 4262   0.936   6.659   1.396
    1CAL  O00et 4263   1.129   6.738   1.317
    1CAL  O00eu 4264   0.870   7.331   1.931
    1CAL  O00ev 4265   1.066   7.254   2.009
    1CAL  O00ew 4266   0.935   7.464   1.396
    1CAL  O00ex 4267   1.686   7.316   1.545
    1CAL  O00ey 4268   1.685   7.159   1.703
    1CAL  O00ez 4269   1.879   7.237   1.625
    1CAL  O00f0 4270   1.934   7.654   2.010
    1CAL  O00f1 4271   1.936   7.009   1.851
    1CAL  O00f2 4272   1.934   6.851   2.010
    1CAL  O00f3 4273   0.128   7.732   1.932
    1CAL  O00f4 4274   0.064   6.607   1.851
    1CAL  O00f5 4275   1.436   7.621   1.237
    1CAL  O00f6 4276   1.435   7.464   1.396
    1CAL  O00f7 4277   1.629   7.542   1.317
    1CAL  O00f8 4278   0.065   6.450   2.011
    1CAL  O00f9 4279   1.434   7.655   2.010
    1CAL  O00fA 4280   0.065   8.020   1.238
    1CAL  O00fB 4281   0.064   7.863   1.396
    1CAL  O00fC 4282   0.871   7.943   1.316
    1CAL  O00fD 4283   1.871   7.331   1.932
    1CAL  O00fE 4284   1.936   6.659   1.396
    1CAL  O00fF 4285   1.064   6.607   1.851
    1CAL  O00fG 4286   0.436   7.621   1.237
    1CAL  O00fH 4287   0.435   7.464   1.396
    1CAL  O00fI 4288   0.629   7.542   1.317
    1CAL  O00fJ 4289   1.065   6.449   2.010
    1CAL  O00fK 4290   0.433   7.655   2.010
    1CAL  O00fL 4291   0.871   6.528   1.931
    1CAL  O00fM 4292   1.872   7.140   1.317
    1CAL  O00fN 4293   1.065   8.020   1.238
    1CAL  O00fO 4294   1.064   7.863   1.396
    1CAL  O00fP 4295   1.622   7.637   1.621
    1CAL  O00fQ 4296   1.814   7.558   1.701
    1CAL  O00fR 4297   1.815   7.715   1.542
    1CAL  O00fS 4298   1.937   7.621   1.237
    1CAL  O00fT 4299   1.935   7.464   1.396
    1CAL  O00fU 4300   1.936   6.817   1.237
    1CAL  O00fV 4301   0.629   6.738   1.316
    1CAL  O00fW 4302   0.379   7.237   1.625
    1CAL  O00fX 4303   0.370   7.331   1.934
    1CAL  O00fY 4304   1.065   7.062   1.396
    1CAL  O00fZ 4305   1.564   7.863   1.396
    1CAL  O00fa 4306   1.565   8.020   1.238
    1CAL  O00fb 4307   1.622   6.835   1.624
    1CAL  O00fc 4308   1.815   6.756   1.703
    1CAL  O00fd 4309   1.372   7.943   1.316
    1CAL  O00fe 4310   1.121   6.835   1.624
    1CAL  O00ff 4311   1.314   6.914   1.545
    1CAL  O00fg 4312   0.628   7.732   1.931
    1CAL  O00fh 4313   1.436   6.816   1.238
    1CAL  O00fi 4314   1.436   6.659   1.396
    1CAL  O00fj 4315   1.629   6.738   1.316
    1CAL  O00fk 4316   1.371   7.331   1.933
    1CAL  O00fl 4317   1.566   7.254   2.009
    1CAL  O00fm 4318   1.315   6.756   1.703
    1CAL  O00fn 4319   1.563   7.412   1.850
    1CAL  O00fo 4320   0.065   7.062   1.396
    1CAL  O00fp 4321   1.565   7.062   1.396
    1CAL  O00fq 4322   0.186   7.316   1.545
    1CAL  O00fr 4323   0.063   7.412   1.850
    1CAL  O00fs 4324   0.065   7.254   2.010
    1CAL  O00ft 4325   0.128   6.929   1.932
    1CAL  O00fu 4326   0.129   6.738   1.317
    1CAL  O00fv 4327   0.128   7.542   1.317
    1CAL  O00fw 4328   1.564   7.219   1.238
    1CAL  O00fx 4329   0.315   7.715   1.543
    1CAL  O00fy 4330   1.872   7.943   1.316
    1CAL  O00fz 4331   1.871   6.528   1.932
    1CAL  O00g0 4332   0.121   7.637   1.621
    1CAL  O00g1 4333   1.935   7.811   1.850
    1CAL  O00g2 4334   0.064   7.219   1.238
    1CAL  O00g3 4335   1.372   7.140   1.317
    1CAL  O00g4 4336   0.314   7.558   1.701
    1CAL  O00g5 4337   0.434   7.812   1.850
    1CAL  O00g6 4338   0.628   6.929   1.931
    1CAL  O00g7 4339   1.371   6.527   1.933
    1CAL  O00g8 4340   1.436   7.009   1.850
    1CAL  O00g9 4341   1.434   6.852   2.010
    1CAL  O00gA 4342   1.629   6.929   1.931
    1CAL  O00gB 4343   0.879   6.432   1.624
    1CAL  O00gC 4344   0.686   7.960   1.703
    1CAL  O00gD 4345   1.434   7.811   1.850
    1CAL  O00gE 4346   1.628   7.732   1.930
    1CAL  O00gF 4347   0.686   6.511   1.545
    1CAL  O00gG 4348   0.563   6.607   1.851
    1CAL  O00gH 4349   0.566   6.450   2.010
    1CAL  O00gI 4350   0.370   6.528   1.933
    1CAL  O00gJ 4351   0.562   7.412   1.850
    1CAL  O00gK 4352   0.567   7.254   2.010
    1CAL  O00gL 4353   0.871   7.140   1.317
    1CAL  O00gM 4354   1.566   6.449   2.010
    1CAL  O00gN 4355   1.564   6.607   1.851
    1CAL  O00gO 4356   0.433   6.852   2.010
    1CAL  O00gP 4357   0.435   7.010   1.851
    1CAL  O00gQ 4358   1.686   6.511   1.545
    1CAL  O00gR 4359   1.686   7.960   1.703
    1CAL  O00gS 4360   1.879   6.432   1.624
    1CAL  O00gT 4361   0.379   6.433   1.624
    1CAL  O00gU 4362   0.186   7.960   1.703
    1CAL  O00gV 4363   0.185   6.511   1.545
    1CAL  O00gW 4364   1.186   6.511   1.545
    1CAL  O00gX 4365   1.186   7.960   1.703
    1CAL  O00gY 4366   1.379   6.433   1.624
    1CAL  O00gZ 4367   1.064   7.219   1.238
    1CAL  O00ga 4368   1.815   6.914   1.545
    1CAL  O00gb 4369   0.820   7.905   2.159
    1CAL  O00gc 4370   0.811   7.753   2.325
    1CAL  O00gd 4371   0.621   7.837   2.239
    1CAL  O00ge 4372   0.678   7.504   2.158
    1CAL  O00gf 4373   0.687   7.353   2.324
    1CAL  O00gg 4374   0.877   7.435   2.237
    1CAL  O00gh 4375   0.877   6.632   2.238
    1CAL  O00gi 4376   0.687   6.549   2.325
    1CAL  O00gj 4377   0.678   6.700   2.159
    1CAL  O00gk 4378   0.621   7.034   2.238
    1CAL  O00gl 4379   0.811   6.950   2.324
    1CAL  O00gm 4380   0.820   7.102   2.159
    1CAL  O00gn 4381   1.679   7.504   2.158
    1CAL  O00go 4382   1.877   7.435   2.238
    1CAL  O00gp 4383   1.687   7.352   2.324
    1CAL  O00gq 4384   1.622   7.836   2.238
    1CAL  O00gr 4385   1.811   7.753   2.324
    1CAL  O00gs 4386   1.820   7.905   2.159
    1CAL  O00gt 4387   1.678   6.700   2.159
    1CAL  O00gu 4388   1.877   6.632   2.238
    1CAL  O00gv 4389   1.687   6.549   2.325
    1CAL  O00gw 4390   1.621   7.033   2.238
    1CAL  O00gx 4391   1.811   6.950   2.324
    1CAL  O00gy 4392   1.820   7.102   2.159
    1CAL  O00gz 4393   1.311   7.753   2.325
    1CAL  O00h0 4394   1.121   7.836   2.239
    1CAL  O00h1 4395   1.320   7.904   2.159
    1CAL  O00h2 4396   1.179   7.503   2.159
    1CAL  O00h3 4397   1.188   7.351   2.325
    1CAL  O00h4 4398   1.378   7.435   2.239
    1CAL  O00h5 4399   1.311   6.950   2.325
    1CAL  O00h6 4400   1.320   7.101   2.159
    1CAL  O00h7 4401   1.121   7.034   2.238
    1CAL  O00h8 4402   1.179   6.700   2.160
    1CAL  O00h9 4403   1.187   6.548   2.325
    1CAL  O00hA 4404   1.377   6.632   2.240
    1CAL  O00hB 4405   0.310   7.753   2.326
    1CAL  O00hC 4406   0.121   7.837   2.239
    1CAL  O00hD 4407   0.320   7.904   2.160
    1CAL  O00hE 4408   0.179   7.503   2.160
    1CAL  O00hF 4409   0.188   7.351   2.325
    1CAL  O00hG 4410   0.378   7.435   2.241
    1CAL  O00hH 4411   0.310   6.951   2.326
    1CAL  O00hI 4412   0.121   7.034   2.238
    1CAL  O00hJ 4413   0.320   7.102   2.159
    1CAL  O00hK 4414   0.377   6.632   2.241
    1CAL  O00hL 4415   0.187   6.548   2.326
    1CAL  O00hM 4416   0.179   6.700   2.161
    1CAL  Ca0DR 4417   1.002   7.235   2.236
    1CAL  Ca0DS 4418   1.750   6.939   1.317
    1CAL  Ca0DT 4419   1.496   7.636   2.237
    1CAL  Ca0DU 4420   0.002   7.235   2.237
    1CAL  Ca0DV 4421   0.750   7.932   1.932
    1CAL  Ca0DW 4422   1.750   7.341   1.317
    1CAL  Ca0DX 4423   1.500   7.036   1.624
    1CAL  Ca0DY 4424   1.500   7.838   1.624
    1CAL  Ca0DZ 4425   0.249   7.531   1.931
    1CAL  Ca0Da 4426   1.000   7.838   1.624
    1CAL  Ca0Db 4427   0.502   6.432   2.237
    1CAL  Ca0Dc 4428   0.250   6.939   1.317
    1CAL  Ca0Dd 4429   0.250   7.130   1.932
    1CAL  Ca0De 4430   1.997   6.833   2.237
    1CAL  Ca0Df 4431   1.997   7.636   2.237
    1CAL  Ca0Dg 4432   1.749   7.531   1.930
    1CAL  Ca0Dh 4433   1.250   6.537   1.317
    1CAL  Ca0Di 4434   2.000   7.838   1.624
    1CAL  Ca0Dj 4435   1.750   6.537   1.317
    1CAL  Ca0Dk 4436   0.495   6.834   2.237
    1CAL  Ca0Dl 4437   0.002   6.432   2.238
    1CAL  Ca0Dm 4438   1.751   7.130   1.932
    1CAL  Ca0Dn 4439   0.250   7.341   1.317
    1CAL  Ca0Do 4440   2.000   7.036   1.624
    1CAL  Ca0Dp 4441   1.500   7.437   1.623
    1CAL  Ca0Dq 4442   0.250   7.933   1.932
    1CAL  Ca0Dr 4443   1.750   7.742   1.318
    1CAL  Ca0Ds 4444   0.500   7.437   1.623
    1CAL  Ca0Dt 4445   0.496   7.637   2.237
    1CAL  Ca0Du 4446   2.000   6.634   1.624
    1CAL  Ca0Dv 4447   0.500   7.838   1.624
    1CAL  Ca0Dw 4448   1.496   6.833   2.237
    1CAL  Ca0Dx 4449   1.250   7.341   1.317
    1CAL  Ca0Dy 4450   0.750   7.341   1.317
    1CAL  Ca0Dz 4451   1.000   6.634   1.624
    1CAL  Ca0E0 4452   1.000   7.437   1.623
    1CAL  Ca0E1 4453   0.500   7.036   1.624
    1CAL  Ca0E2 4454   1.000   7.036   1.624
    1CAL  Ca0E3 4455   0.749   7.531   1.931
    1CAL  Ca0E4 4456   0.250   6.537   1.317
    1CAL  Ca0E5 4457   0.750   6.939   1.317
    1CAL  Ca0E6 4458   1.250   6.939   1.317
    1CAL  Ca0E7 4459   1.249   7.531   1.931
    1CAL  Ca0E8 4460   1.250   7.932   1.932
    1CAL  Ca0E9 4461   1.749   6.728   1.932
    1CAL  Ca0EA 4462   1.002   6.432   2.237
    1CAL  Ca0EB 4463   0.748   6.728   1.932
    1CAL  Ca0EC 4464   0.503   7.235   2.236
    1CAL  Ca0ED 4465   0.500   6.634   1.624
    1CAL  Ca0EE 4466   0.750   6.537   1.317
    1CAL  Ca0EF 4467   1.250   7.742   1.318
    1CAL  Ca0EG 4468   1.249   6.728   1.932
    1CAL  Ca0EH 4469   0.996   6.833   2.237
    1CAL  Ca0EI 4470   0.750   7.742   1.318
    1CAL  Ca0EJ 4471   0.996   7.636   2.237
    1CAL  Ca0EK 4472   0.250   7.742   1.318
    1CAL  Ca0EL 4473   1.500   6.634   1.624
    1CAL  Ca0EM 4474   1.503   7.235   2.236
    1CAL  Ca0EN 4475   1.502   6.431   2.237
    1CAL  Ca0EO 4476   0.750   7.130   1.932
    1CAL  Ca0EP 4477   1.750   7.933   1.932
    1CAL  Ca0EQ 4478   1.250   7.130   1.932
    1CAL  Ca0ER 4479   0.249   6.728   1.932
    1CAL  Ca0ES 4480   2.000   7.437   1.623
    1CAL  C00ET 4481   2.000   7.942   2.545
    1CAL  C00EU 4482   1.250   6.432   2.852
    1CAL  C00EV 4483   0.250   6.432   2.852
    1CAL  C00EW 4484   1.499   6.930   3.158
    1CAL  C00EX 4485   1.499   7.733   3.158
    1CAL  C00EY 4486   0.750   6.432   2.852
    1CAL  C00EZ 4487   1.000   7.140   2.545
    1CAL  C00Ea 4488   1.250   7.637   2.849
    1CAL  C00Eb 4489   0.750   7.637   2.850
    1CAL  C00Ec 4490   0.500   7.332   3.159
    1CAL  C00Ed 4491   0.500   6.738   2.545
    1CAL  C00Ee 4492   1.000   7.542   2.545
    1CAL  C00Ef 4493   1.000   6.738   2.545
    1CAL  C00Eg 4494   0.250   6.835   2.852
    1CAL  C00Eh 4495   0.500   6.528   3.159
    1CAL  C00Ei 4496   1.000   7.332   3.158
    1CAL  C00Ej 4497   1.750   6.432   2.852
    1CAL  C00Ek 4498   1.500   6.528   3.159
    1CAL  C00El 4499   0.250   7.237   2.852
    1CAL  C00Em 4500   1.999   6.930   3.159
    1CAL  C00En 4501   2.000   7.332   3.158
    1CAL  C00Eo 4502   2.000   6.738   2.545
    1CAL  C00Ep 4503   2.000   7.542   2.545
    1CAL  C00Eq 4504   0.250   7.637   2.850
    1CAL  C00Er 4505   0.499   6.930   3.158
    1CAL  C00Es 4506   1.500   7.140   2.545
    1CAL  C00Et 4507   2.000   7.140   2.545
    1CAL  C00Eu 4508   1.750   6.835   2.852
    1CAL  C00Ev 4509   1.250   6.835   2.852
    1CAL  C00Ew 4510   1.500   6.738   2.545
    1CAL  C00Ex 4511   1.500   7.332   3.158
    1CAL  C00Ey 4512   0.498   7.733   3.158
    1CAL  C00Ez 4513   1.500   7.942   2.545
    1CAL  C00F0 4514   0.750   6.835   2.852
    1CAL  C00F1 4515   1.250   7.237   2.852
    1CAL  C00F2 4516   0.500   7.542   2.545
    1CAL  C00F3 4517   1.750   7.637   2.849
    1CAL  C00F4 4518   1.000   7.942   2.545
    1CAL  C00F5 4519   1.999   7.733   3.159
    1CAL  C00F6 4520   1.000   6.528   3.158
    1CAL  C00F7 4521   0.999   7.733   3.158
    1CAL  C00F8 4522   0.999   6.930   3.159
    1CAL  C00F9 4523   1.750   7.237   2.852
    1CAL  C00FA 4524   0.500   7.942   2.545
    1CAL  C00FB 4525   1.500   7.542   2.545
    1CAL  C00FC 4526   0.500   7.140   2.545
    1CAL  C00FD 4527   0.750   7.237   2.852
    1CAL  C00FE 4528   2.000   6.528   3.159
    1CAL  C00FF 4529   0.751   7.028   3.469
    1CAL  C00FG 4530   0.747   6.627   3.469
    1CAL  C00FH 4531   0.747   7.430   3.468
    1CAL  C00FI 4532   0.751   7.831   3.469
    1CAL  C00FJ 4533   1.751   7.028   3.469
    1CAL  C00FK 4534   1.747   6.627   3.469
    1CAL  C00FL 4535   1.751   7.831   3.469
    1CAL  C00FM 4536   1.748   7.430   3.468
    1CAL  C00FN 4537   1.251   7.831   3.469
    1CAL  C00FO 4538   1.248   7.429   3.469
    1CAL  C00FP 4539   1.251   7.028   3.469
    1CAL  C00FQ 4540   1.247   6.626   3.470
    1CAL  C00FR 4541   0.251   7.831   3.470
    1CAL  C00FS 4542   0.248   7.429   3.470
    1CAL  C00FT 4543   0.251   7.029   3.469
    1CAL  C00FU 4544   0.247   6.626   3.471
    1CAL  O00hN 4545   0.185   7.159   2.931
    1CAL  O00hO 4546   1.186   7.316   2.773
    1CAL  O00hP 4547   1.185   7.159   2.931
    1CAL  O00hQ 4548   1.379   7.237   2.853
    1CAL  O00hR 4549   0.564   7.863   2.624
    1CAL  O00hS 4550   0.371   7.943   2.544
    1CAL  O00hT 4551   0.564   7.219   2.466
    1CAL  O00hU 4552   0.686   7.316   2.773
    1CAL  O00hV 4553   0.685   7.159   2.931
    1CAL  O00hW 4554   0.879   7.237   2.853
    1CAL  O00hX 4555   0.565   8.020   2.466
    1CAL  O00hY 4556   0.564   7.062   2.624
    1CAL  O00hZ 4557   0.371   7.140   2.545
    1CAL  O00ha 4558   1.128   7.732   3.159
    1CAL  O00hb 4559   0.935   7.811   3.078
    1CAL  O00hc 4560   0.936   7.009   3.078
    1CAL  O00hd 4561   0.933   6.852   3.238
    1CAL  O00he 4562   1.128   6.929   3.160
    1CAL  O00hf 4563   0.933   7.655   3.238
    1CAL  O00hg 4564   0.621   6.835   2.852
    1CAL  O00hh 4565   1.063   7.411   3.078
    1CAL  O00hi 4566   1.122   7.637   2.849
    1CAL  O00hj 4567   1.314   7.558   2.929
    1CAL  O00hk 4568   1.315   7.715   2.771
    1CAL  O00hl 4569   0.436   6.659   2.624
    1CAL  O00hm 4570   0.435   6.816   2.466
    1CAL  O00hn 4571   0.621   7.637   2.849
    1CAL  O00ho 4572   0.814   7.558   2.929
    1CAL  O00hp 4573   0.815   7.715   2.771
    1CAL  O00hq 4574   0.314   6.914   2.773
    1CAL  O00hr 4575   0.814   6.756   2.931
    1CAL  O00hs 4576   0.936   7.621   2.465
    1CAL  O00ht 4577   1.129   7.542   2.545
    1CAL  O00hu 4578   0.314   6.756   2.932
    1CAL  O00hv 4579   0.121   6.835   2.852
    1CAL  O00hw 4580   0.814   6.914   2.773
    1CAL  O00hx 4581   0.936   6.817   2.465
    1CAL  O00hy 4582   0.936   6.659   2.624
    1CAL  O00hz 4583   1.129   6.738   2.545
    1CAL  O00i0 4584   0.870   7.331   3.159
    1CAL  O00i1 4585   1.066   7.254   3.237
    1CAL  O00i2 4586   0.935   7.464   2.624
    1CAL  O00i3 4587   1.686   7.316   2.773
    1CAL  O00i4 4588   1.685   7.159   2.931
    1CAL  O00i5 4589   1.879   7.237   2.853
    1CAL  O00i6 4590   1.934   7.654   3.238
    1CAL  O00i7 4591   1.936   7.009   3.079
    1CAL  O00i8 4592   1.934   6.851   3.238
    1CAL  O00i9 4593   0.128   7.732   3.160
    1CAL  O00iA 4594   0.064   6.607   3.079
    1CAL  O00iB 4595   1.436   7.621   2.465
    1CAL  O00iC 4596   1.435   7.464   2.624
    1CAL  O00iD 4597   1.629   7.542   2.545
    1CAL  O00iE 4598   0.065   6.450   3.239
    1CAL  O00iF 4599   1.434   7.655   3.238
    1CAL  O00iG 4600   0.065   8.020   2.466
    1CAL  O00iH 4601   0.064   7.863   2.624
    1CAL  O00iI 4602   0.871   7.943   2.544
    1CAL  O00iJ 4603   1.871   7.331   3.160
    1CAL  O00iK 4604   1.936   6.659   2.624
    1CAL  O00iL 4605   1.064   6.607   3.079
    1CAL  O00iM 4606   0.436   7.621   2.465
    1CAL  O00iN 4607   0.435   7.464   2.624
    1CAL  O00iO 4608   0.629   7.542   2.545
    1CAL  O00iP 4609   1.065   6.449   3.238
    1CAL  O00iQ 4610   0.433   7.655   3.238
    1CAL  O00iR 4611   0.871   6.528   3.159
    1CAL  O00iS 4612   1.872   7.140   2.545
    1CAL  O00iT 4613   1.065   8.020   2.466
    1CAL  O00iU 4614   1.064   7.863   2.624
    1CAL  O00iV 4615   1.622   7.637   2.849
    1CAL  O00iW 4616   1.814   7.558   2.929
    1CAL  O00iX 4617   1.815   7.715   2.770
    1CAL  O00iY 4618   1.937   7.621   2.465
    1CAL  O00iZ 4619   1.935   7.464   2.624
    1CAL  O00ia 4620   1.936   6.817   2.465
    1CAL  O00ib 4621   0.629   6.738   2.544
    1CAL  O00ic 4622   0.379   7.237   2.853
    1CAL  O00id 4623   0.370   7.331   3.162
    1CAL  O00ie 4624   1.065   7.062   2.624
    1CAL  O00if 4625   1.564   7.863   2.624
    1CAL  O00ig 4626   1.565   8.020   2.466
    1CAL  O00ih 4627   1.622   6.835   2.852
    1CAL  O00ii 4628   1.815   6.756   2.931
    1CAL  O00ij 4629   1.372   7.943   2.544
    1CAL  O00ik 4630   1.121   6.835   2.852
    1CAL  O00il 4631   1.314   6.914   2.773
    1CAL  O00im 4632   0.628   7.732   3.159
    1CAL  O00in 4633   1.436   6.816   2.466
    1CAL  O00io 4634   1.436   6.659   2.624
    1CAL  O00ip 4635   1.629   6.738   2.544
    1CAL  O00iq 4636   1.371   7.331   3.161
    1CAL  O00ir 4637   1.566   7.254   3.237
    1CAL  O00is 4638   1.315   6.756   2.931
    1CAL  O00it 4639   1.563   7.412   3.078
    1CAL  O00iu 4640   0.065   7.062   2.624
    1CAL  O00iv 4641   1.565   7.062   2.624
    1CAL  O00iw 4642   0.186   7.316   2.773
    1CAL  O00ix 4643   0.063   7.412   3.078
    1CAL  O00iy 4644   0.065   7.254   3.238
    1CAL  O00iz 4645   0.128   6.929   3.160
    1CAL  O00j0 4646   0.129   6.738   2.545
    1CAL  O00j1 4647   0.128   7.542   2.545
    1CAL  O00j2 4648   1.564   7.219   2.466
    1CAL  O00j3 4649   0.315   7.715   2.771
    1CAL  O00j4 4650   1.872   7.943   2.544
    1CAL  O00j5 4651   1.871   6.528   3.160
    1CAL  O00j6 4652   0.121   7.637   2.849
    1CAL  O00j7 4653   1.935   7.811   3.078
    1CAL  O00j8 4654   0.064   7.219   2.466
    1CAL  O00j9 4655   1.372   7.140   2.545
    1CAL  O00jA 4656   0.314   7.558   2.929
    1CAL  O00jB 4657   0.434   7.812   3.078
    1CAL  O00jC 4658   0.628   6.929   3.159
    1CAL  O00jD 4659   1.371   6.527   3.161
    1CAL  O00jE 4660   1.436   7.009   3.078
    1CAL  O00jF 4661   1.434   6.852   3.238
    1CAL  O00jG 4662   1.629   6.929   3.159
    1CAL  O00jH 4663   0.879   6.432   2.852
    1CAL  O00jI 4664   0.686   7.960   2.931
    1CAL  O00jJ 4665   1.434   7.811   3.078
    1CAL  O00jK 4666   1.628   7.732   3.158
    1CAL  O00jL 4667   0.686   6.511   2.773
    1CAL  O00jM 4668   0.563   6.607   3.079
    1CAL  O00jN 4669   0.566   6.450   3.238
    1CAL  O00jO 4670   0.370   6.528   3.161
    1CAL  O00jP 4671   0.562   7.412   3.078
    1CAL  O00jQ 4672   0.567   7.254   3.238
    1CAL  O00jR 4673   0.871   7.140   2.545
    1CAL  O00jS 4674   1.566   6.449   3.238
    1CAL  O00jT 4675   1.564   6.607   3.079
    1CAL  O00jU 4676   0.433   6.852   3.238
    1CAL  O00jV 4677   0.435   7.010   3.079
    1CAL  O00jW 4678   1.686   6.511   2.773
    1CAL  O00jX 4679   1.686   7.960   2.931
    1CAL  O00jY 4680   1.879   6.432   2.852
    1CAL  O00jZ 4681   0.379   6.433   2.852
    1CAL  O00ja 4682   0.186   7.960   2.931
    1CAL  O00jb 4683   0.185   6.511   2.773
    1CAL  O00jc 4684   1.186   6.511   2.773
    1CAL  O00jd 4685   1.186   7.960   2.931
    1CAL  O00je 4686   1.379   6.433   2.852
    1CAL  O00jf 4687   1.064   7.219   2.466
    1CAL  O00jg 4688   1.815   6.914   2.773
    1CAL  O00jh 4689   0.820   7.905   3.387
    1CAL  O00ji 4690   0.811   7.753   3.553
    1CAL  O00jj 4691   0.621   7.837   3.467
    1CAL  O00jk 4692   0.678   7.504   3.386
    1CAL  O00jl 4693   0.687   7.353   3.552
    1CAL  O00jm 4694   0.877   7.435   3.465
    1CAL  O00jn 4695   0.877   6.632   3.466
    1CAL  O00jo 4696   0.687   6.549   3.553
    1CAL  O00jp 4697   0.678   6.700   3.387
    1CAL  O00jq 4698   0.621   7.034   3.466
    1CAL  O00jr 4699   0.811   6.950   3.552
    1CAL  O00js 4700   0.820   7.102   3.387
    1CAL  O00jt 4701   1.679   7.504   3.386
    1CAL  O00ju 4702   1.877   7.435   3.466
    1CAL  O00jv 4703   1.687   7.352   3.552
    1CAL  O00jw 4704   1.622   7.836   3.466
    1CAL  O00jx 4705   1.811   7.753   3.552
    1CAL  O00jy 4706   1.820   7.905   3.387
    1CAL  O00jz 4707   1.678   6.700   3.387
    1CAL  O00k0 4708   1.877   6.632   3.466
    1CAL  O00k1 4709   1.687   6.549   3.553
    1CAL  O00k2 4710   1.621   7.033   3.466
    1CAL  O00k3 4711   1.811   6.950   3.552
    1CAL  O00k4 4712   1.820   7.102   3.387
    1CAL  O00k5 4713   1.311   7.753   3.553
    1CAL  O00k6 4714   1.121   7.836   3.467
    1CAL  O00k7 4715   1.320   7.904   3.387
    1CAL  O00k8 4716   1.179   7.503   3.387
    1CAL  O00k9 4717   1.188   7.351   3.553
    1CAL  O00kA 4718   1.378   7.435   3.467
    1CAL  O00kB 4719   1.311   6.950   3.553
    1CAL  O00kC 4720   1.320   7.101   3.387
    1CAL  O00kD 4721   1.121   7.034   3.466
    1CAL  O00kE 4722   1.179   6.700   3.388
    1CAL  O00kF 4723   1.187   6.548   3.553
    1CAL  O00kG 4724   1.377   6.632   3.468
    1CAL  O00kH 4725   0.310   7.753   3.554
    1CAL  O00kI 4726   0.121   7.837   3.467
    1CAL  O00kJ 4727   0.320   7.904   3.388
    1CAL  O00kK 4728   0.179   7.503   3.388
    1CAL  O00kL 4729   0.188   7.351   3.553
    1CAL  O00kM 4730   0.378   7.435   3.469
    1CAL  O00kN 4731   0.310   6.951   3.554
    1CAL  O00kO 4732   0.121   7.034   3.466
    1CAL  O00kP 4733   0.320   7.102   3.387
    1CAL  O00kQ 4734   0.377   6.632   3.469
    1CAL  O00kR 4735   0.187   6.548   3.554
    1CAL  O00kS 4736   0.179   6.700   3.389
    1CAL  Ca0ET 4737   1.002   7.235   3.464
    1CAL  Ca0EU 4738   1.750   6.939   2.545
    1CAL  Ca0EV 4739   1.496   7.636   3.465
    1CAL  Ca0EW 4740   0.002   7.235   3.465
    1CAL  Ca0EX 4741   0.750   7.932   3.160
    1CAL  Ca0EY 4742   1.750   7.341   2.545
    1CAL  Ca0EZ 4743   1.500   7.036   2.852
    1CAL  Ca0Ea 4744   1.500   7.838   2.852
    1CAL  Ca0Eb 4745   0.249   7.531   3.159
    1CAL  Ca0Ec 4746   1.000   7.838   2.852
    1CAL  Ca0Ed 4747   0.502   6.432   3.465
    1CAL  Ca0Ee 4748   0.250   6.939   2.545
    1CAL  Ca0Ef 4749   0.250   7.130   3.160
    1CAL  Ca0Eg 4750   1.997   6.833   3.465
    1CAL  Ca0Eh 4751   1.997   7.636   3.465
    1CAL  Ca0Ei 4752   1.749   7.531   3.158
    1CAL  Ca0Ej 4753   1.250   6.537   2.545
    1CAL  Ca0Ek 4754   2.000   7.838   2.852
    1CAL  Ca0El 4755   1.750   6.537   2.545
    1CAL  Ca0Em 4756   0.495   6.834   3.465
    1CAL  Ca0En 4757   0.002   6.432   3.466
    1CAL  Ca0Eo 4758   1.751   7.130   3.160
    1CAL  Ca0Ep 4759   0.250   7.341   2.545
    1CAL  Ca0Eq 4760   2.000   7.036   2.852
    1CAL  Ca0Er 4761   1.500   7.437   2.851
    1CAL  Ca0Es 4762   0.250   7.933   3.160
    1CAL  Ca0Et 4763   1.750   7.742   2.546
    1CAL  Ca0Eu 4764   0.500   7.437   2.851
    1CAL  Ca0Ev 4765   0.496   7.637   3.465
    1CAL  Ca0Ew 4766   2.000   6.634   2.852
    1CAL  Ca0Ex 4767   0.500   7.838   2.852
    1CAL  Ca0Ey 4768   1.496   6.833   3.465
    1CAL  Ca0Ez 4769   1.250   7.341   2.545
    1CAL  Ca0F0 4770   0.750   7.341   2.545
    1CAL  Ca0F1 4771   1.000   6.634   2.852
    1CAL  Ca0F2 4772   1.000   7.437   2.851
    1CAL  Ca0F3 4773   0.500   7.036   2.852
    1CAL  Ca0F4 4774   1.000   7.036   2.852
    1CAL  Ca0F5 4775   0.749   7.531   3.159
    1CAL  Ca0F6 4776   0.250   6.537   2.545
    1CAL  Ca0F7 4777   0.750   6.939   2.545
    1CAL  Ca0F8 4778   1.250   6.939   2.545
    1CAL  Ca0F9 4779   1.249   7.531   3.159
    1CAL  Ca0FA 4780   1.250   7.932   3.160
    1CAL  Ca0FB 4781   1.749   6.728   3.160
    1CAL  Ca0FC 4782   1.002   6.432   3.465
    1CAL  Ca0FD 4783   0.748   6.728   3.160
    1CAL  Ca0FE 4784   0.503   7.235   3.464
    1CAL  Ca0FF 4785   0.500   6.634   2.852
    1CAL  Ca0FG 4786   0.750   6.537   2.545
    1CAL  Ca0FH 4787   1.250   7.742   2.546
    1CAL  Ca0FI 4788   1.249   6.728   3.160
    1CAL  Ca0FJ 4789   0.996   6.833   3.465
    1CAL  Ca0FK 4790   0.750   7.742   2.546
    1CAL  Ca0FL 4791   0.996   7.636   3.465
    1CAL  Ca0FM 4792   0.250   7.742   2.546
    1CAL  Ca0FN 4793   1.500   6.634   2.852
    1CAL  Ca0FO 4794   1.503   7.235   3.464
    1CAL  Ca0FP 4795   1.502   6.431   3.465
    1CAL  Ca0FQ 4796   0.750   7.130   3.160
    1CAL  Ca0FR 4797   1.750   7.933   3.160
    1CAL  Ca0FS 4798   1.250   7.130   3.160
    1CAL  Ca0FT 4799   0.249   6.728   3.160
    1CAL  Ca0FU 4800   2.000   7.437   2.851
    1CAL  C00FV 4801   2.000   9.548   0.089
    1CAL  C00FW 4802   1.250   8.038   0.396
    1CAL  C00FX 4803   0.250   8.038   0.396
    1CAL  C00FY 4804   1.499   8.536   0.702
    1CAL  C00FZ 4805   1.499   9.339   0.702
    1CAL  C00Fa 4806   0.750   8.038   0.396
    1CAL  C00Fb 4807   1.000   8.746   0.089
    1CAL  C00Fc 4808   1.250   9.243   0.393
    1CAL  C00Fd 4809   0.750   9.243   0.394
    1CAL  C00Fe 4810   0.500   8.938   0.703
    1CAL  C00Ff 4811   0.500   8.344   0.089
    1CAL  C00Fg 4812   1.000   9.148   0.089
    1CAL  C00Fh 4813   1.000   8.344   0.089
    1CAL  C00Fi 4814   0.250   8.441   0.396
    1CAL  C00Fj 4815   0.500   8.134   0.703
    1CAL  C00Fk 4816   1.000   8.938   0.702
    1CAL  C00Fl 4817   1.750   8.038   0.396
    1CAL  C00Fm 4818   1.500   8.134   0.703
    1CAL  C00Fn 4819   0.250   8.843   0.396
    1CAL  C00Fo 4820   1.999   8.536   0.703
    1CAL  C00Fp 4821   2.000   8.938   0.702
    1CAL  C00Fq 4822   2.000   8.344   0.089
    1CAL  C00Fr 4823   2.000   9.148   0.089
    1CAL  C00Fs 4824   0.250   9.243   0.394
    1CAL  C00Ft 4825   0.499   8.536   0.702
    1CAL  C00Fu 4826   1.500   8.746   0.089
    1CAL  C00Fv 4827   2.000   8.746   0.089
    1CAL  C00Fw 4828   1.750   8.441   0.396
    1CAL  C00Fx 4829   1.250   8.441   0.396
    1CAL  C00Fy 4830   1.500   8.344   0.089
    1CAL  C00Fz 4831   1.500   8.938   0.702
    1CAL  C00G0 4832   0.498   9.339   0.702
    1CAL  C00G1 4833   1.500   9.548   0.089
    1CAL  C00G2 4834   0.750   8.441   0.396
    1CAL  C00G3 4835   1.250   8.843   0.396
    1CAL  C00G4 4836   0.500   9.148   0.089
    1CAL  C00G5 4837   1.750   9.243   0.393
    1CAL  C00G6 4838   1.000   9.548   0.089
    1CAL  C00G7 4839   1.999   9.339   0.703
    1CAL  C00G8 4840   1.000   8.134   0.702
    1CAL  C00G9 4841   0.999   9.339   0.702
    1CAL  C00GA 4842   0.999   8.536   0.703
    1CAL  C00GB 4843   1.750   8.843   0.396
    1CAL  C00GC 4844   0.500   9.548   0.089
    1CAL  C00GD 4845   1.500   9.148   0.089
    1CAL  C00GE 4846   0.500   8.746   0.089
    1CAL  C00GF 4847   0.750   8.843   0.396
    1CAL  C00GG 4848   2.000   8.134   0.703
    1CAL  C00GH 4849   0.751   8.634   1.013
    1CAL  C00GI 4850   0.747   8.233   1.013
    1CAL  C00GJ 4851   0.747   9.036   1.012
    1CAL  C00GK 4852   0.751   9.437   1.013
    1CAL  C00GL 4853   1.751   8.634   1.013
    1CAL  C00GM 4854   1.747   8.233   1.013
    1CAL  C00GN 4855   1.751   9.437   1.013
    1CAL  C00GO 4856   1.748   9.036   1.012
    1CAL  C00GP 4857   1.251   9.437   1.013
    1CAL  C00GQ 4858   1.248   9.035   1.013
    1CAL  C00GR 4859   1.251   8.634   1.013
    1CAL  C00GS 4860   1.247   8.232   1.014
    1CAL  C00GT 4861   0.251   9.437   1.014
    1CAL  C00GU 4862   0.248   9.035   1.014
    1CAL  C00GV 4863   0.251   8.635   1.013
    1CAL  C00GW 4864   0.247   8.232   1.015
    1CAL  O00kT 4865   0.185   8.765   0.475
    1CAL  O00kU 4866   1.186   8.922   0.317
    1CAL  O00kV 4867   1.185   8.765   0.475
    1CAL  O00kW 4868   1.379   8.843   0.397
    1CAL  O00kX 4869   0.564   9.469   0.168
    1CAL  O00kY 4870   0.371   9.549   0.088
    1CAL  O00kZ 4871   0.564   8.825   0.010
    1CAL  O00ka 4872   0.686   8.922   0.317
    1CAL  O00kb 4873   0.685   8.765   0.475
    1CAL  O00kc 4874   0.879   8.843   0.397
    1CAL  O00kd 4875   0.565   9.626   0.010
    1CAL  O00ke 4876   0.564   8.668   0.168
    1CAL  O00kf 4877   0.371   8.746   0.089
    1CAL  O00kg 4878   1.128   9.338   0.703
    1CAL  O00kh 4879   0.935   9.417   0.622
    1CAL  O00ki 4880   0.936   8.615   0.622
    1CAL  O00kj 4881   0.933   8.458   0.782
    1CAL  O00kk 4882   1.128   8.535   0.704
    1CAL  O00kl 4883   0.933   9.261   0.782
    1CAL  O00km 4884   0.621   8.441   0.396
    1CAL  O00kn 4885   1.063   9.017   0.622
    1CAL  O00ko 4886   1.122   9.243   0.393
    1CAL  O00kp 4887   1.314   9.164   0.473
    1CAL  O00kq 4888   1.315   9.321   0.315
    1CAL  O00kr 4889   0.436   8.265   0.168
    1CAL  O00ks 4890   0.435   8.422   0.010
    1CAL  O00kt 4891   0.621   9.243   0.393
    1CAL  O00ku 4892   0.814   9.164   0.473
    1CAL  O00kv 4893   0.815   9.321   0.315
    1CAL  O00kw 4894   0.314   8.520   0.317
    1CAL  O00kx 4895   0.814   8.362   0.475
    1CAL  O00ky 4896   0.936   9.227   0.009
    1CAL  O00kz 4897   1.129   9.148   0.089
    1CAL  O00l0 4898   0.314   8.362   0.476
    1CAL  O00l1 4899   0.121   8.441   0.396
    1CAL  O00l2 4900   0.814   8.520   0.317
    1CAL  O00l3 4901   0.936   8.423   0.009
    1CAL  O00l4 4902   0.936   8.265   0.168
    1CAL  O00l5 4903   1.129   8.344   0.089
    1CAL  O00l6 4904   0.870   8.937   0.703
    1CAL  O00l7 4905   1.066   8.860   0.781
    1CAL  O00l8 4906   0.935   9.070   0.168
    1CAL  O00l9 4907   1.686   8.922   0.317
    1CAL  O00lA 4908   1.685   8.765   0.475
    1CAL  O00lB 4909   1.879   8.843   0.397
    1CAL  O00lC 4910   1.934   9.260   0.782
    1CAL  O00lD 4911   1.936   8.615   0.623
    1CAL  O00lE 4912   1.934   8.457   0.782
    1CAL  O00lF 4913   0.128   9.338   0.704
    1CAL  O00lG 4914   0.064   8.213   0.623
    1CAL  O00lH 4915   1.436   9.227   0.009
    1CAL  O00lI 4916   1.435   9.070   0.168
    1CAL  O00lJ 4917   1.629   9.148   0.089
    1CAL  O00lK 4918   0.065   8.056   0.783
    1CAL  O00lL 4919   1.434   9.261   0.782
    1CAL  O00lM 4920   0.065   9.626   0.010
    1CAL  O00lN 4921   0.064   9.469   0.168
    1CAL  O00lO 4922   0.871   9.549   0.088
    1CAL  O00lP 4923   1.871   8.937   0.704
    1CAL  O00lQ 4924   1.936   8.265   0.168
    1CAL  O00lR 4925   1.064   8.213   0.623
    1CAL  O00lS 4926   0.436   9.227   0.009
    1CAL  O00lT 4927   0.435   9.070   0.168
    1CAL  O00lU 4928   0.629   9.148   0.089
    1CAL  O00lV 4929   1.065   8.055   0.782
    1CAL  O00lW 4930   0.433   9.261   0.782
    1CAL  O00lX 4931   0.871   8.134   0.703
    1CAL  O00lY 4932   1.872   8.746   0.089
    1CAL  O00lZ 4933   1.065   9.626   0.010
    1CAL  O00la 4934   1.064   9.469   0.168
    1CAL  O00lb 4935   1.622   9.243   0.393
    1CAL  O00lc 4936   1.814   9.164   0.473
    1CAL  O00ld 4937   1.815   9.321   0.314
    1CAL  O00le 4938   1.937   9.227   0.009
    1CAL  O00lf 4939   1.935   9.070   0.168
    1CAL  O00lg 4940   1.936   8.423   0.009
    1CAL  O00lh 4941   0.629   8.344   0.088
    1CAL  O00li 4942   0.379   8.843   0.397
    1CAL  O00lj 4943   0.370   8.937   0.706
    1CAL  O00lk 4944   1.065   8.668   0.168
    1CAL  O00ll 4945   1.564   9.469   0.168
    1CAL  O00lm 4946   1.565   9.626   0.010
    1CAL  O00ln 4947   1.622   8.441   0.396
    1CAL  O00lo 4948   1.815   8.362   0.475
    1CAL  O00lp 4949   1.372   9.549   0.088
    1CAL  O00lq 4950   1.121   8.441   0.396
    1CAL  O00lr 4951   1.314   8.520   0.317
    1CAL  O00ls 4952   0.628   9.338   0.703
    1CAL  O00lt 4953   1.436   8.422   0.010
    1CAL  O00lu 4954   1.436   8.265   0.168
    1CAL  O00lv 4955   1.629   8.344   0.088
    1CAL  O00lw 4956   1.371   8.937   0.705
    1CAL  O00lx 4957   1.566   8.860   0.781
    1CAL  O00ly 4958   1.315   8.362   0.475
    1CAL  O00lz 4959   1.563   9.018   0.622
    1CAL  O00m0 4960   0.065   8.668   0.168
    1CAL  O00m1 4961   1.565   8.668   0.168
    1CAL  O00m2 4962   0.186   8.922   0.317
    1CAL  O00m3 4963   0.063   9.018   0.622
    1CAL  O00m4 4964   0.065   8.860   0.782
    1CAL  O00m5 4965   0.128   8.535   0.704
    1CAL  O00m6 4966   0.129   8.344   0.089
    1CAL  O00m7 4967   0.128   9.148   0.089
    1CAL  O00m8 4968   1.564   8.825   0.010
    1CAL  O00m9 4969   0.315   9.321   0.315
    1CAL  O00mA 4970   1.872   9.549   0.088
    1CAL  O00mB 4971   1.871   8.134   0.704
    1CAL  O00mC 4972   0.121   9.243   0.393
    1CAL  O00mD 4973   1.935   9.417   0.622
    1CAL  O00mE 4974   0.064   8.825   0.010
    1CAL  O00mF 4975   1.372   8.746   0.089
    1CAL  O00mG 4976   0.314   9.164   0.473
    1CAL  O00mH 4977   0.434   9.418   0.622
    1CAL  O00mI 4978   0.628   8.535   0.703
    1CAL  O00mJ 4979   1.371   8.133   0.705
    1CAL  O00mK 4980   1.436   8.615   0.622
    1CAL  O00mL 4981   1.434   8.458   0.782
    1CAL  O00mM 4982   1.629   8.535   0.703
    1CAL  O00mN 4983   0.879   8.038   0.396
    1CAL  O00mO 4984   0.686   9.566   0.475
    1CAL  O00mP 4985   1.434   9.417   0.622
    1CAL  O00mQ 4986   1.628   9.338   0.702
    1CAL  O00mR 4987   0.686   8.117   0.317
    1CAL  O00mS 4988   0.563   8.213   0.623
    1CAL  O00mT 4989   0.566   8.056   0.782
    1CAL  O00mU 4990   0.370   8.134   0.705
    1CAL  O00mV 4991   0.562   9.018   0.622
    1CAL  O00mW 4992   0.567   8.860   0.782
    1CAL  O00mX 4993   0.871   8.746   0.089
    1CAL  O00mY 4994   1.566   8.055   0.782
    1CAL  O00mZ 4995   1.564   8.213   0.623
    1CAL  O00ma 4996   0.433   8.458   0.782
    1CAL  O00mb 4997   0.435   8.616   0.623
    1CAL  O00mc 4998   1.686   8.117   0.317
    1CAL  O00md 4999   1.686   9.566   0.475
    1CAL  O00me 5000   1.879   8.038   0.396
    1CAL  O00mf 5001   0.379   8.039   0.396
    1CAL  O00mg 5002   0.186   9.566   0.475
    1CAL  O00mh 5003   0.185   8.117   0.317
    1CAL  O00mi 5004   1.186   8.117   0.317
    1CAL  O00mj 5005   1.186   9.566   0.475
    1CAL  O00mk 5006   1.379   8.039   0.396
    1CAL  O00ml 5007   1.064   8.825   0.010
    1CAL  O00mm 5008   1.815   8.520   0.317
    1CAL  O00mn 5009   0.820   9.511   0.931
    1CAL  O00mo 5010   0.811   9.359   1.097
    1CAL  O00mp 5011   0.621   9.443   1.011
    1CAL  O00mq 5012   0.678   9.110   0.930
    1CAL  O00mr 5013   0.687   8.959   1.096
    1CAL  O00ms 5014   0.877   9.041   1.009
    1CAL  O00mt 5015   0.877   8.238   1.010
    1CAL  O00mu 5016   0.687   8.155   1.097
    1CAL  O00mv 5017   0.678   8.306   0.931
    1CAL  O00mw 5018   0.621   8.640   1.010
    1CAL  O00mx 5019   0.811   8.556   1.096
    1CAL  O00my 5020   0.820   8.708   0.931
    1CAL  O00mz 5021   1.679   9.110   0.930
    1CAL  O00n0 5022   1.877   9.041   1.010
    1CAL  O00n1 5023   1.687   8.958   1.096
    1CAL  O00n2 5024   1.622   9.442   1.010
    1CAL  O00n3 5025   1.811   9.359   1.096
    1CAL  O00n4 5026   1.820   9.511   0.931
    1CAL  O00n5 5027   1.678   8.306   0.931
    1CAL  O00n6 5028   1.877   8.238   1.010
    1CAL  O00n7 5029   1.687   8.155   1.097
    1CAL  O00n8 5030   1.621   8.639   1.010
    1CAL  O00n9 5031   1.811   8.556   1.096
    1CAL  O00nA 5032   1.820   8.708   0.931
    1CAL  O00nB 5033   1.311   9.359   1.097
    1CAL  O00nC 5034   1.121   9.442   1.011
    1CAL  O00nD 5035   1.320   9.510   0.931
    1CAL  O00nE 5036   1.179   9.109   0.931
    1CAL  O00nF 5037   1.188   8.957   1.097
    1CAL  O00nG 5038   1.378   9.041   1.011
    1CAL  O00nH 5039   1.311   8.556   1.097
    1CAL  O00nI 5040   1.320   8.707   0.931
    1CAL  O00nJ 5041   1.121   8.640   1.010
    1CAL  O00nK 5042   1.179   8.306   0.932
    1CAL  O00nL 5043   1.187   8.154   1.097
    1CAL  O00nM 5044   1.377   8.238   1.012
    1CAL  O00nN 5045   0.310   9.359   1.098
    1CAL  O00nO 5046   0.121   9.443   1.011
    1CAL  O00nP 5047   0.320   9.510   0.932
    1CAL  O00nQ 5048   0.179   9.109   0.932
    1CAL  O00nR 5049   0.188   8.957   1.097
    1CAL  O00nS 5050   0.378   9.041   1.013
    1CAL  O00nT 5051   0.310   8.557   1.098
    1CAL  O00nU 5052   0.121   8.640   1.010
    1CAL  O00nV 5053   0.320   8.708   0.931
    1CAL  O00nW 5054   0.377   8.238   1.013
    1CAL  O00nX 5055   0.187   8.154   1.098
    1CAL  O00nY 5056   0.179   8.306   0.933
    1CAL  Ca0FV 5057   1.002   8.841   1.008
    1CAL  Ca0FW 5058   1.750   8.545   0.089
    1CAL  Ca0FX 5059   1.496   9.242   1.009
    1CAL  Ca0FY 5060   0.002   8.841   1.009
    1CAL  Ca0FZ 5061   0.750   9.538   0.704
    1CAL  Ca0Fa 5062   1.750   8.947   0.089
    1CAL  Ca0Fb 5063   1.500   8.642   0.396
    1CAL  Ca0Fc 5064   1.500   9.444   0.396
    1CAL  Ca0Fd 5065   0.249   9.137   0.703
    1CAL  Ca0Fe 5066   1.000   9.444   0.396
    1CAL  Ca0Ff 5067   0.502   8.038   1.009
    1CAL  Ca0Fg 5068   0.250   8.545   0.089
    1CAL  Ca0Fh 5069   0.250   8.736   0.704
    1CAL  Ca0Fi 5070   1.997   8.439   1.009
    1CAL  Ca0Fj 5071   1.997   9.242   1.009
    1CAL  Ca0Fk 5072   1.749   9.137   0.702
    1CAL  Ca0Fl 5073   1.250   8.143   0.089
    1CAL  Ca0Fm 5074   2.000   9.444   0.396
    1CAL  Ca0Fn 5075   1.750   8.143   0.089
    1CAL  Ca0Fo 5076   0.495   8.440   1.009
    1CAL  Ca0Fp 5077   0.002   8.038   1.010
    1CAL  Ca0Fq 5078   1.751   8.736   0.704
    1CAL  Ca0Fr 5079   0.250   8.947   0.089
    1CAL  Ca0Fs 5080   2.000   8.642   0.396
    1CAL  Ca0Ft 5081   1.500   9.043   0.395
    1CAL  Ca0Fu 5082   0.250   9.539   0.704
    1CAL  Ca0Fv 5083   1.750   9.348   0.090
    1CAL  Ca0Fw 5084   0.500   9.043   0.395
    1CAL  Ca0Fx 5085   0.496   9.243   1.009
    1CAL  Ca0Fy 5086   2.000   8.240   0.396
    1CAL  Ca0Fz 5087   0.500   9.444   0.396
    1CAL  Ca0G0 5088   1.496   8.439   1.009
    1CAL  Ca0G1 5089   1.250   8.947   0.089
    1CAL  Ca0G2 5090   0.750   8.947   0.089
    1CAL  Ca0G3 5091   1.000   8.240   0.396
    1CAL  Ca0G4 5092   1.000   9.043   0.395
    1CAL  Ca0G5 5093   0.500   8.642   0.396
    1CAL  Ca0G6 5094   1.000   8.642   0.396
    1CAL  Ca0G7 5095   0.749   9.137   0.703
    1CAL  Ca0G8 5096   0.250   8.143   0.089
    1CAL  Ca0G9 5097   0.750   8.545   0.089
    1CAL  Ca0GA 5098   1.250   8.545   0.089
    1CAL  Ca0GB 5099   1.249   9.137   0.703
    1CAL  Ca0GC 5100   1.250   9.538   0.704
    1CAL  Ca0GD 5101   1.749   8.334   0.704
    1CAL  Ca0GE 5102   1.002   8.038   1.009
    1CAL  Ca0GF 5103   0.748   8.334   0.704
    1CAL  Ca0GG 5104   0.503   8.841   1.008
    1CAL  Ca0GH 5105   0.500   8.240   0.396
    1CAL  Ca0GI 5106   0.750   8.143   0.089
    1CAL  Ca0GJ 5107   1.250   9.348   0.090
    1CAL  Ca0GK 5108   1.249   8.334   0.704
    1CAL  Ca0GL 5109   0.996   8.439   1.009
    1CAL  Ca0GM 5110   0.750   9.348   0.090
    1CAL  Ca0GN 5111   0.996   9.242   1.009
    1CAL  Ca0GO 5112   0.250   9.348   0.090
    1CAL  Ca0GP 5113   1.500   8.240   0.396
    1CAL  Ca0GQ 5114   1.503   8.841   1.008
    1CAL  Ca0GR 5115   1.502   8.037   1.009
    1CAL  Ca0GS 5116   0.750   8.736   0.704
    1CAL  Ca0GT 5117   1.750   9.539   0.704
    1CAL  Ca0GU 5118   1.250   8.736   0.704
    1CAL  Ca0GV 5119   0.249   8.334   0.704
    1CAL  Ca0GW 5120   2.000   9.043   0.395
    1CAL  C00GX 5121   2.000   9.548   1.317
    1CAL  C00GY 5122   1.250   8.038   1.624
    1CAL  C00GZ 5123   0.250   8.038   1.624
    1CAL  C00Ga 5124   1.499   8.536   1.930
    1CAL  C00Gb 5125   1.499   9.339   1.930
    1CAL  C00Gc 5126   0.750   8.038   1.624
    1CAL  C00Gd 5127   1.000   8.746   1.317
    1CAL  C00Ge 5128   1.250   9.243   1.621
    1CAL  C00Gf 5129   0.750   9.243   1.622
    1CAL  C00Gg 5130   0.500   8.938   1.931
    1CAL  C00Gh 5131   0.500   8.344   1.317
    1CAL  C00Gi 5132   1.000   9.148   1.317
    1CAL  C00Gj 5133   1.000   8.344   1.317
    1CAL  C00Gk 5134   0.250   8.441   1.624
    1CAL  C00Gl 5135   0.500   8.134   1.931
    1CAL  C00Gm 5136   1.000   8.938   1.930
    1CAL  C00Gn 5137   1.750   8.038   1.624
    1CAL  C00Go 5138   1.500   8.134   1.931
    1CAL  C00Gp 5139   0.250   8.843   1.624
    1CAL  C00Gq 5140   1.999   8.536   1.931
    1CAL  C00Gr 5141   2.000   8.938   1.930
    1CAL  C00Gs 5142   2.000   8.344   1.317
    1CAL  C00Gt 5143   2.000   9.148   1.317
    1CAL  C00Gu 5144   0.250   9.243   1.622
    1CAL  C00Gv 5145   0.499   8.536   1.930
    1CAL  C00Gw 5146   1.500   8.746   1.317
    1CAL  C00Gx 5147   2.000   8.746   1.317
    1CAL  C00Gy 5148   1.750   8.441   1.624
    1CAL  C00Gz 5149   1.250   8.441   1.624
    1CAL  C00H0 5150   1.500   8.344   1.317
    1CAL  C00H1 5151   1.500   8.938   1.930
    1CAL  C00H2 5152   0.498   9.339   1.930
    1CAL  C00H3 5153   1.500   9.548   1.317
    1CAL  C00H4 5154   0.750   8.441   1.624
    1CAL  C00H5 5155   1.250   8.843   1.624
    1CAL  C00H6 5156   0.500   9.148   1.317
    1CAL  C00H7 5157   1.750   9.243   1.621
    1CAL  C00H8 5158   1.000   9.548   1.317
    1CAL  C00H9 5159   1.999   9.339   1.931
    1CAL  C00HA 5160   1.000   8.134   1.930
    1CAL  C00HB 5161   0.999   9.339   1.930
    1CAL  C00HC 5162   0.999   8.536   1.931
    1CAL  C00HD 5163   1.750   8.843   1.624
    1CAL  C00HE 5164   0.500   9.548   1.317
    1CAL  C00HF 5165   1.500   9.148   1.317
    1CAL  C00HG 5166   0.500   8.746   1.317
    1CAL  C00HH 5167   0.750   8.843   1.624
    1CAL  C00HI 5168   2.000   8.134   1.931
    1CAL  C00HJ 5169   0.751   8.634   2.241
    1CAL  C00HK 5170   0.747   8.233   2.241
    1CAL  C00HL 5171   0.747   9.036   2.240
    1CAL  C00HM 5172   0.751   9.437   2.241
    1CAL  C00HN 5173   1.751   8.634   2.241
    1CAL  C00HO 5174   1.747   8.233   2.241
    1CAL  C00HP 5175   1.751   9.437   2.241
    1CAL  C00HQ 5176   1.748   9.036   2.240
    1CAL  C00HR 5177   1.251   9.437   2.241
    1CAL  C00HS 5178   1.248   9.035   2.241
    1CAL  C00HT 5179   1.251   8.634   2.241
    1CAL  C00HU 5180   1.247   8.232   2.242
    1CAL  C00HV 5181   0.251   9.437   2.242
    1CAL  C00HW 5182   0.248   9.035   2.242
    1CAL  C00HX 5183   0.251   8.635   2.241
    1CAL  C00HY 5184   0.247   8.232   2.243
    1CAL  O00nZ 5185   0.185   8.765   1.703
    1CAL  O00na 5186   1.186   8.922   1.545
    1CAL  O00nb 5187   1.185   8.765   1.703
    1CAL  O00nc 5188   1.379   8.843   1.625
    1CAL  O00nd 5189   0.564   9.469   1.396
    1CAL  O00ne 5190   0.371   9.549   1.316
    1CAL  O00nf 5191   0.564   8.825   1.238
    1CAL  O00ng 5192   0.686   8.922   1.545
    1CAL  O00nh 5193   0.685   8.765   1.703
    1CAL  O00ni 5194   0.879   8.843   1.625
    1CAL  O00nj 5195   0.565   9.626   1.238
    1CAL  O00nk 5196   0.564   8.668   1.396
    1CAL  O00nl 5197   0.371   8.746   1.317
    1CAL  O00nm 5198   1.128   9.338   1.931
    1CAL  O00nn 5199   0.935   9.417   1.850
    1CAL  O00no 5200   0.936   8.615   1.850
    1CAL  O00np 5201   0.933   8.458   2.010
    1CAL  O00nq 5202   1.128   8.535   1.932
    1CAL  O00nr 5203   0.933   9.261   2.010
    1CAL  O00ns 5204   0.621   8.441   1.624
    1CAL  O00nt 5205   1.063   9.017   1.850
    1CAL  O00nu 5206   1.122   9.243   1.621
    1CAL  O00nv 5207   1.314   9.164   1.701
    1CAL  O00nw 5208   1.315   9.321   1.543
    1CAL  O00nx 5209   0.436   8.265   1.396
    1CAL  O00ny 5210   0.435   8.422   1.238
    1CAL  O00nz 5211   0.621   9.243   1.621
    1CAL  O00o0 5212   0.814   9.164   1.701
    1CAL  O00o1 5213   0.815   9.321   1.543
    1CAL  O00o2 5214   0.314   8.520   1.545
    1CAL  O00o3 5215   0.814   8.362   1.703
    1CAL  O00o4 5216   0.936   9.227   1.237
    1CAL  O00o5 5217   1.129   9.148   1.317
    1CAL  O00o6 5218   0.314   8.362   1.704
    1CAL  O00o7 5219   0.121   8.441   1.624
    1CAL  O00o8 5220   0.814   8.520   1.545
    1CAL  O00o9 5221   0.936   8.423   1.237
    1CAL  O00oA 5222   0.936   8.265   1.396
    1CAL  O00oB 5223   1.129   8.344   1.317
    1CAL  O00oC 5224   0.870   8.937   1.931
    1CAL  O00oD 5225   1.066   8.860   2.009
    1CAL  O00oE 5226   0.935   9.070   1.396
    1CAL  O00oF 5227   1.686   8.922   1.545
    1CAL  O00oG 5228   1.685   8.765   1.703
    1CAL  O00oH 5229   1.879   8.843   1.625
    1CAL  O00oI 5230   1.934   9.260   2.010
    1CAL  O00oJ 5231   1.936   8.615   1.851
    1CAL  O00oK 5232   1.934   8.457   2.010
    1CAL  O00oL 5233   0.128   9.338   1.932
    1CAL  O00oM 5234   0.064   8.213   1.851
    1CAL  O00oN 5235   1.436   9.227   1.237
    1CAL  O00oO 5236   1.435   9.070   1.396
    1CAL  O00oP 5237   1.629   9.148   1.317
    1CAL  O00oQ 5238   0.065   8.056   2.011
    1CAL  O00oR 5239   1.434   9.261   2.010
    1CAL  O00oS 5240   0.065   9.626   1.238
    1CAL  O00oT 5241   0.064   9.469   1.396
    1CAL  O00oU 5242   0.871   9.549   1.316
    1CAL  O00oV 5243   1.871   8.937   1.932
    1CAL  O00oW 5244   1.936   8.265   1.396
    1CAL  O00oX 5245   1.064   8.213   1.851
    1CAL  O00oY 5246   0.436   9.227   1.237
    1CAL  O00oZ 5247   0.435   9.070   1.396
    1CAL  O00oa 5248   0.629   9.148   1.317
    1CAL  O00ob 5249   1.065   8.055   2.010
    1CAL  O00oc 5250   0.433   9.261   2.010
    1CAL  O00od 5251   0.871   8.134   1.931
    1CAL  O00oe 5252   1.872   8.746   1.317
    1CAL  O00of 5253   1.065   9.626   1.238
    1CAL  O00og 5254   1.064   9.469   1.396
    1CAL  O00oh 5255   1.622   9.243   1.621
    1CAL  O00oi 5256   1.814   9.164   1.701
    1CAL  O00oj 5257   1.815   9.321   1.542
    1CAL  O00ok 5258   1.937   9.227   1.237
    1CAL  O00ol 5259   1.935   9.070   1.396
    1CAL  O00om 5260   1.936   8.423   1.237
    1CAL  O00on 5261   0.629   8.344   1.316
    1CAL  O00oo 5262   0.379   8.843   1.625
    1CAL  O00op 5263   0.370   8.937   1.934
    1CAL  O00oq 5264   1.065   8.668   1.396
    1CAL  O00or 5265   1.564   9.469   1.396
    1CAL  O00os 5266   1.565   9.626   1.238
    1CAL  O00ot 5267   1.622   8.441   1.624
    1CAL  O00ou 5268   1.815   8.362   1.703
    1CAL  O00ov 5269   1.372   9.549   1.316
    1CAL  O00ow 5270   1.121   8.441   1.624
    1CAL  O00ox 5271   1.314   8.520   1.545
    1CAL  O00oy 5272   0.628   9.338   1.931
    1CAL  O00oz 5273   1.436   8.422   1.238
    1CAL  O00p0 5274   1.436   8.265   1.396
    1CAL  O00p1 5275   1.629   8.344   1.316
    1CAL  O00p2 5276   1.371   8.937   1.933
    1CAL  O00p3 5277   1.566   8.860   2.009
    1CAL  O00p4 5278   1.315   8.362   1.703
    1CAL  O00p5 5279   1.563   9.018   1.850
    1CAL  O00p6 5280   0.065   8.668   1.396
    1CAL  O00p7 5281   1.565   8.668   1.396
    1CAL  O00p8 5282   0.186   8.922   1.545
    1CAL  O00p9 5283   0.063   9.018   1.850
    1CAL  O00pA 5284   0.065   8.860   2.010
    1CAL  O00pB 5285   0.128   8.535   1.932
    1CAL  O00pC 5286   0.129   8.344   1.317
    1CAL  O00pD 5287   0.128   9.148   1.317
    1CAL  O00pE 5288   1.564   8.825   1.238
    1CAL  O00pF 5289   0.315   9.321   1.543
    1CAL  O00pG 5290   1.872   9.549   1.316
    1CAL  O00pH 5291   1.871   8.134   1.932
    1CAL  O00pI 5292   0.121   9.243   1.621
    1CAL  O00pJ 5293   1.935   9.417   1.850
    1CAL  O00pK 5294   0.064   8.825   1.238
    1CAL  O00pL 5295   1.372   8.746   1.317
    1CAL  O00pM 5296   0.314   9.164   1.701
    1CAL  O00pN 5297   0.434   9.418   1.850
    1CAL  O00pO 5298   0.628   8.535   1.931
    1CAL  O00pP 5299   1.371   8.133   1.933
    1CAL  O00pQ 5300   1.436   8.615   1.850
    1CAL  O00pR 5301   1.434   8.458   2.010
    1CAL  O00pS 5302   1.629   8.535   1.931
    1CAL  O00pT 5303   0.879   8.038   1.624
    1CAL  O00pU 5304   0.686   9.566   1.703
    1CAL  O00pV 5305   1.434   9.417   1.850
    1CAL  O00pW 5306   1.628   9.338   1.930
    1CAL  O00pX 5307   0.686   8.117   1.545
    1CAL  O00pY 5308   0.563   8.213   1.851
    1CAL  O00pZ 5309   0.566   8.056   2.010
    1CAL  O00pa 5310   0.370   8.134   1.933
    1CAL  O00pb 5311   0.562   9.018   1.850
    1CAL  O00pc 5312   0.567   8.860   2.010
    1CAL  O00pd 5313   0.871   8.746   1.317
    1CAL  O00pe 5314   1.566   8.055   2.010
    1CAL  O00pf 5315   1.564   8.213   1.851
    1CAL  O00pg 5316   0.433   8.458   2.010
    1CAL  O00ph 5317   0.435   8.616   1.851
    1CAL  O00pi 5318   1.686   8.117   1.545
    1CAL  O00pj 5319   1.686   9.566   1.703
    1CAL  O00pk 5320   1.879   8.038   1.624
    1CAL  O00pl 5321   0.379   8.039   1.624
    1CAL  O00pm 5322   0.186   9.566   1.703
    1CAL  O00pn 5323   0.185   8.117   1.545
    1CAL  O00po 5324   1.186   8.117   1.545
    1CAL  O00pp 5325   1.186   9.566   1.703
    1CAL  O00pq 5326   1.379   8.039   1.624
    1CAL  O00pr 5327   1.064   8.825   1.238
    1CAL  O00ps 5328   1.815   8.520   1.545
    1CAL  O00pt 5329   0.820   9.511   2.159
    1CAL  O00pu 5330   0.811   9.359   2.325
    1CAL  O00pv 5331   0.621   9.443   2.239
    1CAL  O00pw 5332   0.678   9.110   2.158
    1CAL  O00px 5333   0.687   8.959   2.324
    1CAL  O00py 5334   0.877   9.041   2.237
    1CAL  O00pz 5335   0.877   8.238   2.238
    1CAL  O00q0 5336   0.687   8.155   2.325
    1CAL  O00q1 5337   0.678   8.306   2.159
    1CAL  O00q2 5338   0.621   8.640   2.238
    1CAL  O00q3 5339   0.811   8.556   2.324
    1CAL  O00q4 5340   0.820   8.708   2.159
    1CAL  O00q5 5341   1.679   9.110   2.158
    1CAL  O00q6 5342   1.877   9.041   2.238
    1CAL  O00q7 5343   1.687   8.958   2.324
    1CAL  O00q8 5344   1.622   9.442   2.238
    1CAL  O00q9 5345   1.811   9.359   2.324
    1CAL  O00qA 5346   1.820   9.511   2.159
    1CAL  O00qB 5347   1.678   8.306   2.159
    1CAL  O00qC 5348   1.877   8.238   2.238
    1CAL  O00qD 5349   1.687   8.155   2.325
    1CAL  O00qE 5350   1.621   8.639   2.238
    1CAL  O00qF 5351   1.811   8.556   2.324
    1CAL  O00qG 5352   1.820   8.708   2.159
    1CAL  O00qH 5353   1.311   9.359   2.325
    1CAL  O00qI 5354   1.121   9.442   2.239
    1CAL  O00qJ 5355   1.320   9.510   2.159
    1CAL  O00qK 5356   1.179   9.109   2.159
    1CAL  O00qL 5357   1.188   8.957   2.325
    1CAL  O00qM 5358   1.378   9.041   2.239
    1CAL  O00qN 5359   1.311   8.556   2.325
    1CAL  O00qO 5360   1.320   8.707   2.159
    1CAL  O00qP 5361   1.121   8.640   2.238
    1CAL  O00qQ 5362   1.179   8.306   2.160
    1CAL  O00qR 5363   1.187   8.154   2.325
    1CAL  O00qS 5364   1.377   8.238   2.240
    1CAL  O00qT 5365   0.310   9.359   2.326
    1CAL  O00qU 5366   0.121   9.443   2.239
    1CAL  O00qV 5367   0.320   9.510   2.160
    1CAL  O00qW 5368   0.179   9.109   2.160
    1CAL  O00qX 5369   0.188   8.957   2.325
    1CAL  O00qY 5370   0.378   9.041   2.241
    1CAL  O00qZ 5371   0.310   8.557   2.326
    1CAL  O00qa 5372   0.121   8.640   2.238
    1CAL  O00qb 5373   0.320   8.708   2.159
    1CAL  O00qc 5374   0.377   8.238   2.241
    1CAL  O00qd 5375   0.187   8.154   2.326
    1CAL  O00qe 5376   0.179   8.306   2.161
    1CAL  Ca0GX 5377   1.002   8.841   2.236
    1CAL  Ca0GY 5378   1.750   8.545   1.317
    1CAL  Ca0GZ 5379   1.496   9.242   2.237
    1CAL  Ca0Ga 5380   0.002   8.841   2.237
    1CAL  Ca0Gb 5381   0.750   9.538   1.932
    1CAL  Ca0Gc 5382   1.750   8.947   1.317
    1CAL  Ca0Gd 5383   1.500   8.642   1.624
    1CAL  Ca0Ge 5384   1.500   9.444   1.624
    1CAL  Ca0Gf 5385   0.249   9.137   1.931
    1CAL  Ca0Gg 5386   1.000   9.444   1.624
    1CAL  Ca0Gh 5387   0.502   8.038   2.237
    1CAL  Ca0Gi 5388   0.250   8.545   1.317
    1CAL  Ca0Gj 5389   0.250   8.736   1.932
    1CAL  Ca0Gk 5390   1.997   8.439   2.237
    1CAL  Ca0Gl 5391   1.997   9.242   2.237
    1CAL  Ca0Gm 5392   1.749   9.137   1.930
    1CAL  Ca0Gn 5393   1.250   8.143   1.317
    1CAL  Ca0Go 5394   2.000   9.444   1.624
    1CAL  Ca0Gp 5395   1.750   8.143   1.317
    1CAL  Ca0Gq 5396   0.495   8.440   2.237
    1CAL  Ca0Gr 5397   0.002   8.038   2.238
    1CAL  Ca0Gs 5398   1.751   8.736   1.932
    1CAL  Ca0Gt 5399   0.250   8.947   1.317
    1CAL  Ca0Gu 5400   2.000   8.642   1.624
    1CAL  Ca0Gv 5401   1.500   9.043   1.623
    1CAL  Ca0Gw 5402   0.250   9.539   1.932
    1CAL  Ca0Gx 5403   1.750   9.348   1.318
    1CAL  Ca0Gy 5404   0.500   9.043   1.623
    1CAL  Ca0Gz 5405   0.496   9.243   2.237
    1CAL  Ca0H0 5406   2.000   8.240   1.624
    1CAL  Ca0H1 5407   0.500   9.444   1.624
    1CAL  Ca0H2 5408   1.496   8.439   2.237
    1CAL  Ca0H3 5409   1.250   8.947   1.317
    1CAL  Ca0H4 5410   0.750   8.947   1.317
    1CAL  Ca0H5 5411   1.000   8.240   1.624
    1CAL  Ca0H6 5412   1.000   9.043   1.623
    1CAL  Ca0H7 5413   0.500   8.642   1.624
    1CAL  Ca0H8 5414   1.000   8.642   1.624
    1CAL  Ca0H9 5415   0.749   9.137   1.931
    1CAL  Ca0HA 5416   0.250   8.143   1.317
    1CAL  Ca0HB 5417   0.750   8.545   1.317
    1CAL  Ca0HC 5418   1.250   8.545   1.317
    1CAL  Ca0HD 5419   1.249   9.137   1.931
    1CAL  Ca0HE 5420   1.250   9.538   1.932
    1CAL  Ca0HF 5421   1.749   8.334   1.932
    1CAL  Ca0HG 5422   1.002   8.038   2.237
    1CAL  Ca0HH 5423   0.748   8.334   1.932
    1CAL  Ca0HI 5424   0.503   8.841   2.236
    1CAL  Ca0HJ 5425   0.500   8.240   1.624
    1CAL  Ca0HK 5426   0.750   8.143   1.317
    1CAL  Ca0HL 5427   1.250   9.348   1.318
    1CAL  Ca0HM 5428   1.249   8.334   1.932
    1CAL  Ca0HN 5429   0.996   8.439   2.237
    1CAL  Ca0HO 5430   0.750   9.348   1.318
    1CAL  Ca0HP 5431   0.996   9.242   2.237
    1CAL  Ca0HQ 5432   0.250   9.348   1.318
    1CAL  Ca0HR 5433   1.500   8.240   1.624
    1CAL  Ca0HS 5434   1.503   8.841   2.236
    1CAL  Ca0HT 5435   1.502   8.037   2.237
    1CAL  Ca0HU 5436   0.750   8.736   1.932
    1CAL  Ca0HV 5437   1.750   9.539   1.932
    1CAL  Ca0HW 5438   1.250   8.736   1.932
    1CAL  Ca0HX 5439   0.249   8.334   1.932
    1CAL  Ca0HY 5440   2.000   9.043   1.623
    1CAL  C00HZ 5441   2.000   9.548   2.545
    1CAL  C00Ha 5442   1.250   8.038   2.852
    1CAL  C00Hb 5443   0.250   8.038   2.852
    1CAL  C00Hc 5444   1.499   8.536   3.158
    1CAL  C00Hd 5445   1.499   9.339   3.158
    1CAL  C00He 5446   0.750   8.038   2.852
    1CAL  C00Hf 5447   1.000   8.746   2.545
    1CAL  C00Hg 5448   1.250   9.243   2.849
    1CAL  C00Hh 5449   0.750   9.243   2.850
    1CAL  C00Hi 5450   0.500   8.938   3.159
    1CAL  C00Hj 5451   0.500   8.344   2.545
    1CAL  C00Hk 5452   1.000   9.148   2.545
    1CAL  C00Hl 5453   1.000   8.344   2.545
    1CAL  C00Hm 5454   0.250   8.441   2.852
    1CAL  C00Hn 5455   0.500   8.134   3.159
    1CAL  C00Ho 5456   1.000   8.938   3.158
    1CAL  C00Hp 5457   1.750   8.038   2.852
    1CAL  C00Hq 5458   1.500   8.134   3.159
    1CAL  C00Hr 5459   0.250   8.843   2.852
    1CAL  C00Hs 5460   1.999   8.536   3.159
    1CAL  C00Ht 5461   2.000   8.938   3.158
    1CAL  C00Hu 5462   2.000   8.344   2.545
    1CAL  C00Hv 5463   2.000   9.148   2.545
    1CAL  C00Hw 5464   0.250   9.243   2.850
    1CAL  C00Hx 5465   0.499   8.536   3.158
    1CAL  C00Hy 5466   1.500   8.746   2.545
    1CAL  C00Hz 5467   2.000   8.746   2.545
    1CAL  C00I0 5468   1.750   8.441   2.852
    1CAL  C00I1 5469   1.250   8.441   2.852
    1CAL  C00I2 5470   1.500   8.344   2.545
    1CAL  C00I3 5471   1.500   8.938   3.158
    1CAL  C00I4 5472   0.498   9.339   3.158
    1CAL  C00I5 5473   1.500   9.548   2.545
    1CAL  C00I6 5474   0.750   8.441   2.852
    1CAL  C00I7 5475   1.250   8.843   2.852
    1CAL  C00I8 5476   0.500   9.148   2.545
    1CAL  C00I9 5477   1.750   9.243   2.849
    1CAL  C00IA 5478   1.000   9.548   2.545
    1CAL  C00IB 5479   1.999   9.339   3.159
    1CAL  C00IC 5480   1.000   8.134   3.158
    1CAL  C00ID 5481   0.999   9.339   3.158
    1CAL  C00IE 5482   0.999   8.536   3.159
    1CAL  C00IF 5483   1.750   8.843   2.852
    1CAL  C00IG 5484   0.500   9.548   2.545
    1CAL  C00IH 5485   1.500   9.148   2.545
    1CAL  C00II 5486   0.500   8.746   2.545
    1CAL  C00IJ 5487   0.750   8.843   2.852
    1CAL  C00IK 5488   2.000   8.134   3.159
    1CAL  C00IL 5489   0.751   8.634   3.469
    1CAL  C00IM 5490   0.747   8.233   3.469
    1CAL  C00IN 5491   0.747   9.036   3.468
    1CAL  C00IO 5492   0.751   9.437   3.469
    1CAL  C00IP 5493   1.751   8.634   3.469
    1CAL  C00IQ 5494   1.747   8.233   3.469
    1CAL  C00IR 5495   1.751   9.437   3.469
    1CAL  C00IS 5496   1.748   9.036   3.468
    1CAL  C00IT 5497   1.251   9.437   3.469
    1CAL  C00IU 5498   1.248   9.035   3.469
    1CAL  C00IV 5499   1.251   8.634   3.469
    1CAL  C00IW 5500   1.247   8.232   3.470
    1CAL  C00IX 5501   0.251   9.437   3.470
    1CAL  C00IY 5502   0.248   9.035   3.470
    1CAL  C00IZ 5503   0.251   8.635   3.469
    1CAL  C00Ia 5504   0.247   8.232   3.471
    1CAL  O00qf 5505   0.185   8.765   2.931
    1CAL  O00qg 5506   1.186   8.922   2.773
    1CAL  O00qh 5507   1.185   8.765   2.931
    1CAL  O00qi 5508   1.379   8.843   2.853
    1CAL  O00qj 5509   0.564   9.469   2.624
    1CAL  O00qk 5510   0.371   9.549   2.544
    1CAL  O00ql 5511   0.564   8.825   2.466
    1CAL  O00qm 5512   0.686   8.922   2.773
    1CAL  O00qn 5513   0.685   8.765   2.931
    1CAL  O00qo 5514   0.879   8.843   2.853
    1CAL  O00qp 5515   0.565   9.626   2.466
    1CAL  O00qq 5516   0.564   8.668   2.624
    1CAL  O00qr 5517   0.371   8.746   2.545
    1CAL  O00qs 5518   1.128   9.338   3.159
    1CAL  O00qt 5519   0.935   9.417   3.078
    1CAL  O00qu 5520   0.936   8.615   3.078
    1CAL  O00qv 5521   0.933   8.458   3.238
    1CAL  O00qw 5522   1.128   8.535   3.160
    1CAL  O00qx 5523   0.933   9.261   3.238
    1CAL  O00qy 5524   0.621   8.441   2.852
    1CAL  O00qz 5525   1.063   9.017   3.078
    1CAL  O00r0 5526   1.122   9.243   2.849
    1CAL  O00r1 5527   1.314   9.164   2.929
    1CAL  O00r2 5528   1.315   9.321   2.771
    1CAL  O00r3 5529   0.436   8.265   2.624
    1CAL  O00r4 5530   0.435   8.422   2.466
    1CAL  O00r5 5531   0.621   9.243   2.849
    1CAL  O00r6 5532   0.814   9.164   2.929
    1CAL  O00r7 5533   0.815   9.321   2.771
    1CAL  O00r8 5534   0.314   8.520   2.773
    1CAL  O00r9 5535   0.814   8.362   2.931
    1CAL  O00rA 5536   0.936   9.227   2.465
    1CAL  O00rB 5537   1.129   9.148   2.545
    1CAL  O00rC 5538   0.314   8.362   2.932
    1CAL  O00rD 5539   0.121   8.441   2.852
    1CAL  O00rE 5540   0.814   8.520   2.773
    1CAL  O00rF 5541   0.936   8.423   2.465
    1CAL  O00rG 5542   0.936   8.265   2.624
    1CAL  O00rH 5543   1.129   8.344   2.545
    1CAL  O00rI 5544   0.870   8.937   3.159
    1CAL  O00rJ 5545   1.066   8.860   3.237
    1CAL  O00rK 5546   0.935   9.070   2.624
    1CAL  O00rL 5547   1.686   8.922   2.773
    1CAL  O00rM 5548   1.685   8.765   2.931
    1CAL  O00rN 5549   1.879   8.843   2.853
    1CAL  O00rO 5550   1.934   9.260   3.238
    1CAL  O00rP 5551   1.936   8.615   3.079
    1CAL  O00rQ 5552   1.934   8.457   3.238
    1CAL  O00rR 5553   0.128   9.338   3.160
    1CAL  O00rS 5554   0.064   8.213   3.079
    1CAL  O00rT 5555   1.436   9.227   2.465
    1CAL  O00rU 5556   1.435   9.070   2.624
    1CAL  O00rV 5557   1.629   9.148   2.545
    1CAL  O00rW 5558   0.065   8.056   3.239
    1CAL  O00rX 5559   1.434   9.261   3.238
    1CAL  O00rY 5560   0.065   9.626   2.466
    1CAL  O00rZ 5561   0.064   9.469   2.624
    1CAL  O00ra 5562   0.871   9.549   2.544
    1CAL  O00rb 5563   1.871   8.937   3.160
    1CAL  O00rc 5564   1.936   8.265   2.624
    1CAL  O00rd 5565   1.064   8.213   3.079
    1CAL  O00re 5566   0.436   9.227   2.465
    1CAL  O00rf 5567   0.435   9.070   2.624
    1CAL  O00rg 5568   0.629   9.148   2.545
    1CAL  O00rh 5569   1.065   8.055   3.238
    1CAL  O00ri 5570   0.433   9.261   3.238
    1CAL  O00rj 5571   0.871   8.134   3.159
    1CAL  O00rk 5572   1.872   8.746   2.545
    1CAL  O00rl 5573   1.065   9.626   2.466
    1CAL  O00rm 5574   1.064   9.469   2.624
    1CAL  O00rn 5575   1.622   9.243   2.849
    1CAL  O00ro 5576   1.814   9.164   2.929
    1CAL  O00rp 5577   1.815   9.321   2.770
    1CAL  O00rq 5578   1.937   9.227   2.465
    1CAL  O00rr 5579   1.935   9.070   2.624
    1CAL  O00rs 5580   1.936   8.423   2.465
    1CAL  O00rt 5581   0.629   8.344   2.544
    1CAL  O00ru 5582   0.379   8.843   2.853
    1CAL  O00rv 5583   0.370   8.937   3.162
    1CAL  O00rw 5584   1.065   8.668   2.624
    1CAL  O00rx 5585   1.564   9.469   2.624
    1CAL  O00ry 5586   1.565   9.626   2.466
    1CAL  O00rz 5587   1.622   8.441   2.852
    1CAL  O00s0 5588   1.815   8.362   2.931
    1CAL  O00s1 5589   1.372   9.549   2.544
    1CAL  O00s2 5590   1.121   8.441   2.852
    1CAL  O00s3 5591   1.314   8.520   2.773
    1CAL  O00s4 5592   0.628   9.338   3.159
    1CAL  O00s5 5593   1.436   8.422   2.466
    1CAL  O00s6 5594   1.436   8.265   2.624
    1CAL  O00s7 5595   1.629   8.344   2.544
    1CAL  O00s8 5596   1.371   8.937   3.161
    1CAL  O00s9 5597   1.566   8.860   3.237
    1CAL  O00sA 5598   1.315   8.362   2.931
    1CAL  O00sB 5599   1.563   9.018   3.078
    1CAL  O00sC 5600   0.065   8.668   2.624
    1CAL  O00sD 5601   1.565   8.668   2.624
    1CAL  O00sE 5602   0.186   8.922   2.773
    1CAL  O00sF 5603   0.063   9.018   3.078
    1CAL  O00sG 5604   0.065   8.860   3.238
    1CAL  O00sH 5605   0.128   8.535   3.160
    1CAL  O00sI 5606   0.129   8.344   2.545
    1CAL  O00sJ 5607   0.128   9.148   2.545
    1CAL  O00sK 5608   1.564   8.825   2.466
    1CAL  O00sL 5609   0.315   9.321   2.771
    1CAL  O00sM 5610   1.872   9.549   2.544
    1CAL  O00sN 5611   1.871   8.134   3.160
    1CAL  O00sO 5612   0.121   9.243   2.849
    1CAL  O00sP 5613   1.935   9.417   3.078
    1CAL  O00sQ 5614   0.064   8.825   2.466
    1CAL  O00sR 5615   1.372   8.746   2.545
    1CAL  O00sS 5616   0.314   9.164   2.929
    1CAL  O00sT 5617   0.434   9.418   3.078
    1CAL  O00sU 5618   0.628   8.535   3.159
    1CAL  O00sV 5619   1.371   8.133   3.161
    1CAL  O00sW 5620   1.436   8.615   3.078
    1CAL  O00sX 5621   1.434   8.458   3.238
    1CAL  O00sY 5622   1.629   8.535   3.159
    1CAL  O00sZ 5623   0.879   8.038   2.852
    1CAL  O00sa 5624   0.686   9.566   2.931
    1CAL  O00sb 5625   1.434   9.417   3.078
    1CAL  O00sc 5626   1.628   9.338   3.158
    1CAL  O00sd 5627   0.686   8.117   2.773
    1CAL  O00se 5628   0.563   8.213   3.079
    1CAL  O00sf 5629   0.566   8.056   3.238
    1CAL  O00sg 5630   0.370   8.134   3.161
    1CAL  O00sh 5631   0.562   9.018   3.078
    1CAL  O00si 5632   0.567   8.860   3.238
    1CAL  O00sj 5633   0.871   8.746   2.545
    1CAL  O00sk 5634   1.566   8.055   3.238
    1CAL  O00sl 5635   1.564   8.213   3.079
    1CAL  O00sm 5636   0.433   8.458   3.238
    1CAL  O00sn 5637   0.435   8.616   3.079
    1CAL  O00so 5638   1.686   8.117   2.773
    1CAL  O00sp 5639   1.686   9.566   2.931
    1CAL  O00sq 5640   1.879   8.038   2.852
    1CAL  O00sr 5641   0.379   8.039   2.852
    1CAL  O00ss 5642   0.186   9.566   2.931
    1CAL  O00st 5643   0.185   8.117   2.773
    1CAL  O00su 5644   1.186   8.117   2.773
    1CAL  O00sv 5645   1.186   9.566   2.931
    1CAL  O00sw 5646   1.379   8.039   2.852
    1CAL  O00sx 5647   1.064   8.825   2.466
    1CAL  O00sy 5648   1.815   8.520   2.773
    1CAL  O00sz 5649   0.820   9.511   3.387
    1CAL  O00t0 5650   0.811   9.359   3.553
    1CAL  O00t1 5651   0.621   9.443   3.467
    1CAL  O00t2 5652   0.678   9.110   3.386
    1CAL  O00t3 5653   0.687   8.959   3.552
    1CAL  O00t4 5654   0.877   9.041   3.465
    1CAL  O00t5 5655   0.877   8.238   3.466
    1CAL  O00t6 5656   0.687   8.155   3.553
    1CAL  O00t7 5657   0.678   8.306   3.387
    1CAL  O00t8 5658   0.621   8.640   3.466
    1CAL  O00t9 5659   0.811   8.556   3.552
    1CAL  O00tA 5660   0.820   8.708   3.387
    1CAL  O00tB 5661   1.679   9.110   3.386
    1CAL  O00tC 5662   1.877   9.041   3.466
    1CAL  O00tD 5663   1.687   8.958   3.552
    1CAL  O00tE 5664   1.622   9.442   3.466
    1CAL  O00tF 5665   1.811   9.359   3.552
    1CAL  O00tG 5666   1.820   9.511   3.387
    1CAL  O00tH 5667   1.678   8.306   3.387
    1CAL  O00tI 5668   1.877   8.238   3.466
    1CAL  O00tJ 5669   1.687   8.155   3.553
    1CAL  O00tK 5670   1.621   8.639   3.466
    1CAL  O00tL 5671   1.811   8.556   3.552
    1CAL  O00tM 5672   1.820   8.708   3.387
    1CAL  O00tN 5673   1.311   9.359   3.553
    1CAL  O00tO 5674   1.121   9.442   3.467
    1CAL  O00tP 5675   1.320   9.510   3.387
    1CAL  O00tQ 5676   1.179   9.109   3.387
    1CAL  O00tR 5677   1.188   8.957   3.553
    1CAL  O00tS 5678   1.378   9.041   3.467
    1CAL  O00tT 5679   1.311   8.556   3.553
    1CAL  O00tU 5680   1.320   8.707   3.387
    1CAL  O00tV 5681   1.121   8.640   3.466
    1CAL  O00tW 5682   1.179   8.306   3.388
    1CAL  O00tX 5683   1.187   8.154   3.553
    1CAL  O00tY 5684   1.377   8.238   3.468
    1CAL  O00tZ 5685   0.310   9.359   3.554
    1CAL  O00ta 5686   0.121   9.443   3.467
    1CAL  O00tb 5687   0.320   9.510   3.388
    1CAL  O00tc 5688   0.179   9.109   3.388
    1CAL  O00td 5689   0.188   8.957   3.553
    1CAL  O00te 5690   0.378   9.041   3.469
    1CAL  O00tf 5691   0.310   8.557   3.554
    1CAL  O00tg 5692   0.121   8.640   3.466
    1CAL  O00th 5693   0.320   8.708   3.387
    1CAL  O00ti 5694   0.377   8.238   3.469
    1CAL  O00tj 5695   0.187   8.154   3.554
    1CAL  O00tk 5696   0.179   8.306   3.389
    1CAL  Ca0HZ 5697   1.002   8.841   3.464
    1CAL  Ca0Ha 5698   1.750   8.545   2.545
    1CAL  Ca0Hb 5699   1.496   9.242   3.465
    1CAL  Ca0Hc 5700   0.002   8.841   3.465
    1CAL  Ca0Hd 5701   0.750   9.538   3.160
    1CAL  Ca0He 5702   1.750   8.947   2.545
    1CAL  Ca0Hf 5703   1.500   8.642   2.852
    1CAL  Ca0Hg 5704   1.500   9.444   2.852
    1CAL  Ca0Hh 5705   0.249   9.137   3.159
    1CAL  Ca0Hi 5706   1.000   9.444   2.852
    1CAL  Ca0Hj 5707   0.502   8.038   3.465
    1CAL  Ca0Hk 5708   0.250   8.545   2.545
    1CAL  Ca0Hl 5709   0.250   8.736   3.160
    1CAL  Ca0Hm 5710   1.997   8.439   3.465
    1CAL  Ca0Hn 5711   1.997   9.242   3.465
    1CAL  Ca0Ho 5712   1.749   9.137   3.158
    1CAL  Ca0Hp 5713   1.250   8.143   2.545
    1CAL  Ca0Hq 5714   2.000   9.444   2.852
    1CAL  Ca0Hr 5715   1.750   8.143   2.545
    1CAL  Ca0Hs 5716   0.495   8.440   3.465
    1CAL  Ca0Ht 5717   0.002   8.038   3.466
    1CAL  Ca0Hu 5718   1.751   8.736   3.160
    1CAL  Ca0Hv 5719   0.250   8.947   2.545
    1CAL  Ca0Hw 5720   2.000   8.642   2.852
    1CAL  Ca0Hx 5721   1.500   9.043   2.851
    1CAL  Ca0Hy 5722   0.250   9.539   3.160
    1CAL  Ca0Hz 5723   1.750   9.348   2.546
    1CAL  Ca0I0 5724   0.500   9.043   2.851
    1CAL  Ca0I1 5725   0.496   9.243   3.465
    1CAL  Ca0I2 5726   2.000   8.240   2.852
    1CAL  Ca0I3 5727   0.500   9.444   2.852
    1CAL  Ca0I4 5728   1.496   8.439   3.465
    1CAL  Ca0I5 5729   1.250   8.947   2.545
    1CAL  Ca0I6 5730   0.750   8.947   2.545
    1CAL  Ca0I7 5731   1.000   8.240   2.852
    1CAL  Ca0I8 5732   1.000   9.043   2.851
    1CAL  Ca0I9 5733   0.500   8.642   2.852
    1CAL  Ca0IA 5734   1.000   8.642   2.852
    1CAL  Ca0IB 5735   0.749   9.137   3.159
    1CAL  Ca0IC 5736   0.250   8.143   2.545
    1CAL  Ca0ID 5737   0.750   8.545   2.545
    1CAL  Ca0IE 5738   1.250   8.545   2.545
    1CAL  Ca0IF 5739   1.249   9.137   3.159
    1CAL  Ca0IG 5740   1.250   9.538   3.160
    1CAL  Ca0IH 5741   1.749   8.334   3.160
    1CAL  Ca0II 5742   1.002   8.038   3.465
    1CAL  Ca0IJ 5743   0.748   8.334   3.160
    1CAL  Ca0IK 5744   0.503   8.841   3.464
    1CAL  Ca0IL 5745   0.500   8.240   2.852
    1CAL  Ca0IM 5746   0.750   8.143   2.545
    1CAL  Ca0IN 5747   1.250   9.348   2.546
    1CAL  Ca0IO 5748   1.249   8.334   3.160
    1CAL  Ca0IP 5749   0.996   8.439   3.465
    1CAL  Ca0IQ 5750   0.750   9.348   2.546
    1CAL  Ca0IR 5751   0.996   9.242   3.465
    1CAL  Ca0IS 5752   0.250   9.348   2.546
    1CAL  Ca0IT 5753   1.500   8.240   2.852
    1CAL  Ca0IU 5754   1.503   8.841   3.464
    1CAL  Ca0IV 5755   1.502   8.037   3.465
    1CAL  Ca0IW 5756   0.750   8.736   3.160
    1CAL  Ca0IX 5757   1.750   9.539   3.160
    1CAL  Ca0IY 5758   1.250   8.736   3.160
    1CAL  Ca0IZ 5759   0.249   8.334   3.160
    1CAL  Ca0Ia 5760   2.000   9.043   2.851
    1CAL  C00Ib 5761   4.000   1.517   0.089
    1CAL  C00Ic 5762   3.250   0.007   0.396
    1CAL  C00Id 5763   2.250   0.007   0.396
    1CAL  C00Ie 5764   3.499   0.505   0.702
    1CAL  C00If 5765   3.499   1.308   0.702
    1CAL  C00Ig 5766   2.750   0.007   0.396
    1CAL  C00Ih 5767   3.000   0.715   0.089
    1CAL  C00Ii 5768   3.250   1.212   0.393
    1CAL  C00Ij 5769   2.750   1.212   0.394
    1CAL  C00Ik 5770   2.500   0.907   0.703
    1CAL  C00Il 5771   2.500   0.313   0.089
    1CAL  C00Im 5772   3.000   1.117   0.089
    1CAL  C00In 5773   3.000   0.313   0.089
    1CAL  C00Io 5774   2.250   0.410   0.396
    1CAL  C00Ip 5775   2.500   0.103   0.703
    1CAL  C00Iq 5776   3.000   0.907   0.702
    1CAL  C00Ir 5777   3.750   0.007   0.396
    1CAL  C00Is 5778   3.500   0.103   0.703
    1CAL  C00It 5779   2.250   0.812   0.396
    1CAL  C00Iu 5780   3.999   0.505   0.703
    1CAL  C00Iv 5781   4.000   0.907   0.702
    1CAL  C00Iw 5782   4.000   0.313   0.089
    1CAL  C00Ix 5783   4.000   1.117   0.089
    1CAL  C00Iy 5784   2.250   1.212   0.394
    1CAL  C00Iz 5785   2.499   0.505   0.702
    1CAL  C00J0 5786   3.500   0.715   0.089
    1CAL  C00J1 5787   4.000   0.715   0.089
    1CAL  C00J2 5788   3.750   0.410   0.396
    1CAL  C00J3 5789   3.250   0.410   0.396
    1CAL  C00J4 5790   3.500   0.313   0.089
    1CAL  C00J5 5791   3.500   0.907   0.702
    1CAL  C00J6 5792   2.498   1.308   0.702
    1CAL  C00J7 5793   3.500   1.517   0.089
    1CAL  C00J8 5794   2.750   0.410   0.396
    1CAL  C00J9 5795   3.250   0.812   0.396
    1CAL  C00JA 5796   2.500   1.117   0.089
    1CAL  C00JB 5797   3.750   1.212   0.393
    1CAL  C00JC 5798   3.000   1.517   0.089
    1CAL  C00JD 5799   3.999   1.308   0.703
    1CAL  C00JE 5800   3.000   0.103   0.702
    1CAL  C00JF 5801   2.999   1.308   0.702
    1CAL  C00JG 5802   2.999   0.505   0.703
    1CAL  C00JH 5803   3.750   0.812   0.396
    1CAL  C00JI 5804   2.500   1.517   0.089
    1CAL  C00JJ 5805   3.500   1.117   0.089
    1CAL  C00JK 5806   2.500   0.715   0.089
    1CAL  C00JL 5807   2.750   0.812   0.396
    1CAL  C00JM 5808   4.000   0.103   0.703
    1CAL  C00JN 5809   2.751   0.603   1.013
    1CAL  C00JO 5810   2.747   0.202   1.013
    1CAL  C00JP 5811   2.747   1.005   1.012
    1CAL  C00JQ 5812   2.751   1.406   1.013
    1CAL  C00JR 5813   3.751   0.603   1.013
    1CAL  C00JS 5814   3.747   0.202   1.013
    1CAL  C00JT 5815   3.751   1.406   1.013
    1CAL  C00JU 5816   3.748   1.005   1.012
    1CAL  C00JV 5817   3.251   1.406   1.013
    1CAL  C00JW 5818   3.248   1.004   1.013
    1CAL  C00JX 5819   3.251   0.603   1.013
    1CAL  C00JY 5820   3.247   0.201   1.014
    1CAL  C00JZ 5821   2.251   1.406   1.014
    1CAL  C00Ja 5822   2.248   1.004   1.014
    1CAL  C00Jb 5823   2.251   0.604   1.013
    1CAL  C00Jc 5824   2.247   0.201   1.015
    1CAL  O00tl 5825   2.185   0.734   0.475
    1CAL  O00tm 5826   3.186   0.891   0.317
    1CAL  O00tn 5827   3.185   0.734   0.475
    1CAL  O00to 5828   3.379   0.812   0.397
    1CAL  O00tp 5829   2.564   1.438   0.168
    1CAL  O00tq 5830   2.371   1.518   0.088
    1CAL  O00tr 5831   2.564   0.794   0.010
    1CAL  O00ts 5832   2.686   0.891   0.317
    1CAL  O00tt 5833   2.685   0.734   0.475
    1CAL  O00tu 5834   2.879   0.812   0.397
    1CAL  O00tv 5835   2.565   1.595   0.010
    1CAL  O00tw 5836   2.564   0.637   0.168
    1CAL  O00tx 5837   2.371   0.715   0.089
    1CAL  O00ty 5838   3.128   1.307   0.703
    1CAL  O00tz 5839   2.935   1.386   0.622
    1CAL  O00u0 5840   2.936   0.584   0.622
    1CAL  O00u1 5841   2.933   0.427   0.782
    1CAL  O00u2 5842   3.128   0.504   0.704
    1CAL  O00u3 5843   2.933   1.230   0.782
    1CAL  O00u4 5844   2.621   0.410   0.396
    1CAL  O00u5 5845   3.063   0.986   0.622
    1CAL  O00u6 5846   3.122   1.212   0.393
    1CAL  O00u7 5847   3.314   1.133   0.473
    1CAL  O00u8 5848   3.315   1.290   0.315
    1CAL  O00u9 5849   2.436   0.234   0.168
    1CAL  O00uA 5850   2.435   0.391   0.010
    1CAL  O00uB 5851   2.621   1.212   0.393
    1CAL  O00uC 5852   2.814   1.133   0.473
    1CAL  O00uD 5853   2.815   1.290   0.315
    1CAL  O00uE 5854   2.314   0.489   0.317
    1CAL  O00uF 5855   2.814   0.331   0.475
    1CAL  O00uG 5856   2.936   1.196   0.009
    1CAL  O00uH 5857   3.129   1.117   0.089
    1CAL  O00uI 5858   2.314   0.331   0.476
    1CAL  O00uJ 5859   2.121   0.410   0.396
    1CAL  O00uK 5860   2.814   0.489   0.317
    1CAL  O00uL 5861   2.936   0.392   0.009
    1CAL  O00uM 5862   2.936   0.234   0.168
    1CAL  O00uN 5863   3.129   0.313   0.089
    1CAL  O00uO 5864   2.870   0.906   0.703
    1CAL  O00uP 5865   3.066   0.829   0.781
    1CAL  O00uQ 5866   2.935   1.039   0.168
    1CAL  O00uR 5867   3.686   0.891   0.317
    1CAL  O00uS 5868   3.685   0.734   0.475
    1CAL  O00uT 5869   3.879   0.812   0.397
    1CAL  O00uU 5870   3.934   1.229   0.782
    1CAL  O00uV 5871   3.936   0.584   0.623
    1CAL  O00uW 5872   3.934   0.426   0.782
    1CAL  O00uX 5873   2.128   1.307   0.704
    1CAL  O00uY 5874   2.064   0.182   0.623
    1CAL  O00uZ 5875   3.436   1.196   0.009
    1CAL  O00ua 5876   3.435   1.039   0.168
    1CAL  O00ub 5877   3.629   1.117   0.089
    1CAL  O00uc 5878   2.065   0.025   0.783
    1CAL  O00ud 5879   3.434   1.230   0.782
    1CAL  O00ue 5880   2.065   1.595   0.010
    1CAL  O00uf 5881   2.064   1.438   0.168
    1CAL  O00ug 5882   2.871   1.518   0.088
    1CAL  O00uh 5883   3.871   0.906   0.704
    1CAL  O00ui 5884   3.936   0.234   0.168
    1CAL  O00uj 5885   3.064   0.182   0.623
    1CAL  O00uk 5886   2.436   1.196   0.009
    1CAL  O00ul 5887   2.435   1.039   0.168
    1CAL  O00um 5888   2.629   1.117   0.089
    1CAL  O00un 5889   3.065   0.024   0.782
    1CAL  O00uo 5890   2.433   1.230   0.782
    1CAL  O00up 5891   2.871   0.103   0.703
    1CAL  O00uq 5892   3.872   0.715   0.089
    1CAL  O00ur 5893   3.065   1.595   0.010
    1CAL  O00us 5894   3.064   1.438   0.168
    1CAL  O00ut 5895   3.622   1.212   0.393
    1CAL  O00uu 5896   3.814   1.133   0.473
    1CAL  O00uv 5897   3.815   1.290   0.314
    1CAL  O00uw 5898   3.937   1.196   0.009
    1CAL  O00ux 5899   3.935   1.039   0.168
    1CAL  O00uy 5900   3.936   0.392   0.009
    1CAL  O00uz 5901   2.629   0.313   0.088
    1CAL  O00v0 5902   2.379   0.812   0.397
    1CAL  O00v1 5903   2.370   0.906   0.706
    1CAL  O00v2 5904   3.065   0.637   0.168
    1CAL  O00v3 5905   3.564   1.438   0.168
    1CAL  O00v4 5906   3.565   1.595   0.010
    1CAL  O00v5 5907   3.622   0.410   0.396
    1CAL  O00v6 5908   3.815   0.331   0.475
    1CAL  O00v7 5909   3.372   1.518   0.088
    1CAL  O00v8 5910   3.121   0.410   0.396
    1CAL  O00v9 5911   3.314   0.489   0.317
    1CAL  O00vA 5912   2.628   1.307   0.703
    1CAL  O00vB 5913   3.436   0.391   0.010
    1CAL  O00vC 5914   3.436   0.234   0.168
    1CAL  O00vD 5915   3.629   0.313   0.088
    1CAL  O00vE 5916   3.371   0.906   0.705
    1CAL  O00vF 5917   3.566   0.829   0.781
    1CAL  O00vG 5918   3.315   0.331   0.475
    1CAL  O00vH 5919   3.563   0.987   0.622
    1CAL  O00vI 5920   2.065   0.637   0.168
    1CAL  O00vJ 5921   3.565   0.637   0.168
    1CAL  O00vK 5922   2.186   0.891   0.317
    1CAL  O00vL 5923   2.063   0.987   0.622
    1CAL  O00vM 5924   2.065   0.829   0.782
    1CAL  O00vN 5925   2.128   0.504   0.704
    1CAL  O00vO 5926   2.129   0.313   0.089
    1CAL  O00vP 5927   2.128   1.117   0.089
    1CAL  O00vQ 5928   3.564   0.794   0.010
    1CAL  O00vR 5929   2.315   1.290   0.315
    1CAL  O00vS 5930   3.872   1.518   0.088
    1CAL  O00vT 5931   3.871   0.103   0.704
    1CAL  O00vU 5932   2.121   1.212   0.393
    1CAL  O00vV 5933   3.935   1.386   0.622
    1CAL  O00vW 5934   2.064   0.794   0.010
    1CAL  O00vX 5935   3.372   0.715   0.089
    1CAL  O00vY 5936   2.314   1.133   0.473
    1CAL  O00vZ 5937   2.434   1.387   0.622
    1CAL  O00va 5938   2.628   0.504   0.703
    1CAL  O00vb 5939   3.371   0.102   0.705
    1CAL  O00vc 5940   3.436   0.584   0.622
    1CAL  O00vd 5941   3.434   0.427   0.782
    1CAL  O00ve 5942   3.629   0.504   0.703
    1CAL  O00vf 5943   2.879   0.007   0.396
    1CAL  O00vg 5944   2.686   1.535   0.475
    1CAL  O00vh 5945   3.434   1.386   0.622
    1CAL  O00vi 5946   3.628   1.307   0.702
    1CAL  O00vj 5947   2.686   0.086   0.317
    1CAL  O00vk 5948   2.563   0.182   0.623
    1CAL  O00vl 5949   2.566   0.025   0.782
    1CAL  O00vm 5950   2.370   0.103   0.705
    1CAL  O00vn 5951   2.562   0.987   0.622
    1CAL  O00vo 5952   2.567   0.829   0.782
    1CAL  O00vp 5953   2.871   0.715   0.089
    1CAL  O00vq 5954   3.566   0.024   0.782
    1CAL  O00vr 5955   3.564   0.182   0.623
    1CAL  O00vs 5956   2.433   0.427   0.782
    1CAL  O00vt 5957   2.435   0.585   0.623
    1CAL  O00vu 5958   3.686   0.086   0.317
    1CAL  O00vv 5959   3.686   1.535   0.475
    1CAL  O00vw 5960   3.879   0.007   0.396
    1CAL  O00vx 5961   2.379   0.008   0.396
    1CAL  O00vy 5962   2.186   1.535   0.475
    1CAL  O00vz 5963   2.185   0.086   0.317
    1CAL  O00w0 5964   3.186   0.086   0.317
    1CAL  O00w1 5965   3.186   1.535   0.475
    1CAL  O00w2 5966   3.379   0.008   0.396
    1CAL  O00w3 5967   3.064   0.794   0.010
    1CAL  O00w4 5968   3.815   0.489   0.317
    1CAL  O00w5 5969   2.820   1.480   0.931
    1CAL  O00w6 5970   2.811   1.328   1.097
    1CAL  O00w7 5971   2.621   1.412   1.011
    1CAL  O00w8 5972   2.678   1.079   0.930
    1CAL  O00w9 5973   2.687   0.928   1.096
    1CAL  O00wA 5974   2.877   1.010   1.009
    1CAL  O00wB 5975   2.877   0.207   1.010
    1CAL  O00wC 5976   2.687   0.124   1.097
    1CAL  O00wD 5977   2.678   0.275   0.931
    1CAL  O00wE 5978   2.621   0.609   1.010
    1CAL  O00wF 5979   2.811   0.525   1.096
    1CAL  O00wG 5980   2.820   0.677   0.931
    1CAL  O00wH 5981   3.679   1.079   0.930
    1CAL  O00wI 5982   3.877   1.010   1.010
    1CAL  O00wJ 5983   3.687   0.927   1.096
    1CAL  O00wK 5984   3.622   1.411   1.010
    1CAL  O00wL 5985   3.811   1.328   1.096
    1CAL  O00wM 5986   3.820   1.480   0.931
    1CAL  O00wN 5987   3.678   0.275   0.931
    1CAL  O00wO 5988   3.877   0.207   1.010
    1CAL  O00wP 5989   3.687   0.124   1.097
    1CAL  O00wQ 5990   3.621   0.608   1.010
    1CAL  O00wR 5991   3.811   0.525   1.096
    1CAL  O00wS 5992   3.820   0.677   0.931
    1CAL  O00wT 5993   3.311   1.328   1.097
    1CAL  O00wU 5994   3.121   1.411   1.011
    1CAL  O00wV 5995   3.320   1.479   0.931
    1CAL  O00wW 5996   3.179   1.078   0.931
    1CAL  O00wX 5997   3.188   0.926   1.097
    1CAL  O00wY 5998   3.378   1.010   1.011
    1CAL  O00wZ 5999   3.311   0.525   1.097
    1CAL  O00wa 6000   3.320   0.676   0.931
    1CAL  O00wb 6001   3.121   0.609   1.010
    1CAL  O00wc 6002   3.179   0.275   0.932
    1CAL  O00wd 6003   3.187   0.123   1.097
    1CAL  O00we 6004   3.377   0.207   1.012
    1CAL  O00wf 6005   2.310   1.328   1.098
    1CAL  O00wg 6006   2.121   1.412   1.011
    1CAL  O00wh 6007   2.320   1.479   0.932
    1CAL  O00wi 6008   2.179   1.078   0.932
    1CAL  O00wj 6009   2.188   0.926   1.097
    1CAL  O00wk 6010   2.378   1.010   1.013
    1CAL  O00wl 6011   2.310   0.526   1.098
    1CAL  O00wm 6012   2.121   0.609   1.010
    1CAL  O00wn 6013   2.320   0.677   0.931
    1CAL  O00wo 6014   2.377   0.207   1.013
    1CAL  O00wp 6015   2.187   0.123   1.098
    1CAL  O00wq 6016   2.179   0.275   0.933
    1CAL  Ca0Ib 6017   3.002   0.810   1.008
    1CAL  Ca0Ic 6018   3.750   0.514   0.089
    1CAL  Ca0Id 6019   3.496   1.211   1.009
    1CAL  Ca0Ie 6020   2.002   0.810   1.009
    1CAL  Ca0If 6021   2.750   1.507   0.704
    1CAL  Ca0Ig 6022   3.750   0.916   0.089
    1CAL  Ca0Ih 6023   3.500   0.611   0.396
    1CAL  Ca0Ii 6024   3.500   1.413   0.396
    1CAL  Ca0Ij 6025   2.249   1.106   0.703
    1CAL  Ca0Ik 6026   3.000   1.413   0.396
    1CAL  Ca0Il 6027   2.502   0.007   1.009
    1CAL  Ca0Im 6028   2.250   0.514   0.089
    1CAL  Ca0In 6029   2.250   0.705   0.704
    1CAL  Ca0Io 6030   3.997   0.408   1.009
    1CAL  Ca0Ip 6031   3.997   1.211   1.009
    1CAL  Ca0Iq 6032   3.749   1.106   0.702
    1CAL  Ca0Ir 6033   3.250   0.112   0.089
    1CAL  Ca0Is 6034   4.000   1.413   0.396
    1CAL  Ca0It 6035   3.750   0.112   0.089
    1CAL  Ca0Iu 6036   2.495   0.409   1.009
    1CAL  Ca0Iv 6037   2.002   0.007   1.010
    1CAL  Ca0Iw 6038   3.751   0.705   0.704
    1CAL  Ca0Ix 6039   2.250   0.916   0.089
    1CAL  Ca0Iy 6040   4.000   0.611   0.396
    1CAL  Ca0Iz 6041   3.500   1.012   0.395
    1CAL  Ca0J0 6042   2.250   1.508   0.704
    1CAL  Ca0J1 6043   3.750   1.317   0.090
    1CAL  Ca0J2 6044   2.500   1.012   0.395
    1CAL  Ca0J3 6045   2.496   1.212   1.009
    1CAL  Ca0J4 6046   4.000   0.209   0.396
    1CAL  Ca0J5 6047   2.500   1.413   0.396
    1CAL  Ca0J6 6048   3.496   0.408   1.009
    1CAL  Ca0J7 6049   3.250   0.916   0.089
    1CAL  Ca0J8 6050   2.750   0.916   0.089
    1CAL  Ca0J9 6051   3.000   0.209   0.396
    1CAL  Ca0JA 6052   3.000   1.012   0.395
    1CAL  Ca0JB 6053   2.500   0.611   0.396
    1CAL  Ca0JC 6054   3.000   0.611   0.396
    1CAL  Ca0JD 6055   2.749   1.106   0.703
    1CAL  Ca0JE 6056   2.250   0.112   0.089
    1CAL  Ca0JF 6057   2.750   0.514   0.089
    1CAL  Ca0JG 6058   3.250   0.514   0.089
    1CAL  Ca0JH 6059   3.249   1.106   0.703
    1CAL  Ca0JI 6060   3.250   1.507   0.704
    1CAL  Ca0JJ 6061   3.749   0.303   0.704
    1CAL  Ca0JK 6062   3.002   0.007   1.009
    1CAL  Ca0JL 6063   2.748   0.303   0.704
    1CAL  Ca0JM 6064   2.503   0.810   1.008
    1CAL  Ca0JN 6065   2.500   0.209   0.396
    1CAL  Ca0JO 6066   2.750   0.112   0.089
    1CAL  Ca0JP 6067   3.250   1.317   0.090
    1CAL  Ca0JQ 6068   3.249   0.303   0.704
    1CAL  Ca0JR 6069   2.996   0.408   1.009
    1CAL  Ca0JS 6070   2.750   1.317   0.090
    1CAL  Ca0JT 6071   2.996   1.211   1.009
    1CAL  Ca0JU 6072   2.250   1.317   0.090
    1CAL  Ca0JV 6073   3.500   0.209   0.396
    1CAL  Ca0JW 6074   3.503   0.810   1.008
    1CAL  Ca0JX 6075   3.502   0.006   1.009
    1CAL  Ca0JY 6076   2.750   0.705   0.704
    1CAL  Ca0JZ 6077   3.750   1.508   0.704
    1CAL  Ca0Ja 6078   3.250   0.705   0.704
    1CAL  Ca0Jb 6079   2.249   0.303   0.704
    1CAL  Ca0Jc 6080   4.000   1.012   0.395
    1CAL  C00Jd 6081   4.000   1.517   1.317
    1CAL  C00Je 6082   3.250   0.007   1.624
    1CAL  C00Jf 6083   2.250   0.007   1.624
    1CAL  C00Jg 6084   3.499   0.505   1.930
    1CAL  C00Jh 6085   3.499   1.308   1.930
    1CAL  C00Ji 6086   2.750   0.007   1.624
    1CAL  C00Jj 6087   3.000   0.715   1.317
    1CAL  C00Jk 6088   3.250   1.212   1.621
    1CAL  C00Jl 6089   2.750   1.212   1.622
    1CAL  C00Jm 6090   2.500   0.907   1.931
    1CAL  C00Jn 6091   2.500   0.313   1.317
    1CAL  C00Jo 6092   3.000   1.117   1.317
    1CAL  C00Jp 6093   3.000   0.313   1.317
    1CAL  C00Jq 6094   2.250   0.410   1.624
    1CAL  C00Jr 6095   2.500   0.103   1.931
    1CAL  C00Js 6096   3.000   0.907   1.930
    1CAL  C00Jt 6097   3.750   0.007   1.624
    1CAL  C00Ju 6098   3.500   0.103   1.931
    1CAL  C00Jv 6099   2.250   0.812   1.624
    1CAL  C00Jw 6100   3.999   0.505   1.931
    1CAL  C00Jx 6101   4.000   0.907   1.930
    1CAL  C00Jy 6102   4.000   0.313   1.317
    1CAL  C00Jz 6103   4.000   1.117   1.317
    1CAL  C00K0 6104   2.250   1.212   1.622
    1CAL  C00K1 6105   2.499   0.505   1.930
    1CAL  C00K2 6106   3.500   0.715   1.317
    1CAL  C00K3 6107   4.000   0.715   1.317
    1CAL  C00K4 6108   3.750   0.410   1.624
    1CAL  C00K5 6109   3.250   0.410   1.624
    1CAL  C00K6 6110   3.500   0.313   1.317
    1CAL  C00K7 6111   3.500   0.907   1.930
    1CAL  C00K8 6112   2.498   1.308   1.930
    1CAL  C00K9 6113   3.500   1.517   1.317
    1CAL  C00KA 6114   2.750   0.410   1.624
    1CAL  C00KB 6115   3.250   0.812   1.624
    1CAL  C00KC 6116   2.500   1.117   1.317
    1CAL  C00KD 6117   3.750   1.212   1.621
    1CAL  C00KE 6118   3.000   1.517   1.317
    1CAL  C00KF 6119   3.999   1.308   1.931
    1CAL  C00KG 6120   3.000   0.103   1.930
    1CAL  C00KH 6121   2.999   1.308   1.930
    1CAL  C00KI 6122   2.999   0.505   1.931
    1CAL  C00KJ 6123   3.750   0.812   1.624
    1CAL  C00KK 6124   2.500   1.517   1.317
    1CAL  C00KL 6125   3.500   1.117   1.317
    1CAL  C00KM 6126   2.500   0.715   1.317
    1CAL  C00KN 6127   2.750   0.812   1.624
    1CAL  C00KO 6128   4.000   0.103   1.931
    1CAL  C00KP 6129   2.751   0.603   2.241
    1CAL  C00KQ 6130   2.747   0.202   2.241
    1CAL  C00KR 6131   2.747   1.005   2.240
    1CAL  C00KS 6132   2.751   1.406   2.241
    1CAL  C00KT 6133   3.751   0.603   2.241
    1CAL  C00KU 6134   3.747   0.202   2.241
    1CAL  C00KV 6135   3.751   1.406   2.241
    1CAL  C00KW 6136   3.748   1.005   2.240
    1CAL  C00KX 6137   3.251   1.406   2.241
    1CAL  C00KY 6138   3.248   1.004   2.241
    1CAL  C00KZ 6139   3.251   0.603   2.241
    1CAL  C00Ka 6140   3.247   0.201   2.242
    1CAL  C00Kb 6141   2.251   1.406   2.242
    1CAL  C00Kc 6142   2.248   1.004   2.242
    1CAL  C00Kd 6143   2.251   0.604   2.241
    1CAL  C00Ke 6144   2.247   0.201   2.243
    1CAL  O00wr 6145   2.185   0.734   1.703
    1CAL  O00ws 6146   3.186   0.891   1.545
    1CAL  O00wt 6147   3.185   0.734   1.703
    1CAL  O00wu 6148   3.379   0.812   1.625
    1CAL  O00wv 6149   2.564   1.438   1.396
    1CAL  O00ww 6150   2.371   1.518   1.316
    1CAL  O00wx 6151   2.564   0.794   1.238
    1CAL  O00wy 6152   2.686   0.891   1.545
    1CAL  O00wz 6153   2.685   0.734   1.703
    1CAL  O00x0 6154   2.879   0.812   1.625
    1CAL  O00x1 6155   2.565   1.595   1.238
    1CAL  O00x2 6156   2.564   0.637   1.396
    1CAL  O00x3 6157   2.371   0.715   1.317
    1CAL  O00x4 6158   3.128   1.307   1.931
    1CAL  O00x5 6159   2.935   1.386   1.850
    1CAL  O00x6 6160   2.936   0.584   1.850
    1CAL  O00x7 6161   2.933   0.427   2.010
    1CAL  O00x8 6162   3.128   0.504   1.932
    1CAL  O00x9 6163   2.933   1.230   2.010
    1CAL  O00xA 6164   2.621   0.410   1.624
    1CAL  O00xB 6165   3.063   0.986   1.850
    1CAL  O00xC 6166   3.122   1.212   1.621
    1CAL  O00xD 6167   3.314   1.133   1.701
    1CAL  O00xE 6168   3.315   1.290   1.543
    1CAL  O00xF 6169   2.436   0.234   1.396
    1CAL  O00xG 6170   2.435   0.391   1.238
    1CAL  O00xH 6171   2.621   1.212   1.621
    1CAL  O00xI 6172   2.814   1.133   1.701
    1CAL  O00xJ 6173   2.815   1.290   1.543
    1CAL  O00xK 6174   2.314   0.489   1.545
    1CAL  O00xL 6175   2.814   0.331   1.703
    1CAL  O00xM 6176   2.936   1.196   1.237
    1CAL  O00xN 6177   3.129   1.117   1.317
    1CAL  O00xO 6178   2.314   0.331   1.704
    1CAL  O00xP 6179   2.121   0.410   1.624
    1CAL  O00xQ 6180   2.814   0.489   1.545
    1CAL  O00xR 6181   2.936   0.392   1.237
    1CAL  O00xS 6182   2.936   0.234   1.396
    1CAL  O00xT 6183   3.129   0.313   1.317
    1CAL  O00xU 6184   2.870   0.906   1.931
    1CAL  O00xV 6185   3.066   0.829   2.009
    1CAL  O00xW 6186   2.935   1.039   1.396
    1CAL  O00xX 6187   3.686   0.891   1.545
    1CAL  O00xY 6188   3.685   0.734   1.703
    1CAL  O00xZ 6189   3.879   0.812   1.625
    1CAL  O00xa 6190   3.934   1.229   2.010
    1CAL  O00xb 6191   3.936   0.584   1.851
    1CAL  O00xc 6192   3.934   0.426   2.010
    1CAL  O00xd 6193   2.128   1.307   1.932
    1CAL  O00xe 6194   2.064   0.182   1.851
    1CAL  O00xf 6195   3.436   1.196   1.237
    1CAL  O00xg 6196   3.435   1.039   1.396
    1CAL  O00xh 6197   3.629   1.117   1.317
    1CAL  O00xi 6198   2.065   0.025   2.011
    1CAL  O00xj 6199   3.434   1.230   2.010
    1CAL  O00xk 6200   2.065   1.595   1.238
    1CAL  O00xl 6201   2.064   1.438   1.396
    1CAL  O00xm 6202   2.871   1.518   1.316
    1CAL  O00xn 6203   3.871   0.906   1.932
    1CAL  O00xo 6204   3.936   0.234   1.396
    1CAL  O00xp 6205   3.064   0.182   1.851
    1CAL  O00xq 6206   2.436   1.196   1.237
    1CAL  O00xr 6207   2.435   1.039   1.396
    1CAL  O00xs 6208   2.629   1.117   1.317
    1CAL  O00xt 6209   3.065   0.024   2.010
    1CAL  O00xu 6210   2.433   1.230   2.010
    1CAL  O00xv 6211   2.871   0.103   1.931
    1CAL  O00xw 6212   3.872   0.715   1.317
    1CAL  O00xx 6213   3.065   1.595   1.238
    1CAL  O00xy 6214   3.064   1.438   1.396
    1CAL  O00xz 6215   3.622   1.212   1.621
    1CAL  O00y0 6216   3.814   1.133   1.701
    1CAL  O00y1 6217   3.815   1.290   1.542
    1CAL  O00y2 6218   3.937   1.196   1.237
    1CAL  O00y3 6219   3.935   1.039   1.396
    1CAL  O00y4 6220   3.936   0.392   1.237
    1CAL  O00y5 6221   2.629   0.313   1.316
    1CAL  O00y6 6222   2.379   0.812   1.625
    1CAL  O00y7 6223   2.370   0.906   1.934
    1CAL  O00y8 6224   3.065   0.637   1.396
    1CAL  O00y9 6225   3.564   1.438   1.396
    1CAL  O00yA 6226   3.565   1.595   1.238
    1CAL  O00yB 6227   3.622   0.410   1.624
    1CAL  O00yC 6228   3.815   0.331   1.703
    1CAL  O00yD 6229   3.372   1.518   1.316
    1CAL  O00yE 6230   3.121   0.410   1.624
    1CAL  O00yF 6231   3.314   0.489   1.545
    1CAL  O00yG 6232   2.628   1.307   1.931
    1CAL  O00yH 6233   3.436   0.391   1.238
    1CAL  O00yI 6234   3.436   0.234   1.396
    1CAL  O00yJ 6235   3.629   0.313   1.316
    1CAL  O00yK 6236   3.371   0.906   1.933
    1CAL  O00yL 6237   3.566   0.829   2.009
    1CAL  O00yM 6238   3.315   0.331   1.703
    1CAL  O00yN 6239   3.563   0.987   1.850
    1CAL  O00yO 6240   2.065   0.637   1.396
    1CAL  O00yP 6241   3.565   0.637   1.396
    1CAL  O00yQ 6242   2.186   0.891   1.545
    1CAL  O00yR 6243   2.063   0.987   1.850
    1CAL  O00yS 6244   2.065   0.829   2.010
    1CAL  O00yT 6245   2.128   0.504   1.932
    1CAL  O00yU 6246   2.129   0.313   1.317
    1CAL  O00yV 6247   2.128   1.117   1.317
    1CAL  O00yW 6248   3.564   0.794   1.238
    1CAL  O00yX 6249   2.315   1.290   1.543
    1CAL  O00yY 6250   3.872   1.518   1.316
    1CAL  O00yZ 6251   3.871   0.103   1.932
    1CAL  O00ya 6252   2.121   1.212   1.621
    1CAL  O00yb 6253   3.935   1.386   1.850
    1CAL  O00yc 6254   2.064   0.794   1.238
    1CAL  O00yd 6255   3.372   0.715   1.317
    1CAL  O00ye 6256   2.314   1.133   1.701
    1CAL  O00yf 6257   2.434   1.387   1.850
    1CAL  O00yg 6258   2.628   0.504   1.931
    1CAL  O00yh 6259   3.371   0.102   1.933
    1CAL  O00yi 6260   3.436   0.584   1.850
    1CAL  O00yj 6261   3.434   0.427   2.010
    1CAL  O00yk 6262   3.629   0.504   1.931
    1CAL  O00yl 6263   2.879   0.007   1.624
    1CAL  O00ym 6264   2.686   1.535   1.703
    1CAL  O00yn 6265   3.434   1.386   1.850
    1CAL  O00yo 6266   3.628   1.307   1.930
    1CAL  O00yp 6267   2.686   0.086   1.545
    1CAL  O00yq 6268   2.563   0.182   1.851
    1CAL  O00yr 6269   2.566   0.025   2.010
    1CAL  O00ys 6270   2.370   0.103   1.933
    1CAL  O00yt 6271   2.562   0.987   1.850
    1CAL  O00yu 6272   2.567   0.829   2.010
    1CAL  O00yv 6273   2.871   0.715   1.317
    1CAL  O00yw 6274   3.566   0.024   2.010
    1CAL  O00yx 6275   3.564   0.182   1.851
    1CAL  O00yy 6276   2.433   0.427   2.010
    1CAL  O00yz 6277   2.435   0.585   1.851
    1CAL  O00z0 6278   3.686   0.086   1.545
    1CAL  O00z1 6279   3.686   1.535   1.703
    1CAL  O00z2 6280   3.879   0.007   1.624
    1CAL  O00z3 6281   2.379   0.008   1.624
    1CAL  O00z4 6282   2.186   1.535   1.703
    1CAL  O00z5 6283   2.185   0.086   1.545
    1CAL  O00z6 6284   3.186   0.086   1.545
    1CAL  O00z7 6285   3.186   1.535   1.703
    1CAL  O00z8 6286   3.379   0.008   1.624
    1CAL  O00z9 6287   3.064   0.794   1.238
    1CAL  O00zA 6288   3.815   0.489   1.545
    1CAL  O00zB 6289   2.820   1.480   2.159
    1CAL  O00zC 6290   2.811   1.328   2.325
    1CAL  O00zD 6291   2.621   1.412   2.239
    1CAL  O00zE 6292   2.678   1.079   2.158
    1CAL  O00zF 6293   2.687   0.928   2.324
    1CAL  O00zG 6294   2.877   1.010   2.237
    1CAL  O00zH 6295   2.877   0.207   2.238
    1CAL  O00zI 6296   2.687   0.124   2.325
    1CAL  O00zJ 6297   2.678   0.275   2.159
    1CAL  O00zK 6298   2.621   0.609   2.238
    1CAL  O00zL 6299   2.811   0.525   2.324
    1CAL  O00zM 6300   2.820   0.677   2.159
    1CAL  O00zN 6301   3.679   1.079   2.158
    1CAL  O00zO 6302   3.877   1.010   2.238
    1CAL  O00zP 6303   3.687   0.927   2.324
    1CAL  O00zQ 6304   3.622   1.411   2.238
    1CAL  O00zR 6305   3.811   1.328   2.324
    1CAL  O00zS 6306   3.820   1.480   2.159
    1CAL  O00zT 6307   3.678   0.275   2.159
    1CAL  O00zU 6308   3.877   0.207   2.238
    1CAL  O00zV 6309   3.687   0.124   2.325
    1CAL  O00zW 6310   3.621   0.608   2.238
    1CAL  O00zX 6311   3.811   0.525   2.324
    1CAL  O00zY 6312   3.820   0.677   2.159
    1CAL  O00zZ 6313   3.311   1.328   2.325
    1CAL  O00za 6314   3.121   1.411   2.239
    1CAL  O00zb 6315   3.320   1.479   2.159
    1CAL  O00zc 6316   3.179   1.078   2.159
    1CAL  O00zd 6317   3.188   0.926   2.325
    1CAL  O00ze 6318   3.378   1.010   2.239
    1CAL  O00zf 6319   3.311   0.525   2.325
    1CAL  O00zg 6320   3.320   0.676   2.159
    1CAL  O00zh 6321   3.121   0.609   2.238
    1CAL  O00zi 6322   3.179   0.275   2.160
    1CAL  O00zj 6323   3.187   0.123   2.325
    1CAL  O00zk 6324   3.377   0.207   2.240
    1CAL  O00zl 6325   2.310   1.328   2.326
    1CAL  O00zm 6326   2.121   1.412   2.239
    1CAL  O00zn 6327   2.320   1.479   2.160
    1CAL  O00zo 6328   2.179   1.078   2.160
    1CAL  O00zp 6329   2.188   0.926   2.325
    1CAL  O00zq 6330   2.378   1.010   2.241
    1CAL  O00zr 6331   2.310   0.526   2.326
    1CAL  O00zs 6332   2.121   0.609   2.238
    1CAL  O00zt 6333   2.320   0.677   2.159
    1CAL  O00zu 6334   2.377   0.207   2.241
    1CAL  O00zv 6335   2.187   0.123   2.326
    1CAL  O00zw 6336   2.179   0.275   2.161
    1CAL  Ca0Jd 6337   3.002   0.810   2.236
    1CAL  Ca0Je 6338   3.750   0.514   1.317
    1CAL  Ca0Jf 6339   3.496   1.211   2.237
    1CAL  Ca0Jg 6340   2.002   0.810   2.237
    1CAL  Ca0Jh 6341   2.750   1.507   1.932
    1CAL  Ca0Ji 6342   3.750   0.916   1.317
    1CAL  Ca0Jj 6343   3.500   0.611   1.624
    1CAL  Ca0Jk 6344   3.500   1.413   1.624
    1CAL  Ca0Jl 6345   2.249   1.106   1.931
    1CAL  Ca0Jm 6346   3.000   1.413   1.624
    1CAL  Ca0Jn 6347   2.502   0.007   2.237
    1CAL  Ca0Jo 6348   2.250   0.514   1.317
    1CAL  Ca0Jp 6349   2.250   0.705   1.932
    1CAL  Ca0Jq 6350   3.997   0.408   2.237
    1CAL  Ca0Jr 6351   3.997   1.211   2.237
    1CAL  Ca0Js 6352   3.749   1.106   1.930
    1CAL  Ca0Jt 6353   3.250   0.112   1.317
    1CAL  Ca0Ju 6354   4.000   1.413   1.624
    1CAL  Ca0Jv 6355   3.750   0.112   1.317
    1CAL  Ca0Jw 6356   2.495   0.409   2.237
    1CAL  Ca0Jx 6357   2.002   0.007   2.238
    1CAL  Ca0Jy 6358   3.751   0.705   1.932
    1CAL  Ca0Jz 6359   2.250   0.916   1.317
    1CAL  Ca0K0 6360   4.000   0.611   1.624
    1CAL  Ca0K1 6361   3.500   1.012   1.623
    1CAL  Ca0K2 6362   2.250   1.508   1.932
    1CAL  Ca0K3 6363   3.750   1.317   1.318
    1CAL  Ca0K4 6364   2.500   1.012   1.623
    1CAL  Ca0K5 6365   2.496   1.212   2.237
    1CAL  Ca0K6 6366   4.000   0.209   1.624
    1CAL  Ca0K7 6367   2.500   1.413   1.624
    1CAL  Ca0K8 6368   3.496   0.408   2.237
    1CAL  Ca0K9 6369   3.250   0.916   1.317
    1CAL  Ca0KA 6370   2.750   0.916   1.317
    1CAL  Ca0KB 6371   3.000   0.209   1.624
    1CAL  Ca0KC 6372   3.000   1.012   1.623
    1CAL  Ca0KD 6373   2.500   0.611   1.624
    1CAL  Ca0KE 6374   3.000   0.611   1.624
    1CAL  Ca0KF 6375   2.749   1.106   1.931
    1CAL  Ca0KG 6376   2.250   0.112   1.317
    1CAL  Ca0KH 6377   2.750   0.514   1.317
    1CAL  Ca0KI 6378   3.250   0.514   1.317
    1CAL  Ca0KJ 6379   3.249   1.106   1.931
    1CAL  Ca0KK 6380   3.250   1.507   1.932
    1CAL  Ca0KL 6381   3.749   0.303   1.932
    1CAL  Ca0KM 6382   3.002   0.007   2.237
    1CAL  Ca0KN 6383   2.748   0.303   1.932
    1CAL  Ca0KO 6384   2.503   0.810   2.236
    1CAL  Ca0KP 6385   2.500   0.209   1.624
    1CAL  Ca0KQ 6386   2.750   0.112   1.317
    1CAL  Ca0KR 6387   3.250   1.317   1.318
    1CAL  Ca0KS 6388   3.249   0.303   1.932
    1CAL  Ca0KT 6389   2.996   0.408   2.237
    1CAL  Ca0KU 6390   2.750   1.317   1.318
    1CAL  Ca0KV 6391   2.996   1.211   2.237
    1CAL  Ca0KW 6392   2.250   1.317   1.318
    1CAL  Ca0KX 6393   3.500   0.209   1.624
    1CAL  Ca0KY 6394   3.503   0.810   2.236
    1CAL  Ca0KZ 6395   3.502   0.006   2.237
    1CAL  Ca0Ka 6396   2.750   0.705   1.932
    1CAL  Ca0Kb 6397   3.750   1.508   1.932
    1CAL  Ca0Kc 6398   3.250   0.705   1.932
    1CAL  Ca0Kd 6399   2.249   0.303   1.932
    1CAL  Ca0Ke 6400   4.000   1.012   1.623
    1CAL  C00Kf 6401   4.000   1.517   2.545
    1CAL  C00Kg 6402   3.250   0.007   2.852
    1CAL  C00Kh 6403   2.250   0.007   2.852
    1CAL  C00Ki 6404   3.499   0.505   3.158
    1CAL  C00Kj 6405   3.499   1.308   3.158
    1CAL  C00Kk 6406   2.750   0.007   2.852
    1CAL  C00Kl 6407   3.000   0.715   2.545
    1CAL  C00Km 6408   3.250   1.212   2.849
    1CAL  C00Kn 6409   2.750   1.212   2.850
    1CAL  C00Ko 6410   2.500   0.907   3.159
    1CAL  C00Kp 6411   2.500   0.313   2.545
    1CAL  C00Kq 6412   3.000   1.117   2.545
    1CAL  C00Kr 6413   3.000   0.313   2.545
    1CAL  C00Ks 6414   2.250   0.410   2.852
    1CAL  C00Kt 6415   2.500   0.103   3.159
    1CAL  C00Ku 6416   3.000   0.907   3.158
    1CAL  C00Kv 6417   3.750   0.007   2.852
    1CAL  C00Kw 6418   3.500   0.103   3.159
    1CAL  C00Kx 6419   2.250   0.812   2.852
    1CAL  C00Ky 6420   3.999   0.505   3.159
    1CAL  C00Kz 6421   4.000   0.907   3.158
    1CAL  C00L0 6422   4.000   0.313   2.545
    1CAL  C00L1 6423   4.000   1.117   2.545
    1CAL  C00L2 6424   2.250   1.212   2.850
    1CAL  C00L3 6425   2.499   0.505   3.158
    1CAL  C00L4 6426   3.500   0.715   2.545
    1CAL  C00L5 6427   4.000   0.715   2.545
    1CAL  C00L6 6428   3.750   0.410   2.852
    1CAL  C00L7 6429   3.250   0.410   2.852
    1CAL  C00L8 6430   3.500   0.313   2.545
    1CAL  C00L9 6431   3.500   0.907   3.158
    1CAL  C00LA 6432   2.498   1.308   3.158
    1CAL  C00LB 6433   3.500   1.517   2.545
    1CAL  C00LC 6434   2.750   0.410   2.852
    1CAL  C00LD 6435   3.250   0.812   2.852
    1CAL  C00LE 6436   2.500   1.117   2.545
    1CAL  C00LF 6437   3.750   1.212   2.849
    1CAL  C00LG 6438   3.000   1.517   2.545
    1CAL  C00LH 6439   3.999   1.308   3.159
    1CAL  C00LI 6440   3.000   0.103   3.158
    1CAL  C00LJ 6441   2.999   1.308   3.158
    1CAL  C00LK 6442   2.999   0.505   3.159
    1CAL  C00LL 6443   3.750   0.812   2.852
    1CAL  C00LM 6444   2.500   1.517   2.545
    1CAL  C00LN 6445   3.500   1.117   2.545
    1CAL  C00LO 6446   2.500   0.715   2.545
    1CAL  C00LP 6447   2.750   0.812   2.852
    1CAL  C00LQ 6448   4.000   0.103   3.159
    1CAL  C00LR 6449   2.751   0.603   3.469
    1CAL  C00LS 6450   2.747   0.202   3.469
    1CAL  C00LT 6451   2.747   1.005   3.468
    1CAL  C00LU 6452   2.751   1.406   3.469
    1CAL  C00LV 6453   3.751   0.603   3.469
    1CAL  C00LW 6454   3.747   0.202   3.469
    1CAL  C00LX 6455   3.751   1.406   3.469
    1CAL  C00LY 6456   3.748   1.005   3.468
    1CAL  C00LZ 6457   3.251   1.406   3.469
    1CAL  C00La 6458   3.248   1.004   3.469
    1CAL  C00Lb 6459   3.251   0.603   3.469
    1CAL  C00Lc 6460   3.247   0.201   3.470
    1CAL  C00Ld 6461   2.251   1.406   3.470
    1CAL  C00Le 6462   2.248   1.004   3.470
    1CAL  C00Lf 6463   2.251   0.604   3.469
    1CAL  C00Lg 6464   2.247   0.201   3.471
    1CAL  O00zx 6465   2.185   0.734   2.931
    1CAL  O00zy 6466   3.186   0.891   2.773
    1CAL  O00zz 6467   3.185   0.734   2.931
    1CAL  O0100 6468   3.379   0.812   2.853
    1CAL  O0101 6469   2.564   1.438   2.624
    1CAL  O0102 6470   2.371   1.518   2.544
    1CAL  O0103 6471   2.564   0.794   2.466
    1CAL  O0104 6472   2.686   0.891   2.773
    1CAL  O0105 6473   2.685   0.734   2.931
    1CAL  O0106 6474   2.879   0.812   2.853
    1CAL  O0107 6475   2.565   1.595   2.466
    1CAL  O0108 6476   2.564   0.637   2.624
    1CAL  O0109 6477   2.371   0.715   2.545
    1CAL  O010A 6478   3.128   1.307   3.159
    1CAL  O010B 6479   2.935   1.386   3.078
    1CAL  O010C 6480   2.936   0.584   3.078
    1CAL  O010D 6481   2.933   0.427   3.238
    1CAL  O010E 6482   3.128   0.504   3.160
    1CAL  O010F 6483   2.933   1.230   3.238
    1CAL  O010G 6484   2.621   0.410   2.852
    1CAL  O010H 6485   3.063   0.986   3.078
    1CAL  O010I 6486   3.122   1.212   2.849
    1CAL  O010J 6487   3.314   1.133   2.929
    1CAL  O010K 6488   3.315   1.290   2.771
    1CAL  O010L 6489   2.436   0.234   2.624
    1CAL  O010M 6490   2.435   0.391   2.466
    1CAL  O010N 6491   2.621   1.212   2.849
    1CAL  O010O 6492   2.814   1.133   2.929
    1CAL  O010P 6493   2.815   1.290   2.771
    1CAL  O010Q 6494   2.314   0.489   2.773
    1CAL  O010R 6495   2.814   0.331   2.931
    1CAL  O010S 6496   2.936   1.196   2.465
    1CAL  O010T 6497   3.129   1.117   2.545
    1CAL  O010U 6498   2.314   0.331   2.932
    1CAL  O010V 6499   2.121   0.410   2.852
    1CAL  O010W 6500   2.814   0.489   2.773
    1CAL  O010X 6501   2.936   0.392   2.465
    1CAL  O010Y 6502   2.936   0.234   2.624
    1CAL  O010Z 6503   3.129   0.313   2.545
    1CAL  O010a 6504   2.870   0.906   3.159
    1CAL  O010b 6505   3.066   0.829   3.237
    1CAL  O010c 6506   2.935   1.039   2.624
    1CAL  O010d 6507   3.686   0.891   2.773
    1CAL  O010e 6508   3.685   0.734   2.931
    1CAL  O010f 6509   3.879   0.812   2.853
    1CAL  O010g 6510   3.934   1.229   3.238
    1CAL  O010h 6511   3.936   0.584   3.079
    1CAL  O010i 6512   3.934   0.426   3.238
    1CAL  O010j 6513   2.128   1.307   3.160
    1CAL  O010k 6514   2.064   0.182   3.079
    1CAL  O010l 6515   3.436   1.196   2.465
    1CAL  O010m 6516   3.435   1.039   2.624
    1CAL  O010n 6517   3.629   1.117   2.545
    1CAL  O010o 6518   2.065   0.025   3.239
    1CAL  O010p 6519   3.434   1.230   3.238
    1CAL  O010q 6520   2.065   1.595   2.466
    1CAL  O010r 6521   2.064   1.438   2.624
    1CAL  O010s 6522   2.871   1.518   2.544
    1CAL  O010t 6523   3.871   0.906   3.160
    1CAL  O010u 6524   3.936   0.234   2.624
    1CAL  O010v 6525   3.064   0.182   3.079
    1CAL  O010w 6526   2.436   1.196   2.465
    1CAL  O010x 6527   2.435   1.039   2.624
    1CAL  O010y 6528   2.629   1.117   2.545
    1CAL  O010z 6529   3.065   0.024   3.238
    1CAL  O0110 6530   2.433   1.230   3.238
    1CAL  O0111 6531   2.871   0.103   3.159
    1CAL  O0112 6532   3.872   0.715   2.545
    1CAL  O0113 6533   3.065   1.595   2.466
    1CAL  O0114 6534   3.064   1.438   2.624
    1CAL  O0115 6535   3.622   1.212   2.849
    1CAL  O0116 6536   3.814   1.133   2.929
    1CAL  O0117 6537   3.815   1.290   2.770
    1CAL  O0118 6538   3.937   1.196   2.465
    1CAL  O0119 6539   3.935   1.039   2.624
    1CAL  O011A 6540   3.936   0.392   2.465
    1CAL  O011B 6541   2.629   0.313   2.544
    1CAL  O011C 6542   2.379   0.812   2.853
    1CAL  O011D 6543   2.370   0.906   3.162
    1CAL  O011E 6544   3.065   0.637   2.624
    1CAL  O011F 6545   3.564   1.438   2.624
    1CAL  O011G 6546   3.565   1.595   2.466
    1CAL  O011H 6547   3.622   0.410   2.852
    1CAL  O011I 6548   3.815   0.331   2.931
    1CAL  O011J 6549   3.372   1.518   2.544
    1CAL  O011K 6550   3.121   0.410   2.852
    1CAL  O011L 6551   3.314   0.489   2.773
    1CAL  O011M 6552   2.628   1.307   3.159
    1CAL  O011N 6553   3.436   0.391   2.466
    1CAL  O011O 6554   3.436   0.234   2.624
    1CAL  O011P 6555   3.629   0.313   2.544
    1CAL  O011Q 6556   3.371   0.906   3.161
    1CAL  O011R 6557   3.566   0.829   3.237
    1CAL  O011S 6558   3.315   0.331   2.931
    1CAL  O011T 6559   3.563   0.987   3.078
    1CAL  O011U 6560   2.065   0.637   2.624
    1CAL  O011V 6561   3.565   0.637   2.624
    1CAL  O011W 6562   2.186   0.891   2.773
    1CAL  O011X 6563   2.063   0.987   3.078
    1CAL  O011Y 6564   2.065   0.829   3.238
    1CAL  O011Z 6565   2.128   0.504   3.160
    1CAL  O011a 6566   2.129   0.313   2.545
    1CAL  O011b 6567   2.128   1.117   2.545
    1CAL  O011c 6568   3.564   0.794   2.466
    1CAL  O011d 6569   2.315   1.290   2.771
    1CAL  O011e 6570   3.872   1.518   2.544
    1CAL  O011f 6571   3.871   0.103   3.160
    1CAL  O011g 6572   2.121   1.212   2.849
    1CAL  O011h 6573   3.935   1.386   3.078
    1CAL  O011i 6574   2.064   0.794   2.466
    1CAL  O011j 6575   3.372   0.715   2.545
    1CAL  O011k 6576   2.314   1.133   2.929
    1CAL  O011l 6577   2.434   1.387   3.078
    1CAL  O011m 6578   2.628   0.504   3.159
    1CAL  O011n 6579   3.371   0.102   3.161
    1CAL  O011o 6580   3.436   0.584   3.078
    1CAL  O011p 6581   3.434   0.427   3.238
    1CAL  O011q 6582   3.629   0.504   3.159
    1CAL  O011r 6583   2.879   0.007   2.852
    1CAL  O011s 6584   2.686   1.535   2.931
    1CAL  O011t 6585   3.434   1.386   3.078
    1CAL  O011u 6586   3.628   1.307   3.158
    1CAL  O011v 6587   2.686   0.086   2.773
    1CAL  O011w 6588   2.563   0.182   3.079
    1CAL  O011x 6589   2.566   0.025   3.238
    1CAL  O011y 6590   2.370   0.103   3.161
    1CAL  O011z 6591   2.562   0.987   3.078
    1CAL  O0120 6592   2.567   0.829   3.238
    1CAL  O0121 6593   2.871   0.715   2.545
    1CAL  O0122 6594   3.566   0.024   3.238
    1CAL  O0123 6595   3.564   0.182   3.079
    1CAL  O0124 6596   2.433   0.427   3.238
    1CAL  O0125 6597   2.435   0.585   3.079
    1CAL  O0126 6598   3.686   0.086   2.773
    1CAL  O0127 6599   3.686   1.535   2.931
    1CAL  O0128 6600   3.879   0.007   2.852
    1CAL  O0129 6601   2.379   0.008   2.852
    1CAL  O012A 6602   2.186   1.535   2.931
    1CAL  O012B 6603   2.185   0.086   2.773
    1CAL  O012C 6604   3.186   0.086   2.773
    1CAL  O012D 6605   3.186   1.535   2.931
    1CAL  O012E 6606   3.379   0.008   2.852
    1CAL  O012F 6607   3.064   0.794   2.466
    1CAL  O012G 6608   3.815   0.489   2.773
    1CAL  O012H 6609   2.820   1.480   3.387
    1CAL  O012I 6610   2.811   1.328   3.553
    1CAL  O012J 6611   2.621   1.412   3.467
    1CAL  O012K 6612   2.678   1.079   3.386
    1CAL  O012L 6613   2.687   0.928   3.552
    1CAL  O012M 6614   2.877   1.010   3.465
    1CAL  O012N 6615   2.877   0.207   3.466
    1CAL  O012O 6616   2.687   0.124   3.553
    1CAL  O012P 6617   2.678   0.275   3.387
    1CAL  O012Q 6618   2.621   0.609   3.466
    1CAL  O012R 6619   2.811   0.525   3.552
    1CAL  O012S 6620   2.820   0.677   3.387
    1CAL  O012T 6621   3.679   1.079   3.386
    1CAL  O012U 6622   3.877   1.010   3.466
    1CAL  O012V 6623   3.687   0.927   3.552
    1CAL  O012W 6624   3.622   1.411   3.466
    1CAL  O012X 6625   3.811   1.328   3.552
    1CAL  O012Y 6626   3.820   1.480   3.387
    1CAL  O012Z 6627   3.678   0.275   3.387
    1CAL  O012a 6628   3.877   0.207   3.466
    1CAL  O012b 6629   3.687   0.124   3.553
    1CAL  O012c 6630   3.621   0.608   3.466
    1CAL  O012d 6631   3.811   0.525   3.552
    1CAL  O012e 6632   3.820   0.677   3.387
    1CAL  O012f 6633   3.311   1.328   3.553
    1CAL  O012g 6634   3.121   1.411   3.467
    1CAL  O012h 6635   3.320   1.479   3.387
    1CAL  O012i 6636   3.179   1.078   3.387
    1CAL  O012j 6637   3.188   0.926   3.553
    1CAL  O012k 6638   3.378   1.010   3.467
    1CAL  O012l 6639   3.311   0.525   3.553
    1CAL  O012m 6640   3.320   0.676   3.387
    1CAL  O012n 6641   3.121   0.609   3.466
    1CAL  O012o 6642   3.179   0.275   3.388
    1CAL  O012p 6643   3.187   0.123   3.553
    1CAL  O012q 6644   3.377   0.207   3.468
    1CAL  O012r 6645   2.310   1.328   3.554
    1CAL  O012s 6646   2.121   1.412   3.467
    1CAL  O012t 6647   2.320   1.479   3.388
    1CAL  O012u 6648   2.179   1.078   3.388
    1CAL  O012v 6649   2.188   0.926   3.553
    1CAL  O012w 6650   2.378   1.010   3.469
    1CAL  O012x 6651   2.310   0.526   3.554
    1CAL  O012y 6652   2.121   0.609   3.466
    1CAL  O012z 6653   2.320   0.677   3.387
    1CAL  O0130 6654   2.377   0.207   3.469
    1CAL  O0131 6655   2.187   0.123   3.554
    1CAL  O0132 6656   2.179   0.275   3.389
    1CAL  Ca0Kf 6657   3.002   0.810   3.464
    1CAL  Ca0Kg 6658   3.750   0.514   2.545
    1CAL  Ca0Kh 6659   3.496   1.211   3.465
    1CAL  Ca0Ki 6660   2.002   0.810   3.465
    1CAL  Ca0Kj 6661   2.750   1.507   3.160
    1CAL  Ca0Kk 6662   3.750   0.916   2.545
    1CAL  Ca0Kl 6663   3.500   0.611   2.852
    1CAL  Ca0Km 6664   3.500   1.413   2.852
    1CAL  Ca0Kn 6665   2.249   1.106   3.159
    1CAL  Ca0Ko 6666   3.000   1.413   2.852
    1CAL  Ca0Kp 6667   2.502   0.007   3.465
    1CAL  Ca0Kq 6668   2.250   0.514   2.545
    1CAL  Ca0Kr 6669   2.250   0.705   3.160
    1CAL  Ca0Ks 6670   3.997   0.408   3.465
    1CAL  Ca0Kt 6671   3.997   1.211   3.465
    1CAL  Ca0Ku 6672   3.749   1.106   3.158
    1CAL  Ca0Kv 6673   3.250   0.112   2.545
    1CAL  Ca0Kw 6674   4.000   1.413   2.852
    1CAL  Ca0Kx 6675   3.750   0.112   2.545
    1CAL  Ca0Ky 6676   2.495   0.409   3.465
    1CAL  Ca0Kz 6677   2.002   0.007   3.466
    1CAL  Ca0L0 6678   3.751   0.705   3.160
    1CAL  Ca0L1 6679   2.250   0.916   2.545
    1CAL  Ca0L2 6680   4.000   0.611   2.852
    1CAL  Ca0L3 6681   3.500   1.012   2.851
    1CAL  Ca0L4 6682   2.250   1.508   3.160
    1CAL  Ca0L5 6683   3.750   1.317   2.546
    1CAL  Ca0L6 6684   2.500   1.012   2.851
    1CAL  Ca0L7 6685   2.496   1.212   3.465
    1CAL  Ca0L8 6686   4.000   0.209   2.852
    1CAL  Ca0L9 6687   2.500   1.413   2.852
    1CAL  Ca0LA 6688   3.496   0.408   3.465
    1CAL  Ca0LB 6689   3.250   0.916   2.545
    1CAL  Ca0LC 6690   2.750   0.916   2.545
    1CAL  Ca0LD 6691   3.000   0.209   2.852
    1CAL  Ca0LE 6692   3.000   1.012   2.851
    1CAL  Ca0LF 6693   2.500   0.611   2.852
    1CAL  Ca0LG 6694   3.000   0.611   2.852
    1CAL  Ca0LH 6695   2.749   1.106   3.159
    1CAL  Ca0LI 6696   2.250   0.112   2.545
    1CAL  Ca0LJ 6697   2.750   0.514   2.545
    1CAL  Ca0LK 6698   3.250   0.514   2.545
    1CAL  Ca0LL 6699   3.249   1.106   3.159
    1CAL  Ca0LM 6700   3.250   1.507   3.160
    1CAL  Ca0LN 6701   3.749   0.303   3.160
    1CAL  Ca0LO 6702   3.002   0.007   3.465
    1CAL  Ca0LP 6703   2.748   0.303   3.160
    1CAL  Ca0LQ 6704   2.503   0.810   3.464
    1CAL  Ca0LR 6705   2.500   0.209   2.852
    1CAL  Ca0LS 6706   2.750   0.112   2.545
    1CAL  Ca0LT 6707   3.250   1.317   2.546
    1CAL  Ca0LU 6708   3.249   0.303   3.160
    1CAL  Ca0LV 6709   2.996   0.408   3.465
    1CAL  Ca0LW 6710   2.750   1.317   2.546
    1CAL  Ca0LX 6711   2.996   1.211   3.465
    1CAL  Ca0LY 6712   2.250   1.317   2.546
    1CAL  Ca0LZ 6713   3.500   0.209   2.852
    1CAL  Ca0La 6714   3.503   0.810   3.464
    1CAL  Ca0Lb 6715   3.502   0.006   3.465
    1CAL  Ca0Lc 6716   2.750   0.705   3.160
    1CAL  Ca0Ld 6717   3.750   1.508   3.160
    1CAL  Ca0Le 6718   3.250   0.705   3.160
    1CAL  Ca0Lf 6719   2.249   0.303   3.160
    1CAL  Ca0Lg 6720   4.000   1.012   2.851
    1CAL  C00Lh 6721   4.000   3.123   0.089
    1CAL  C00Li 6722   3.250   1.613   0.396
    1CAL  C00Lj 6723   2.250   1.613   0.396
    1CAL  C00Lk 6724   3.499   2.111   0.702
    1CAL  C00Ll 6725   3.499   2.914   0.702
    1CAL  C00Lm 6726   2.750   1.613   0.396
    1CAL  C00Ln 6727   3.000   2.321   0.089
    1CAL  C00Lo 6728   3.250   2.818   0.393
    1CAL  C00Lp 6729   2.750   2.818   0.394
    1CAL  C00Lq 6730   2.500   2.513   0.703
    1CAL  C00Lr 6731   2.500   1.919   0.089
    1CAL  C00Ls 6732   3.000   2.723   0.089
    1CAL  C00Lt 6733   3.000   1.919   0.089
    1CAL  C00Lu 6734   2.250   2.016   0.396
    1CAL  C00Lv 6735   2.500   1.709   0.703
    1CAL  C00Lw 6736   3.000   2.513   0.702
    1CAL  C00Lx 6737   3.750   1.613   0.396
    1CAL  C00Ly 6738   3.500   1.709   0.703
    1CAL  C00Lz 6739   2.250   2.418   0.396
    1CAL  C00M0 6740   3.999   2.111   0.703
    1CAL  C00M1 6741   4.000   2.513   0.702
    1CAL  C00M2 6742   4.000   1.919   0.089
    1CAL  C00M3 6743   4.000   2.723   0.089
    1CAL  C00M4 6744   2.250   2.818   0.394
    1CAL  C00M5 6745   2.499   2.111   0.702
    1CAL  C00M6 6746   3.500   2.321   0.089
    1CAL  C00M7 6747   4.000   2.321   0.089
    1CAL  C00M8 6748   3.750   2.016   0.396
    1CAL  C00M9 6749   3.250   2.016   0.396
    1CAL  C00MA 6750   3.500   1.919   0.089
    1CAL  C00MB 6751   3.500   2.513   0.702
    1CAL  C00MC 6752   2.498   2.914   0.702
    1CAL  C00MD 6753   3.500   3.123   0.089
    1CAL  C00ME 6754   2.750   2.016   0.396
    1CAL  C00MF 6755   3.250   2.418   0.396
    1CAL  C00MG 6756   2.500   2.723   0.089
    1CAL  C00MH 6757   3.750   2.818   0.393
    1CAL  C00MI 6758   3.000   3.123   0.089
    1CAL  C00MJ 6759   3.999   2.914   0.703
    1CAL  C00MK 6760   3.000   1.709   0.702
    1CAL  C00ML 6761   2.999   2.914   0.702
    1CAL  C00MM 6762   2.999   2.111   0.703
    1CAL  C00MN 6763   3.750   2.418   0.396
    1CAL  C00MO 6764   2.500   3.123   0.089
    1CAL  C00MP 6765   3.500   2.723   0.089
    1CAL  C00MQ 6766   2.500   2.321   0.089
    1CAL  C00MR 6767   2.750   2.418   0.396
    1CAL  C00MS 6768   4.000   1.709   0.703
    1CAL  C00MT 6769   2.751   2.209   1.013
    1CAL  C00MU 6770   2.747   1.808   1.013
    1CAL  C00MV 6771   2.747   2.611   1.012
    1CAL  C00MW 6772   2.751   3.012   1.013
    1CAL  C00MX 6773   3.751   2.209   1.013
    1CAL  C00MY 6774   3.747   1.808   1.013
    1CAL  C00MZ 6775   3.751   3.012   1.013
    1CAL  C00Ma 6776   3.748   2.611   1.012
    1CAL  C00Mb 6777   3.251   3.012   1.013
    1CAL  C00Mc 6778   3.248   2.610   1.013
    1CAL  C00Md 6779   3.251   2.209   1.013
    1CAL  C00Me 6780   3.247   1.807   1.014
    1CAL  C00Mf 6781   2.251   3.012   1.014
    1CAL  C00Mg 6782   2.248   2.610   1.014
    1CAL  C00Mh 6783   2.251   2.210   1.013
    1CAL  C00Mi 6784   2.247   1.807   1.015
    1CAL  O0133 6785   2.185   2.340   0.475
    1CAL  O0134 6786   3.186   2.497   0.317
    1CAL  O0135 6787   3.185   2.340   0.475
    1CAL  O0136 6788   3.379   2.418   0.397
    1CAL  O0137 6789   2.564   3.044   0.168
    1CAL  O0138 6790   2.371   3.124   0.088
    1CAL  O0139 6791   2.564   2.400   0.010
    1CAL  O013A 6792   2.686   2.497   0.317
    1CAL  O013B 6793   2.685   2.340   0.475
    1CAL  O013C 6794   2.879   2.418   0.397
    1CAL  O013D 6795   2.565   3.201   0.010
    1CAL  O013E 6796   2.564   2.243   0.168
    1CAL  O013F 6797   2.371   2.321   0.089
    1CAL  O013G 6798   3.128   2.913   0.703
    1CAL  O013H 6799   2.935   2.992   0.622
    1CAL  O013I 6800   2.936   2.190   0.622
    1CAL  O013J 6801   2.933   2.033   0.782
    1CAL  O013K 6802   3.128   2.110   0.704
    1CAL  O013L 6803   2.933   2.836   0.782
    1CAL  O013M 6804   2.621   2.016   0.396
    1CAL  O013N 6805   3.063   2.592   0.622
    1CAL  O013O 6806   3.122   2.818   0.393
    1CAL  O013P 6807   3.314   2.739   0.473
    1CAL  O013Q 6808   3.315   2.896   0.315
    1CAL  O013R 6809   2.436   1.840   0.168
    1CAL  O013S 6810   2.435   1.997   0.010
    1CAL  O013T 6811   2.621   2.818   0.393
    1CAL  O013U 6812   2.814   2.739   0.473
    1CAL  O013V 6813   2.815   2.896   0.315
    1CAL  O013W 6814   2.314   2.095   0.317
    1CAL  O013X 6815   2.814   1.937   0.475
    1CAL  O013Y 6816   2.936   2.802   0.009
    1CAL  O013Z 6817   3.129   2.723   0.089
    1CAL  O013a 6818   2.314   1.937   0.476
    1CAL  O013b 6819   2.121   2.016   0.396
    1CAL  O013c 6820   2.814   2.095   0.317
    1CAL  O013d 6821   2.936   1.998   0.009
    1CAL  O013e 6822   2.936   1.840   0.168
    1CAL  O013f 6823   3.129   1.919   0.089
    1CAL  O013g 6824   2.870   2.512   0.703
    1CAL  O013h 6825   3.066   2.435   0.781
    1CAL  O013i 6826   2.935   2.645   0.168
    1CAL  O013j 6827   3.686   2.497   0.317
    1CAL  O013k 6828   3.685   2.340   0.475
    1CAL  O013l 6829   3.879   2.418   0.397
    1CAL  O013m 6830   3.934   2.835   0.782
    1CAL  O013n 6831   3.936   2.190   0.623
    1CAL  O013o 6832   3.934   2.032   0.782
    1CAL  O013p 6833   2.128   2.913   0.704
    1CAL  O013q 6834   2.064   1.788   0.623
    1CAL  O013r 6835   3.436   2.802   0.009
    1CAL  O013s 6836   3.435   2.645   0.168
    1CAL  O013t 6837   3.629   2.723   0.089
    1CAL  O013u 6838   2.065   1.631   0.783
    1CAL  O013v 6839   3.434   2.836   0.782
    1CAL  O013w 6840   2.065   3.201   0.010
    1CAL  O013x 6841   2.064   3.044   0.168
    1CAL  O013y 6842   2.871   3.124   0.088
    1CAL  O013z 6843   3.871   2.512   0.704
    1CAL  O0140 6844   3.936   1.840   0.168
    1CAL  O0141 6845   3.064   1.788   0.623
    1CAL  O0142 6846   2.436   2.802   0.009
    1CAL  O0143 6847   2.435   2.645   0.168
    1CAL  O0144 6848   2.629   2.723   0.089
    1CAL  O0145 6849   3.065   1.630   0.782
    1CAL  O0146 6850   2.433   2.836   0.782
    1CAL  O0147 6851   2.871   1.709   0.703
    1CAL  O0148 6852   3.872   2.321   0.089
    1CAL  O0149 6853   3.065   3.201   0.010
    1CAL  O014A 6854   3.064   3.044   0.168
    1CAL  O014B 6855   3.622   2.818   0.393
    1CAL  O014C 6856   3.814   2.739   0.473
    1CAL  O014D 6857   3.815   2.896   0.314
    1CAL  O014E 6858   3.937   2.802   0.009
    1CAL  O014F 6859   3.935   2.645   0.168
    1CAL  O014G 6860   3.936   1.998   0.009
    1CAL  O014H 6861   2.629   1.919   0.088
    1CAL  O014I 6862   2.379   2.418   0.397
    1CAL  O014J 6863   2.370   2.512   0.706
    1CAL  O014K 6864   3.065   2.243   0.168
    1CAL  O014L 6865   3.564   3.044   0.168
    1CAL  O014M 6866   3.565   3.201   0.010
    1CAL  O014N 6867   3.622   2.016   0.396
    1CAL  O014O 6868   3.815   1.937   0.475
    1CAL  O014P 6869   3.372   3.124   0.088
    1CAL  O014Q 6870   3.121   2.016   0.396
    1CAL  O014R 6871   3.314   2.095   0.317
    1CAL  O014S 6872   2.628   2.913   0.703
    1CAL  O014T 6873   3.436   1.997   0.010
    1CAL  O014U 6874   3.436   1.840   0.168
    1CAL  O014V 6875   3.629   1.919   0.088
    1CAL  O014W 6876   3.371   2.512   0.705
    1CAL  O014X 6877   3.566   2.435   0.781
    1CAL  O014Y 6878   3.315   1.937   0.475
    1CAL  O014Z 6879   3.563   2.593   0.622
    1CAL  O014a 6880   2.065   2.243   0.168
    1CAL  O014b 6881   3.565   2.243   0.168
    1CAL  O014c 6882   2.186   2.497   0.317
    1CAL  O014d 6883   2.063   2.593   0.622
    1CAL  O014e 6884   2.065   2.435   0.782
    1CAL  O014f 6885   2.128   2.110   0.704
    1CAL  O014g 6886   2.129   1.919   0.089
    1CAL  O014h 6887   2.128   2.723   0.089
    1CAL  O014i 6888   3.564   2.400   0.010
    1CAL  O014j 6889   2.315   2.896   0.315
    1CAL  O014k 6890   3.872   3.124   0.088
    1CAL  O014l 6891   3.871   1.709   0.704
    1CAL  O014m 6892   2.121   2.818   0.393
    1CAL  O014n 6893   3.935   2.992   0.622
    1CAL  O014o 6894   2.064   2.400   0.010
    1CAL  O014p 6895   3.372   2.321   0.089
    1CAL  O014q 6896   2.314   2.739   0.473
    1CAL  O014r 6897   2.434   2.993   0.622
    1CAL  O014s 6898   2.628   2.110   0.703
    1CAL  O014t 6899   3.371   1.708   0.705
    1CAL  O014u 6900   3.436   2.190   0.622
    1CAL  O014v 6901   3.434   2.033   0.782
    1CAL  O014w 6902   3.629   2.110   0.703
    1CAL  O014x 6903   2.879   1.613   0.396
    1CAL  O014y 6904   2.686   3.141   0.475
    1CAL  O014z 6905   3.434   2.992   0.622
    1CAL  O0150 6906   3.628   2.913   0.702
    1CAL  O0151 6907   2.686   1.692   0.317
    1CAL  O0152 6908   2.563   1.788   0.623
    1CAL  O0153 6909   2.566   1.631   0.782
    1CAL  O0154 6910   2.370   1.709   0.705
    1CAL  O0155 6911   2.562   2.593   0.622
    1CAL  O0156 6912   2.567   2.435   0.782
    1CAL  O0157 6913   2.871   2.321   0.089
    1CAL  O0158 6914   3.566   1.630   0.782
    1CAL  O0159 6915   3.564   1.788   0.623
    1CAL  O015A 6916   2.433   2.033   0.782
    1CAL  O015B 6917   2.435   2.191   0.623
    1CAL  O015C 6918   3.686   1.692   0.317
    1CAL  O015D 6919   3.686   3.141   0.475
    1CAL  O015E 6920   3.879   1.613   0.396
    1CAL  O015F 6921   2.379   1.614   0.396
    1CAL  O015G 6922   2.186   3.141   0.475
    1CAL  O015H 6923   2.185   1.692   0.317
    1CAL  O015I 6924   3.186   1.692   0.317
    1CAL  O015J 6925   3.186   3.141   0.475
    1CAL  O015K 6926   3.379   1.614   0.396
    1CAL  O015L 6927   3.064   2.400   0.010
    1CAL  O015M 6928   3.815   2.095   0.317
    1CAL  O015N 6929   2.820   3.086   0.931
    1CAL  O015O 6930   2.811   2.934   1.097
    1CAL  O015P 6931   2.621   3.018   1.011
    1CAL  O015Q 6932   2.678   2.685   0.930
    1CAL  O015R 6933   2.687   2.534   1.096
    1CAL  O015S 6934   2.877   2.616   1.009
    1CAL  O015T 6935   2.877   1.813   1.010
    1CAL  O015U 6936   2.687   1.730   1.097
    1CAL  O015V 6937   2.678   1.881   0.931
    1CAL  O015W 6938   2.621   2.215   1.010
    1CAL  O015X 6939   2.811   2.131   1.096
    1CAL  O015Y 6940   2.820   2.283   0.931
    1CAL  O015Z 6941   3.679   2.685   0.930
    1CAL  O015a 6942   3.877   2.616   1.010
    1CAL  O015b 6943   3.687   2.533   1.096
    1CAL  O015c 6944   3.622   3.017   1.010
    1CAL  O015d 6945   3.811   2.934   1.096
    1CAL  O015e 6946   3.820   3.086   0.931
    1CAL  O015f 6947   3.678   1.881   0.931
    1CAL  O015g 6948   3.877   1.813   1.010
    1CAL  O015h 6949   3.687   1.730   1.097
    1CAL  O015i 6950   3.621   2.214   1.010
    1CAL  O015j 6951   3.811   2.131   1.096
    1CAL  O015k 6952   3.820   2.283   0.931
    1CAL  O015l 6953   3.311   2.934   1.097
    1CAL  O015m 6954   3.121   3.017   1.011
    1CAL  O015n 6955   3.320   3.085   0.931
    1CAL  O015o 6956   3.179   2.684   0.931
    1CAL  O015p 6957   3.188   2.532   1.097
    1CAL  O015q 6958   3.378   2.616   1.011
    1CAL  O015r 6959   3.311   2.131   1.097
    1CAL  O015s 6960   3.320   2.282   0.931
    1CAL  O015t 6961   3.121   2.215   1.010
    1CAL  O015u 6962   3.179   1.881   0.932
    1CAL  O015v 6963   3.187   1.729   1.097
    1CAL  O015w 6964   3.377   1.813   1.012
    1CAL  O015x 6965   2.310   2.934   1.098
    1CAL  O015y 6966   2.121   3.018   1.011
    1CAL  O015z 6967   2.320   3.085   0.932
    1CAL  O0160 6968   2.179   2.684   0.932
    1CAL  O0161 6969   2.188   2.532   1.097
    1CAL  O0162 6970   2.378   2.616   1.013
    1CAL  O0163 6971   2.310   2.132   1.098
    1CAL  O0164 6972   2.121   2.215   1.010
    1CAL  O0165 6973   2.320   2.283   0.931
    1CAL  O0166 6974   2.377   1.813   1.013
    1CAL  O0167 6975   2.187   1.729   1.098
    1CAL  O0168 6976   2.179   1.881   0.933
    1CAL  Ca0Lh 6977   3.002   2.416   1.008
    1CAL  Ca0Li 6978   3.750   2.120   0.089
    1CAL  Ca0Lj 6979   3.496   2.817   1.009
    1CAL  Ca0Lk 6980   2.002   2.416   1.009
    1CAL  Ca0Ll 6981   2.750   3.113   0.704
    1CAL  Ca0Lm 6982   3.750   2.522   0.089
    1CAL  Ca0Ln 6983   3.500   2.217   0.396
    1CAL  Ca0Lo 6984   3.500   3.019   0.396
    1CAL  Ca0Lp 6985   2.249   2.712   0.703
    1CAL  Ca0Lq 6986   3.000   3.019   0.396
    1CAL  Ca0Lr 6987   2.502   1.613   1.009
    1CAL  Ca0Ls 6988   2.250   2.120   0.089
    1CAL  Ca0Lt 6989   2.250   2.311   0.704
    1CAL  Ca0Lu 6990   3.997   2.014   1.009
    1CAL  Ca0Lv 6991   3.997   2.817   1.009
    1CAL  Ca0Lw 6992   3.749   2.712   0.702
    1CAL  Ca0Lx 6993   3.250   1.718   0.089
    1CAL  Ca0Ly 6994   4.000   3.019   0.396
    1CAL  Ca0Lz 6995   3.750   1.718   0.089
    1CAL  Ca0M0 6996   2.495   2.015   1.009
    1CAL  Ca0M1 6997   2.002   1.613   1.010
    1CAL  Ca0M2 6998   3.751   2.311   0.704
    1CAL  Ca0M3 6999   2.250   2.522   0.089
    1CAL  Ca0M4 7000   4.000   2.217   0.396
    1CAL  Ca0M5 7001   3.500   2.618   0.395
    1CAL  Ca0M6 7002   2.250   3.114   0.704
    1CAL  Ca0M7 7003   3.750   2.923   0.090
    1CAL  Ca0M8 7004   2.500   2.618   0.395
    1CAL  Ca0M9 7005   2.496   2.818   1.009
    1CAL  Ca0MA 7006   4.000   1.815   0.396
    1CAL  Ca0MB 7007   2.500   3.019   0.396
    1CAL  Ca0MC 7008   3.496   2.014   1.009
    1CAL  Ca0MD 7009   3.250   2.522   0.089
    1CAL  Ca0ME 7010   2.750   2.522   0.089
    1CAL  Ca0MF 7011   3.000   1.815   0.396
    1CAL  Ca0MG 7012   3.000   2.618   0.395
    1CAL  Ca0MH 7013   2.500   2.217   0.396
    1CAL  Ca0MI 7014   3.000   2.217   0.396
    1CAL  Ca0MJ 7015   2.749   2.712   0.703
    1CAL  Ca0MK 7016   2.250   1.718   0.089
    1CAL  Ca0ML 7017   2.750   2.120   0.089
    1CAL  Ca0MM 7018   3.250   2.120   0.089
    1CAL  Ca0MN 7019   3.249   2.712   0.703
    1CAL  Ca0MO 7020   3.250   3.113   0.704
    1CAL  Ca0MP 7021   3.749   1.909   0.704
    1CAL  Ca0MQ 7022   3.002   1.613   1.009
    1CAL  Ca0MR 7023   2.748   1.909   0.704
    1CAL  Ca0MS 7024   2.503   2.416   1.008
    1CAL  Ca0MT 7025   2.500   1.815   0.396
    1CAL  Ca0MU 7026   2.750   1.718   0.089
    1CAL  Ca0MV 7027   3.250   2.923   0.090
    1CAL  Ca0MW 7028   3.249   1.909   0.704
    1CAL  Ca0MX 7029   2.996   2.014   1.009
    1CAL  Ca0MY 7030   2.750   2.923   0.090
    1CAL  Ca0MZ 7031   2.996   2.817   1.009
    1CAL  Ca0Ma 7032   2.250   2.923   0.090
    1CAL  Ca0Mb 7033   3.500   1.815   0.396
    1CAL  Ca0Mc 7034   3.503   2.416   1.008
    1CAL  Ca0Md 7035   3.502   1.612   1.009
    1CAL  Ca0Me 7036   2.750   2.311   0.704
    1CAL  Ca0Mf 7037   3.750   3.114   0.704
    1CAL  Ca0Mg 7038   3.250   2.311   0.704
    1CAL  Ca0Mh 7039   2.249   1.909   0.704
    1CAL  Ca0Mi 7040   4.000   2.618   0.395
    1CAL  C00Mj 7041   4.000   3.123   1.317
    1CAL  C00Mk 7042   3.250   1.613   1.624
    1CAL  C00Ml 7043   2.250   1.613   1.624
    1CAL  C00Mm 7044   3.499   2.111   1.930
    1CAL  C00Mn 7045   3.499   2.914   1.930
    1CAL  C00Mo 7046   2.750   1.613   1.624
    1CAL  C00Mp 7047   3.000   2.321   1.317
    1CAL  C00Mq 7048   3.250   2.818   1.621
    1CAL  C00Mr 7049   2.750   2.818   1.622
    1CAL  C00Ms 7050   2.500   2.513   1.931
    1CAL  C00Mt 7051   2.500   1.919   1.317
    1CAL  C00Mu 7052   3.000   2.723   1.317
    1CAL  C00Mv 7053   3.000   1.919   1.317
    1CAL  C00Mw 7054   2.250   2.016   1.624
    1CAL  C00Mx 7055   2.500   1.709   1.931
    1CAL  C00My 7056   3.000   2.513   1.930
    1CAL  C00Mz 7057   3.750   1.613   1.624
    1CAL  C00N0 7058   3.500   1.709   1.931
    1CAL  C00N1 7059   2.250   2.418   1.624
    1CAL  C00N2 7060   3.999   2.111   1.931
    1CAL  C00N3 7061   4.000   2.513   1.930
    1CAL  C00N4 7062   4.000   1.919   1.317
    1CAL  C00N5 7063   4.000   2.723   1.317
    1CAL  C00N6 7064   2.250   2.818   1.622
    1CAL  C00N7 7065   2.499   2.111   1.930
    1CAL  C00N8 7066   3.500   2.321   1.317
    1CAL  C00N9 7067   4.000   2.321   1.317
    1CAL  C00NA 7068   3.750   2.016   1.624
    1CAL  C00NB 7069   3.250   2.016   1.624
    1CAL  C00NC 7070   3.500   1.919   1.317
    1CAL  C00ND 7071   3.500   2.513   1.930
    1CAL  C00NE 7072   2.498   2.914   1.930
    1CAL  C00NF 7073   3.500   3.123   1.317
    1CAL  C00NG 7074   2.750   2.016   1.624
    1CAL  C00NH 7075   3.250   2.418   1.624
    1CAL  C00NI 7076   2.500   2.723   1.317
    1CAL  C00NJ 7077   3.750   2.818   1.621
    1CAL  C00NK 7078   3.000   3.123   1.317
    1CAL  C00NL 7079   3.999   2.914   1.931
    1CAL  C00NM 7080   3.000   1.709   1.930
    1CAL  C00NN 7081   2.999   2.914   1.930
    1CAL  C00NO 7082   2.999   2.111   1.931
    1CAL  C00NP 7083   3.750   2.418   1.624
    1CAL  C00NQ 7084   2.500   3.123   1.317
    1CAL  C00NR 7085   3.500   2.723   1.317
    1CAL  C00NS 7086   2.500   2.321   1.317
    1CAL  C00NT 7087   2.750   2.418   1.624
    1CAL  C00NU 7088   4.000   1.709   1.931
    1CAL  C00NV 7089   2.751   2.209   2.241
    1CAL  C00NW 7090   2.747   1.808   2.241
    1CAL  C00NX 7091   2.747   2.611   2.240
    1CAL  C00NY 7092   2.751   3.012   2.241
    1CAL  C00NZ 7093   3.751   2.209   2.241
    1CAL  C00Na 7094   3.747   1.808   2.241
    1CAL  C00Nb 7095   3.751   3.012   2.241
    1CAL  C00Nc 7096   3.748   2.611   2.240
    1CAL  C00Nd 7097   3.251   3.012   2.241
    1CAL  C00Ne 7098   3.248   2.610   2.241
    1CAL  C00Nf 7099   3.251   2.209   2.241
    1CAL  C00Ng 7100   3.247   1.807   2.242
    1CAL  C00Nh 7101   2.251   3.012   2.242
    1CAL  C00Ni 7102   2.248   2.610   2.242
    1CAL  C00Nj 7103   2.251   2.210   2.241
    1CAL  C00Nk 7104   2.247   1.807   2.243
    1CAL  O0169 7105   2.185   2.340   1.703
    1CAL  O016A 7106   3.186   2.497   1.545
    1CAL  O016B 7107   3.185   2.340   1.703
    1CAL  O016C 7108   3.379   2.418   1.625
    1CAL  O016D 7109   2.564   3.044   1.396
    1CAL  O016E 7110   2.371   3.124   1.316
    1CAL  O016F 7111   2.564   2.400   1.238
    1CAL  O016G 7112   2.686   2.497   1.545
    1CAL  O016H 7113   2.685   2.340   1.703
    1CAL  O016I 7114   2.879   2.418   1.625
    1CAL  O016J 7115   2.565   3.201   1.238
    1CAL  O016K 7116   2.564   2.243   1.396
    1CAL  O016L 7117   2.371   2.321   1.317
    1CAL  O016M 7118   3.128   2.913   1.931
    1CAL  O016N 7119   2.935   2.992   1.850
    1CAL  O016O 7120   2.936   2.190   1.850
    1CAL  O016P 7121   2.933   2.033   2.010
    1CAL  O016Q 7122   3.128   2.110   1.932
    1CAL  O016R 7123   2.933   2.836   2.010
    1CAL  O016S 7124   2.621   2.016   1.624
    1CAL  O016T 7125   3.063   2.592   1.850
    1CAL  O016U 7126   3.122   2.818   1.621
    1CAL  O016V 7127   3.314   2.739   1.701
    1CAL  O016W 7128   3.315   2.896   1.543
    1CAL  O016X 7129   2.436   1.840   1.396
    1CAL  O016Y 7130   2.435   1.997   1.238
    1CAL  O016Z 7131   2.621   2.818   1.621
    1CAL  O016a 7132   2.814   2.739   1.701
    1CAL  O016b 7133   2.815   2.896   1.543
    1CAL  O016c 7134   2.314   2.095   1.545
    1CAL  O016d 7135   2.814   1.937   1.703
    1CAL  O016e 7136   2.936   2.802   1.237
    1CAL  O016f 7137   3.129   2.723   1.317
    1CAL  O016g 7138   2.314   1.937   1.704
    1CAL  O016h 7139   2.121   2.016   1.624
    1CAL  O016i 7140   2.814   2.095   1.545
    1CAL  O016j 7141   2.936   1.998   1.237
    1CAL  O016k 7142   2.936   1.840   1.396
    1CAL  O016l 7143   3.129   1.919   1.317
    1CAL  O016m 7144   2.870   2.512   1.931
    1CAL  O016n 7145   3.066   2.435   2.009
    1CAL  O016o 7146   2.935   2.645   1.396
    1CAL  O016p 7147   3.686   2.497   1.545
    1CAL  O016q 7148   3.685   2.340   1.703
    1CAL  O016r 7149   3.879   2.418   1.625
    1CAL  O016s 7150   3.934   2.835   2.010
    1CAL  O016t 7151   3.936   2.190   1.851
    1CAL  O016u 7152   3.934   2.032   2.010
    1CAL  O016v 7153   2.128   2.913   1.932
    1CAL  O016w 7154   2.064   1.788   1.851
    1CAL  O016x 7155   3.436   2.802   1.237
    1CAL  O016y 7156   3.435   2.645   1.396
    1CAL  O016z 7157   3.629   2.723   1.317
    1CAL  O0170 7158   2.065   1.631   2.011
    1CAL  O0171 7159   3.434   2.836   2.010
    1CAL  O0172 7160   2.065   3.201   1.238
    1CAL  O0173 7161   2.064   3.044   1.396
    1CAL  O0174 7162   2.871   3.124   1.316
    1CAL  O0175 7163   3.871   2.512   1.932
    1CAL  O0176 7164   3.936   1.840   1.396
    1CAL  O0177 7165   3.064   1.788   1.851
    1CAL  O0178 7166   2.436   2.802   1.237
    1CAL  O0179 7167   2.435   2.645   1.396
    1CAL  O017A 7168   2.629   2.723   1.317
    1CAL  O017B 7169   3.065   1.630   2.010
    1CAL  O017C 7170   2.433   2.836   2.010
    1CAL  O017D 7171   2.871   1.709   1.931
    1CAL  O017E 7172   3.872   2.321   1.317
    1CAL  O017F 7173   3.065   3.201   1.238
    1CAL  O017G 7174   3.064   3.044   1.396
    1CAL  O017H 7175   3.622   2.818   1.621
    1CAL  O017I 7176   3.814   2.739   1.701
    1CAL  O017J 7177   3.815   2.896   1.542
    1CAL  O017K 7178   3.937   2.802   1.237
    1CAL  O017L 7179   3.935   2.645   1.396
    1CAL  O017M 7180   3.936   1.998   1.237
    1CAL  O017N 7181   2.629   1.919   1.316
    1CAL  O017O 7182   2.379   2.418   1.625
    1CAL  O017P 7183   2.370   2.512   1.934
    1CAL  O017Q 7184   3.065   2.243   1.396
    1CAL  O017R 7185   3.564   3.044   1.396
    1CAL  O017S 7186   3.565   3.201   1.238
    1CAL  O017T 7187   3.622   2.016   1.624
    1CAL  O017U 7188   3.815   1.937   1.703
    1CAL  O017V 7189   3.372   3.124   1.316
    1CAL  O017W 7190   3.121   2.016   1.624
    1CAL  O017X 7191   3.314   2.095   1.545
    1CAL  O017Y 7192   2.628   2.913   1.931
    1CAL  O017Z 7193   3.436   1.997   1.238
    1CAL  O017a 7194   3.436   1.840   1.396
    1CAL  O017b 7195   3.629   1.919   1.316
    1CAL  O017c 7196   3.371   2.512   1.933
    1CAL  O017d 7197   3.566   2.435   2.009
    1CAL  O017e 7198   3.315   1.937   1.703
    1CAL  O017f 7199   3.563   2.593   1.850
    1CAL  O017g 7200   2.065   2.243   1.396
    1CAL  O017h 7201   3.565   2.243   1.396
    1CAL  O017i 7202   2.186   2.497   1.545
    1CAL  O017j 7203   2.063   2.593   1.850
    1CAL  O017k 7204   2.065   2.435   2.010
    1CAL  O017l 7205   2.128   2.110   1.932
    1CAL  O017m 7206   2.129   1.919   1.317
    1CAL  O017n 7207   2.128   2.723   1.317
    1CAL  O017o 7208   3.564   2.400   1.238
    1CAL  O017p 7209   2.315   2.896   1.543
    1CAL  O017q 7210   3.872   3.124   1.316
    1CAL  O017r 7211   3.871   1.709   1.932
    1CAL  O017s 7212   2.121   2.818   1.621
    1CAL  O017t 7213   3.935   2.992   1.850
    1CAL  O017u 7214   2.064   2.400   1.238
    1CAL  O017v 7215   3.372   2.321   1.317
    1CAL  O017w 7216   2.314   2.739   1.701
    1CAL  O017x 7217   2.434   2.993   1.850
    1CAL  O017y 7218   2.628   2.110   1.931
    1CAL  O017z 7219   3.371   1.708   1.933
    1CAL  O0180 7220   3.436   2.190   1.850
    1CAL  O0181 7221   3.434   2.033   2.010
    1CAL  O0182 7222   3.629   2.110   1.931
    1CAL  O0183 7223   2.879   1.613   1.624
    1CAL  O0184 7224   2.686   3.141   1.703
    1CAL  O0185 7225   3.434   2.992   1.850
    1CAL  O0186 7226   3.628   2.913   1.930
    1CAL  O0187 7227   2.686   1.692   1.545
    1CAL  O0188 7228   2.563   1.788   1.851
    1CAL  O0189 7229   2.566   1.631   2.010
    1CAL  O018A 7230   2.370   1.709   1.933
    1CAL  O018B 7231   2.562   2.593   1.850
    1CAL  O018C 7232   2.567   2.435   2.010
    1CAL  O018D 7233   2.871   2.321   1.317
    1CAL  O018E 7234   3.566   1.630   2.010
    1CAL  O018F 7235   3.564   1.788   1.851
    1CAL  O018G 7236   2.433   2.033   2.010
    1CAL  O018H 7237   2.435   2.191   1.851
    1CAL  O018I 7238   3.686   1.692   1.545
    1CAL  O018J 7239   3.686   3.141   1.703
    1CAL  O018K 7240   3.879   1.613   1.624
    1CAL  O018L 7241   2.379   1.614   1.624
    1CAL  O018M 7242   2.186   3.141   1.703
    1CAL  O018N 7243   2.185   1.692   1.545
    1CAL  O018O 7244   3.186   1.692   1.545
    1CAL  O018P 7245   3.186   3.141   1.703
    1CAL  O018Q 7246   3.379   1.614   1.624
    1CAL  O018R 7247   3.064   2.400   1.238
    1CAL  O018S 7248   3.815   2.095   1.545
    1CAL  O018T 7249   2.820   3.086   2.159
    1CAL  O018U 7250   2.811   2.934   2.325
    1CAL  O018V 7251   2.621   3.018   2.239
    1CAL  O018W 7252   2.678   2.685   2.158
    1CAL  O018X 7253   2.687   2.534   2.324
    1CAL  O018Y 7254   2.877   2.616   2.237
    1CAL  O018Z 7255   2.877   1.813   2.238
    1CAL  O018a 7256   2.687   1.730   2.325
    1CAL  O018b 7257   2.678   1.881   2.159
    1CAL  O018c 7258   2.621   2.215   2.238
    1CAL  O018d 7259   2.811   2.131   2.324
    1CAL  O018e 7260   2.820   2.283   2.159
    1CAL  O018f 7261   3.679   2.685   2.158
    1CAL  O018g 7262   3.877   2.616   2.238
    1CAL  O018h 7263   3.687   2.533   2.324
    1CAL  O018i 7264   3.622   3.017   2.238
    1CAL  O018j 7265   3.811   2.934   2.324
    1CAL  O018k 7266   3.820   3.086   2.159
    1CAL  O018l 7267   3.678   1.881   2.159
    1CAL  O018m 7268   3.877   1.813   2.238
    1CAL  O018n 7269   3.687   1.730   2.325
    1CAL  O018o 7270   3.621   2.214   2.238
    1CAL  O018p 7271   3.811   2.131   2.324
    1CAL  O018q 7272   3.820   2.283   2.159
    1CAL  O018r 7273   3.311   2.934   2.325
    1CAL  O018s 7274   3.121   3.017   2.239
    1CAL  O018t 7275   3.320   3.085   2.159
    1CAL  O018u 7276   3.179   2.684   2.159
    1CAL  O018v 7277   3.188   2.532   2.325
    1CAL  O018w 7278   3.378   2.616   2.239
    1CAL  O018x 7279   3.311   2.131   2.325
    1CAL  O018y 7280   3.320   2.282   2.159
    1CAL  O018z 7281   3.121   2.215   2.238
    1CAL  O0190 7282   3.179   1.881   2.160
    1CAL  O0191 7283   3.187   1.729   2.325
    1CAL  O0192 7284   3.377   1.813   2.240
    1CAL  O0193 7285   2.310   2.934   2.326
    1CAL  O0194 7286   2.121   3.018   2.239
    1CAL  O0195 7287   2.320   3.085   2.160
    1CAL  O0196 7288   2.179   2.684   2.160
    1CAL  O0197 7289   2.188   2.532   2.325
    1CAL  O0198 7290   2.378   2.616   2.241
    1CAL  O0199 7291   2.310   2.132   2.326
    1CAL  O019A 7292   2.121   2.215   2.238
    1CAL  O019B 7293   2.320   2.283   2.159
    1CAL  O019C 7294   2.377   1.813   2.241
    1CAL  O019D 7295   2.187   1.729   2.326
    1CAL  O019E 7296   2.179   1.881   2.161
    1CAL  Ca0Mj 7297   3.002   2.416   2.236
    1CAL  Ca0Mk 7298   3.750   2.120   1.317
    1CAL  Ca0Ml 7299   3.496   2.817   2.237
    1CAL  Ca0Mm 7300   2.002   2.416   2.237
    1CAL  Ca0Mn 7301   2.750   3.113   1.932
    1CAL  Ca0Mo 7302   3.750   2.522   1.317
    1CAL  Ca0Mp 7303   3.500   2.217   1.624
    1CAL  Ca0Mq 7304   3.500   3.019   1.624
    1CAL  Ca0Mr 7305   2.249   2.712   1.931
    1CAL  Ca0Ms 7306   3.000   3.019   1.624
    1CAL  Ca0Mt 7307   2.502   1.613   2.237
    1CAL  Ca0Mu 7308   2.250   2.120   1.317
    1CAL  Ca0Mv 7309   2.250   2.311   1.932
    1CAL  Ca0Mw 7310   3.997   2.014   2.237
    1CAL  Ca0Mx 7311   3.997   2.817   2.237
    1CAL  Ca0My 7312   3.749   2.712   1.930
    1CAL  Ca0Mz 7313   3.250   1.718   1.317
    1CAL  Ca0N0 7314   4.000   3.019   1.624
    1CAL  Ca0N1 7315   3.750   1.718   1.317
    1CAL  Ca0N2 7316   2.495   2.015   2.237
    1CAL  Ca0N3 7317   2.002   1.613   2.238
    1CAL  Ca0N4 7318   3.751   2.311   1.932
    1CAL  Ca0N5 7319   2.250   2.522   1.317
    1CAL  Ca0N6 7320   4.000   2.217   1.624
    1CAL  Ca0N7 7321   3.500   2.618   1.623
    1CAL  Ca0N8 7322   2.250   3.114   1.932
    1CAL  Ca0N9 7323   3.750   2.923   1.318
    1CAL  Ca0NA 7324   2.500   2.618   1.623
    1CAL  Ca0NB 7325   2.496   2.818   2.237
    1CAL  Ca0NC 7326   4.000   1.815   1.624
    1CAL  Ca0ND 7327   2.500   3.019   1.624
    1CAL  Ca0NE 7328   3.496   2.014   2.237
    1CAL  Ca0NF 7329   3.250   2.522   1.317
    1CAL  Ca0NG 7330   2.750   2.522   1.317
    1CAL  Ca0NH 7331   3.000   1.815   1.624
    1CAL  Ca0NI 7332   3.000   2.618   1.623
    1CAL  Ca0NJ 7333   2.500   2.217   1.624
    1CAL  Ca0NK 7334   3.000   2.217   1.624
    1CAL  Ca0NL 7335   2.749   2.712   1.931
    1CAL  Ca0NM 7336   2.250   1.718   1.317
    1CAL  Ca0NN 7337   2.750   2.120   1.317
    1CAL  Ca0NO 7338   3.250   2.120   1.317
    1CAL  Ca0NP 7339   3.249   2.712   1.931
    1CAL  Ca0NQ 7340   3.250   3.113   1.932
    1CAL  Ca0NR 7341   3.749   1.909   1.932
    1CAL  Ca0NS 7342   3.002   1.613   2.237
    1CAL  Ca0NT 7343   2.748   1.909   1.932
    1CAL  Ca0NU 7344   2.503   2.416   2.236
    1CAL  Ca0NV 7345   2.500   1.815   1.624
    1CAL  Ca0NW 7346   2.750   1.718   1.317
    1CAL  Ca0NX 7347   3.250   2.923   1.318
    1CAL  Ca0NY 7348   3.249   1.909   1.932
    1CAL  Ca0NZ 7349   2.996   2.014   2.237
    1CAL  Ca0Na 7350   2.750   2.923   1.318
    1CAL  Ca0Nb 7351   2.996   2.817   2.237
    1CAL  Ca0Nc 7352   2.250   2.923   1.318
    1CAL  Ca0Nd 7353   3.500   1.815   1.624
    1CAL  Ca0Ne 7354   3.503   2.416   2.236
    1CAL  Ca0Nf 7355   3.502   1.612   2.237
    1CAL  Ca0Ng 7356   2.750   2.311   1.932
    1CAL  Ca0Nh 7357   3.750   3.114   1.932
    1CAL  Ca0Ni 7358   3.250   2.311   1.932
    1CAL  Ca0Nj 7359   2.249   1.909   1.932
    1CAL  Ca0Nk 7360   4.000   2.618   1.623
    1CAL  C00Nl 7361   4.000   3.123   2.545
    1CAL  C00Nm 7362   3.250   1.613   2.852
    1CAL  C00Nn 7363   2.250   1.613   2.852
    1CAL  C00No 7364   3.499   2.111   3.158
    1CAL  C00Np 7365   3.499   2.914   3.158
    1CAL  C00Nq 7366   2.750   1.613   2.852
    1CAL  C00Nr 7367   3.000   2.321   2.545
    1CAL  C00Ns 7368   3.250   2.818   2.849
    1CAL  C00Nt 7369   2.750   2.818   2.850
    1CAL  C00Nu 7370   2.500   2.513   3.159
    1CAL  C00Nv 7371   2.500   1.919   2.545
    1CAL  C00Nw 7372   3.000   2.723   2.545
    1CAL  C00Nx 7373   3.000   1.919   2.545
    1CAL  C00Ny 7374   2.250   2.016   2.852
    1CAL  C00Nz 7375   2.500   1.709   3.159
    1CAL  C00O0 7376   3.000   2.513   3.158
    1CAL  C00O1 7377   3.750   1.613   2.852
    1CAL  C00O2 7378   3.500   1.709   3.159
    1CAL  C00O3 7379   2.250   2.418   2.852
    1CAL  C00O4 7380   3.999   2.111   3.159
    1CAL  C00O5 7381   4.000   2.513   3.158
    1CAL  C00O6 7382   4.000   1.919   2.545
    1CAL  C00O7 7383   4.000   2.723   2.545
    1CAL  C00O8 7384   2.250   2.818   2.850
    1CAL  C00O9 7385   2.499   2.111   3.158
    1CAL  C00OA 7386   3.500   2.321   2.545
    1CAL  C00OB 7387   4.000   2.321   2.545
    1CAL  C00OC 7388   3.750   2.016   2.852
    1CAL  C00OD 7389   3.250   2.016   2.852
    1CAL  C00OE 7390   3.500   1.919   2.545
    1CAL  C00OF 7391   3.500   2.513   3.158
    1CAL  C00OG 7392   2.498   2.914   3.158
    1CAL  C00OH 7393   3.500   3.123   2.545
    1CAL  C00OI 7394   2.750   2.016   2.852
    1CAL  C00OJ 7395   3.250   2.418   2.852
    1CAL  C00OK 7396   2.500   2.723   2.545
    1CAL  C00OL 7397   3.750   2.818   2.849
    1CAL  C00OM 7398   3.000   3.123   2.545
    1CAL  C00ON 7399   3.999   2.914   3.159
    1CAL  C00OO 7400   3.000   1.709   3.158
    1CAL  C00OP 7401   2.999   2.914   3.158
    1CAL  C00OQ 7402   2.999   2.111   3.159
    1CAL  C00OR 7403   3.750   2.418   2.852
    1CAL  C00OS 7404   2.500   3.123   2.545
    1CAL  C00OT 7405   3.500   2.723   2.545
    1CAL  C00OU 7406   2.500   2.321   2.545
    1CAL  C00OV 7407   2.750   2.418   2.852
    1CAL  C00OW 7408   4.000   1.709   3.159
    1CAL  C00OX 7409   2.751   2.209   3.469
    1CAL  C00OY 7410   2.747   1.808   3.469
    1CAL  C00OZ 7411   2.747   2.611   3.468
    1CAL  C00Oa 7412   2.751   3.012   3.469
    1CAL  C00Ob 7413   3.751   2.209   3.469
    1CAL  C00Oc 7414   3.747   1.808   3.469
    1CAL  C00Od 7415   3.751   3.012   3.469
    1CAL  C00Oe 7416   3.748   2.611   3.468
    1CAL  C00Of 7417   3.251   3.012   3.469
    1CAL  C00Og 7418   3.248   2.610   3.469
    1CAL  C00Oh 7419   3.251   2.209   3.469
    1CAL  C00Oi 7420   3.247   1.807   3.470
    1CAL  C00Oj 7421   2.251   3.012   3.470
    1CAL  C00Ok 7422   2.248   2.610   3.470
    1CAL  C00Ol 7423   2.251   2.210   3.469
    1CAL  C00Om 7424   2.247   1.807   3.471
    1CAL  O019F 7425   2.185   2.340   2.931
    1CAL  O019G 7426   3.186   2.497   2.773
    1CAL  O019H 7427   3.185   2.340   2.931
    1CAL  O019I 7428   3.379   2.418   2.853
    1CAL  O019J 7429   2.564   3.044   2.624
    1CAL  O019K 7430   2.371   3.124   2.544
    1CAL  O019L 7431   2.564   2.400   2.466
    1CAL  O019M 7432   2.686   2.497   2.773
    1CAL  O019N 7433   2.685   2.340   2.931
    1CAL  O019O 7434   2.879   2.418   2.853
    1CAL  O019P 7435   2.565   3.201   2.466
    1CAL  O019Q 7436   2.564   2.243   2.624
    1CAL  O019R 7437   2.371   2.321   2.545
    1CAL  O019S 7438   3.128   2.913   3.159
    1CAL  O019T 7439   2.935   2.992   3.078
    1CAL  O019U 7440   2.936   2.190   3.078
    1CAL  O019V 7441   2.933   2.033   3.238
    1CAL  O019W 7442   3.128   2.110   3.160
    1CAL  O019X 7443   2.933   2.836   3.238
    1CAL  O019Y 7444   2.621   2.016   2.852
    1CAL  O019Z 7445   3.063   2.592   3.078
    1CAL  O019a 7446   3.122   2.818   2.849
    1CAL  O019b 7447   3.314   2.739   2.929
    1CAL  O019c 7448   3.315   2.896   2.771
    1CAL  O019d 7449   2.436   1.840   2.624
    1CAL  O019e 7450   2.435   1.997   2.466
    1CAL  O019f 7451   2.621   2.818   2.849
    1CAL  O019g 7452   2.814   2.739   2.929
    1CAL  O019h 7453   2.815   2.896   2.771
    1CAL  O019i 7454   2.314   2.095   2.773
    1CAL  O019j 7455   2.814   1.937   2.931
    1CAL  O019k 7456   2.936   2.802   2.465
    1CAL  O019l 7457   3.129   2.723   2.545
    1CAL  O019m 7458   2.314   1.937   2.932
    1CAL  O019n 7459   2.121   2.016   2.852
    1CAL  O019o 7460   2.814   2.095   2.773
    1CAL  O019p 7461   2.936   1.998   2.465
    1CAL  O019q 7462   2.936   1.840   2.624
    1CAL  O019r 7463   3.129   1.919   2.545
    1CAL  O019s 7464   2.870   2.512   3.159
    1CAL  O019t 7465   3.066   2.435   3.237
    1CAL  O019u 7466   2.935   2.645   2.624
    1CAL  O019v 7467   3.686   2.497   2.773
    1CAL  O019w 7468   3.685   2.340   2.931
    1CAL  O019x 7469   3.879   2.418   2.853
    1CAL  O019y 7470   3.934   2.835   3.238
    1CAL  O019z 7471   3.936   2.190   3.079
    1CAL  O01A0 7472   3.934   2.032   3.238
    1CAL  O01A1 7473   2.128   2.913   3.160
    1CAL  O01A2 7474   2.064   1.788   3.079
    1CAL  O01A3 7475   3.436   2.802   2.465
    1CAL  O01A4 7476   3.435   2.645   2.624
    1CAL  O01A5 7477   3.629   2.723   2.545
    1CAL  O01A6 7478   2.065   1.631   3.239
    1CAL  O01A7 7479   3.434   2.836   3.238
    1CAL  O01A8 7480   2.065   3.201   2.466
    1CAL  O01A9 7481   2.064   3.044   2.624
    1CAL  O01AA 7482   2.871   3.124   2.544
    1CAL  O01AB 7483   3.871   2.512   3.160
    1CAL  O01AC 7484   3.936   1.840   2.624
    1CAL  O01AD 7485   3.064   1.788   3.079
    1CAL  O01AE 7486   2.436   2.802   2.465
    1CAL  O01AF 7487   2.435   2.645   2.624
    1CAL  O01AG 7488   2.629   2.723   2.545
    1CAL  O01AH 7489   3.065   1.630   3.238
    1CAL  O01AI 7490   2.433   2.836   3.238
    1CAL  O01AJ 7491   2.871   1.709   3.159
    1CAL  O01AK 7492   3.872   2.321   2.545
    1CAL  O01AL 7493   3.065   3.201   2.466
    1CAL  O01AM 7494   3.064   3.044   2.624
    1CAL  O01AN 7495   3.622   2.818   2.849
    1CAL  O01AO 7496   3.814   2.739   2.929
    1CAL  O01AP 7497   3.815   2.896   2.770
    1CAL  O01AQ 7498   3.937   2.802   2.465
    1CAL  O01AR 7499   3.935   2.645   2.624
    1CAL  O01AS 7500   3.936   1.998   2.465
    1CAL  O01AT 7501   2.629   1.919   2.544
    1CAL  O01AU 7502   2.379   2.418   2.853
    1CAL  O01AV 7503   2.370   2.512   3.162
    1CAL  O01AW 7504   3.065   2.243   2.624
    1CAL  O01AX 7505   3.564   3.044   2.624
    1CAL  O01AY 7506   3.565   3.201   2.466
    1CAL  O01AZ 7507   3.622   2.016   2.852
    1CAL  O01Aa 7508   3.815   1.937   2.931
    1CAL  O01Ab 7509   3.372   3.124   2.544
    1CAL  O01Ac 7510   3.121   2.016   2.852
    1CAL  O01Ad 7511   3.314   2.095   2.773
    1CAL  O01Ae 7512   2.628   2.913   3.159
    1CAL  O01Af 7513   3.436   1.997   2.466
    1CAL  O01Ag 7514   3.436   1.840   2.624
    1CAL  O01Ah 7515   3.629   1.919   2.544
    1CAL  O01Ai 7516   3.371   2.512   3.161
    1CAL  O01Aj 7517   3.566   2.435   3.237
    1CAL  O01Ak 7518   3.315   1.937   2.931
    1CAL  O01Al 7519   3.563   2.593   3.078
    1CAL  O01Am 7520   2.065   2.243   2.624
    1CAL  O01An 7521   3.565   2.243   2.624
    1CAL  O01Ao 7522   2.186   2.497   2.773
    1CAL  O01Ap 7523   2.063   2.593   3.078
    1CAL  O01Aq 7524   2.065   2.435   3.238
    1CAL  O01Ar 7525   2.128   2.110   3.160
    1CAL  O01As 7526   2.129   1.919   2.545
    1CAL  O01At 7527   2.128   2.723   2.545
    1CAL  O01Au 7528   3.564   2.400   2.466
    1CAL  O01Av 7529   2.315   2.896   2.771
    1CAL  O01Aw 7530   3.872   3.124   2.544
    1CAL  O01Ax 7531   3.871   1.709   3.160
    1CAL  O01Ay 7532   2.121   2.818   2.849
    1CAL  O01Az 7533   3.935   2.992   3.078
    1CAL  O01B0 7534   2.064   2.400   2.466
    1CAL  O01B1 7535   3.372   2.321   2.545
    1CAL  O01B2 7536   2.314   2.739   2.929
    1CAL  O01B3 7537   2.434   2.993   3.078
    1CAL  O01B4 7538   2.628   2.110   3.159
    1CAL  O01B5 7539   3.371   1.708   3.161
    1CAL  O01B6 7540   3.436   2.190   3.078
    1CAL  O01B7 7541   3.434   2.033   3.238
    1CAL  O01B8 7542   3.629   2.110   3.159
    1CAL  O01B9 7543   2.879   1.613   2.852
    1CAL  O01BA 7544   2.686   3.141   2.931
    1CAL  O01BB 7545   3.434   2.992   3.078
    1CAL  O01BC 7546   3.628   2.913   3.158
    1CAL  O01BD 7547   2.686   1.692   2.773
    1CAL  O01BE 7548   2.563   1.788   3.079
    1CAL  O01BF 7549   2.566   1.631   3.238
    1CAL  O01BG 7550   2.370   1.709   3.161
    1CAL  O01BH 7551   2.562   2.593   3.078
    1CAL  O01BI 7552   2.567   2.435   3.238
    1CAL  O01BJ 7553   2.871   2.321   2.545
    1CAL  O01BK 7554   3.566   1.630   3.238
    1CAL  O01BL 7555   3.564   1.788   3.079
    1CAL  O01BM 7556   2.433   2.033   3.238
    1CAL  O01BN 7557   2.435   2.191   3.079
    1CAL  O01BO 7558   3.686   1.692   2.773
    1CAL  O01BP 7559   3.686   3.141   2.931
    1CAL  O01BQ 7560   3.879   1.613   2.852
    1CAL  O01BR 7561   2.379   1.614   2.852
    1CAL  O01BS 7562   2.186   3.141   2.931
    1CAL  O01BT 7563   2.185   1.692   2.773
    1CAL  O01BU 7564   3.186   1.692   2.773
    1CAL  O01BV 7565   3.186   3.141   2.931
    1CAL  O01BW 7566   3.379   1.614   2.852
    1CAL  O01BX 7567   3.064   2.400   2.466
    1CAL  O01BY 7568   3.815   2.095   2.773
    1CAL  O01BZ 7569   2.820   3.086   3.387
    1CAL  O01Ba 7570   2.811   2.934   3.553
    1CAL  O01Bb 7571   2.621   3.018   3.467
    1CAL  O01Bc 7572   2.678   2.685   3.386
    1CAL  O01Bd 7573   2.687   2.534   3.552
    1CAL  O01Be 7574   2.877   2.616   3.465
    1CAL  O01Bf 7575   2.877   1.813   3.466
    1CAL  O01Bg 7576   2.687   1.730   3.553
    1CAL  O01Bh 7577   2.678   1.881   3.387
    1CAL  O01Bi 7578   2.621   2.215   3.466
    1CAL  O01Bj 7579   2.811   2.131   3.552
    1CAL  O01Bk 7580   2.820   2.283   3.387
    1CAL  O01Bl 7581   3.679   2.685   3.386
    1CAL  O01Bm 7582   3.877   2.616   3.466
    1CAL  O01Bn 7583   3.687   2.533   3.552
    1CAL  O01Bo 7584   3.622   3.017   3.466
    1CAL  O01Bp 7585   3.811   2.934   3.552
    1CAL  O01Bq 7586   3.820   3.086   3.387
    1CAL  O01Br 7587   3.678   1.881   3.387
    1CAL  O01Bs 7588   3.877   1.813   3.466
    1CAL  O01Bt 7589   3.687   1.730   3.553
    1CAL  O01Bu 7590   3.621   2.214   3.466
    1CAL  O01Bv 7591   3.811   2.131   3.552
    1CAL  O01Bw 7592   3.820   2.283   3.387
    1CAL  O01Bx 7593   3.311   2.934   3.553
    1CAL  O01By 7594   3.121   3.017   3.467
    1CAL  O01Bz 7595   3.320   3.085   3.387
    1CAL  O01C0 7596   3.179   2.684   3.387
    1CAL  O01C1 7597   3.188   2.532   3.553
    1CAL  O01C2 7598   3.378   2.616   3.467
    1CAL  O01C3 7599   3.311   2.131   3.553
    1CAL  O01C4 7600   3.320   2.282   3.387
    1CAL  O01C5 7601   3.121   2.215   3.466
    1CAL  O01C6 7602   3.179   1.881   3.388
    1CAL  O01C7 7603   3.187   1.729   3.553
    1CAL  O01C8 7604   3.377   1.813   3.468
    1CAL  O01C9 7605   2.310   2.934   3.554
    1CAL  O01CA 7606   2.121   3.018   3.467
    1CAL  O01CB 7607   2.320   3.085   3.388
    1CAL  O01CC 7608   2.179   2.684   3.388
    1CAL  O01CD 7609   2.188   2.532   3.553
    1CAL  O01CE 7610   2.378   2.616   3.469
    1CAL  O01CF 7611   2.310   2.132   3.554
    1CAL  O01CG 7612   2.121   2.215   3.466
    1CAL  O01CH 7613   2.320   2.283   3.387
    1CAL  O01CI 7614   2.377   1.813   3.469
    1CAL  O01CJ 7615   2.187   1.729   3.554
    1CAL  O01CK 7616   2.179   1.881   3.389
    1CAL  Ca0Nl 7617   3.002   2.416   3.464
    1CAL  Ca0Nm 7618   3.750   2.120   2.545
    1CAL  Ca0Nn 7619   3.496   2.817   3.465
    1CAL  Ca0No 7620   2.002   2.416   3.465
    1CAL  Ca0Np 7621   2.750   3.113   3.160
    1CAL  Ca0Nq 7622   3.750   2.522   2.545
    1CAL  Ca0Nr 7623   3.500   2.217   2.852
    1CAL  Ca0Ns 7624   3.500   3.019   2.852
    1CAL  Ca0Nt 7625   2.249   2.712   3.159
    1CAL  Ca0Nu 7626   3.000   3.019   2.852
    1CAL  Ca0Nv 7627   2.502   1.613   3.465
    1CAL  Ca0Nw 7628   2.250   2.120   2.545
    1CAL  Ca0Nx 7629   2.250   2.311   3.160
    1CAL  Ca0Ny 7630   3.997   2.014   3.465
    1CAL  Ca0Nz 7631   3.997   2.817   3.465
    1CAL  Ca0O0 7632   3.749   2.712   3.158
    1CAL  Ca0O1 7633   3.250   1.718   2.545
    1CAL  Ca0O2 7634   4.000   3.019   2.852
    1CAL  Ca0O3 7635   3.750   1.718   2.545
    1CAL  Ca0O4 7636   2.495   2.015   3.465
    1CAL  Ca0O5 7637   2.002   1.613   3.466
    1CAL  Ca0O6 7638   3.751   2.311   3.160
    1CAL  Ca0O7 7639   2.250   2.522   2.545
    1CAL  Ca0O8 7640   4.000   2.217   2.852
    1CAL  Ca0O9 7641   3.500   2.618   2.851
    1CAL  Ca0OA 7642   2.250   3.114   3.160
    1CAL  Ca0OB 7643   3.750   2.923   2.546
    1CAL  Ca0OC 7644   2.500   2.618   2.851
    1CAL  Ca0OD 7645   2.496   2.818   3.465
    1CAL  Ca0OE 7646   4.000   1.815   2.852
    1CAL  Ca0OF 7647   2.500   3.019   2.852
    1CAL  Ca0OG 7648   3.496   2.014   3.465
    1CAL  Ca0OH 7649   3.250   2.522   2.545
    1CAL  Ca0OI 7650   2.750   2.522   2.545
    1CAL  Ca0OJ 7651   3.000   1.815   2.852
    1CAL  Ca0OK 7652   3.000   2.618   2.851
    1CAL  Ca0OL 7653   2.500   2.217   2.852
    1CAL  Ca0OM 7654   3.000   2.217   2.852
    1CAL  Ca0ON 7655   2.749   2.712   3.159
    1CAL  Ca0OO 7656   2.250   1.718   2.545
    1CAL  Ca0OP 7657   2.750   2.120   2.545
    1CAL  Ca0OQ 7658   3.250   2.120   2.545
    1CAL  Ca0OR 7659   3.249   2.712   3.159
    1CAL  Ca0OS 7660   3.250   3.113   3.160
    1CAL  Ca0OT 7661   3.749   1.909   3.160
    1CAL  Ca0OU 7662   3.002   1.613   3.465
    1CAL  Ca0OV 7663   2.748   1.909   3.160
    1CAL  Ca0OW 7664   2.503   2.416   3.464
    1CAL  Ca0OX 7665   2.500   1.815   2.852
    1CAL  Ca0OY 7666   2.750   1.718   2.545
    1CAL  Ca0OZ 7667   3.250   2.923   2.546
    1CAL  Ca0Oa 7668   3.249   1.909   3.160
    1CAL  Ca0Ob 7669   2.996   2.014   3.465
    1CAL  Ca0Oc 7670   2.750   2.923   2.546
    1CAL  Ca0Od 7671   2.996   2.817   3.465
    1CAL  Ca0Oe 7672   2.250   2.923   2.546
    1CAL  Ca0Of 7673   3.500   1.815   2.852
    1CAL  Ca0Og 7674   3.503   2.416   3.464
    1CAL  Ca0Oh 7675   3.502   1.612   3.465
    1CAL  Ca0Oi 7676   2.750   2.311   3.160
    1CAL  Ca0Oj 7677   3.750   3.114   3.160
    1CAL  Ca0Ok 7678   3.250   2.311   3.160
    1CAL  Ca0Ol 7679   2.249   1.909   3.160
    1CAL  Ca0Om 7680   4.000   2.618   2.851
    1CAL  C00On 7681   4.000   4.730   0.089
    1CAL  C00Oo 7682   3.250   3.220   0.396
    1CAL  C00Op 7683   2.250   3.220   0.396
    1CAL  C00Oq 7684   3.499   3.718   0.702
    1CAL  C00Or 7685   3.499   4.521   0.702
    1CAL  C00Os 7686   2.750   3.220   0.396
    1CAL  C00Ot 7687   3.000   3.928   0.089
    1CAL  C00Ou 7688   3.250   4.425   0.393
    1CAL  C00Ov 7689   2.750   4.425   0.394
    1CAL  C00Ow 7690   2.500   4.120   0.703
    1CAL  C00Ox 7691   2.500   3.526   0.089
    1CAL  C00Oy 7692   3.000   4.330   0.089
    1CAL  C00Oz 7693   3.000   3.526   0.089
    1CAL  C00P0 7694   2.250   3.623   0.396
    1CAL  C00P1 7695   2.500   3.316   0.703
    1CAL  C00P2 7696   3.000   4.120   0.702
    1CAL  C00P3 7697   3.750   3.220   0.396
    1CAL  C00P4 7698   3.500   3.316   0.703
    1CAL  C00P5 7699   2.250   4.025   0.396
    1CAL  C00P6 7700   3.999   3.718   0.703
    1CAL  C00P7 7701   4.000   4.120   0.702
    1CAL  C00P8 7702   4.000   3.526   0.089
    1CAL  C00P9 7703   4.000   4.330   0.089
    1CAL  C00PA 7704   2.250   4.425   0.394
    1CAL  C00PB 7705   2.499   3.718   0.702
    1CAL  C00PC 7706   3.500   3.928   0.089
    1CAL  C00PD 7707   4.000   3.928   0.089
    1CAL  C00PE 7708   3.750   3.623   0.396
    1CAL  C00PF 7709   3.250   3.623   0.396
    1CAL  C00PG 7710   3.500   3.526   0.089
    1CAL  C00PH 7711   3.500   4.120   0.702
    1CAL  C00PI 7712   2.498   4.521   0.702
    1CAL  C00PJ 7713   3.500   4.730   0.089
    1CAL  C00PK 7714   2.750   3.623   0.396
    1CAL  C00PL 7715   3.250   4.025   0.396
    1CAL  C00PM 7716   2.500   4.330   0.089
    1CAL  C00PN 7717   3.750   4.425   0.393
    1CAL  C00PO 7718   3.000   4.730   0.089
    1CAL  C00PP 7719   3.999   4.521   0.703
    1CAL  C00PQ 7720   3.000   3.316   0.702
    1CAL  C00PR 7721   2.999   4.521   0.702
    1CAL  C00PS 7722   2.999   3.718   0.703
    1CAL  C00PT 7723   3.750   4.025   0.396
    1CAL  C00PU 7724   2.500   4.730   0.089
    1CAL  C00PV 7725   3.500   4.330   0.089
    1CAL  C00PW 7726   2.500   3.928   0.089
    1CAL  C00PX 7727   2.750   4.025   0.396
    1CAL  C00PY 7728   4.000   3.316   0.703
    1CAL  C00PZ 7729   2.751   3.816   1.013
    1CAL  C00Pa 7730   2.747   3.415   1.013
    1CAL  C00Pb 7731   2.747   4.218   1.012
    1CAL  C00Pc 7732   2.751   4.619   1.013
    1CAL  C00Pd 7733   3.751   3.816   1.013
    1CAL  C00Pe 7734   3.747   3.415   1.013
    1CAL  C00Pf 7735   3.751   4.619   1.013
    1CAL  C00Pg 7736   3.748   4.218   1.012
    1CAL  C00Ph 7737   3.251   4.619   1.013
    1CAL  C00Pi 7738   3.248   4.217   1.013
    1CAL  C00Pj 7739   3.251   3.816   1.013
    1CAL  C00Pk 7740   3.247   3.414   1.014
    1CAL  C00Pl 7741   2.251   4.619   1.014
    1CAL  C00Pm 7742   2.248   4.217   1.014
    1CAL  C00Pn 7743   2.251   3.817   1.013
    1CAL  C00Po 7744   2.247   3.414   1.015
    1CAL  O01CL 7745   2.185   3.947   0.475
    1CAL  O01CM 7746   3.186   4.104   0.317
    1CAL  O01CN 7747   3.185   3.947   0.475
    1CAL  O01CO 7748   3.379   4.025   0.397
    1CAL  O01CP 7749   2.564   4.651   0.168
    1CAL  O01CQ 7750   2.371   4.731   0.088
    1CAL  O01CR 7751   2.564   4.007   0.010
    1CAL  O01CS 7752   2.686   4.104   0.317
    1CAL  O01CT 7753   2.685   3.947   0.475
    1CAL  O01CU 7754   2.879   4.025   0.397
    1CAL  O01CV 7755   2.565   4.808   0.010
    1CAL  O01CW 7756   2.564   3.850   0.168
    1CAL  O01CX 7757   2.371   3.928   0.089
    1CAL  O01CY 7758   3.128   4.520   0.703
    1CAL  O01CZ 7759   2.935   4.599   0.622
    1CAL  O01Ca 7760   2.936   3.797   0.622
    1CAL  O01Cb 7761   2.933   3.640   0.782
    1CAL  O01Cc 7762   3.128   3.717   0.704
    1CAL  O01Cd 7763   2.933   4.443   0.782
    1CAL  O01Ce 7764   2.621   3.623   0.396
    1CAL  O01Cf 7765   3.063   4.199   0.622
    1CAL  O01Cg 7766   3.122   4.425   0.393
    1CAL  O01Ch 7767   3.314   4.346   0.473
    1CAL  O01Ci 7768   3.315   4.503   0.315
    1CAL  O01Cj 7769   2.436   3.447   0.168
    1CAL  O01Ck 7770   2.435   3.604   0.010
    1CAL  O01Cl 7771   2.621   4.425   0.393
    1CAL  O01Cm 7772   2.814   4.346   0.473
    1CAL  O01Cn 7773   2.815   4.503   0.315
    1CAL  O01Co 7774   2.314   3.702   0.317
    1CAL  O01Cp 7775   2.814   3.544   0.475
    1CAL  O01Cq 7776   2.936   4.409   0.009
    1CAL  O01Cr 7777   3.129   4.330   0.089
    1CAL  O01Cs 7778   2.314   3.544   0.476
    1CAL  O01Ct 7779   2.121   3.623   0.396
    1CAL  O01Cu 7780   2.814   3.702   0.317
    1CAL  O01Cv 7781   2.936   3.605   0.009
    1CAL  O01Cw 7782   2.936   3.447   0.168
    1CAL  O01Cx 7783   3.129   3.526   0.089
    1CAL  O01Cy 7784   2.870   4.119   0.703
    1CAL  O01Cz 7785   3.066   4.042   0.781
    1CAL  O01D0 7786   2.935   4.252   0.168
    1CAL  O01D1 7787   3.686   4.104   0.317
    1CAL  O01D2 7788   3.685   3.947   0.475
    1CAL  O01D3 7789   3.879   4.025   0.397
    1CAL  O01D4 7790   3.934   4.442   0.782
    1CAL  O01D5 7791   3.936   3.797   0.623
    1CAL  O01D6 7792   3.934   3.639   0.782
    1CAL  O01D7 7793   2.128   4.520   0.704
    1CAL  O01D8 7794   2.064   3.395   0.623
    1CAL  O01D9 7795   3.436   4.409   0.009
    1CAL  O01DA 7796   3.435   4.252   0.168
    1CAL  O01DB 7797   3.629   4.330   0.089
    1CAL  O01DC 7798   2.065   3.238   0.783
    1CAL  O01DD 7799   3.434   4.443   0.782
    1CAL  O01DE 7800   2.065   4.808   0.010
    1CAL  O01DF 7801   2.064   4.651   0.168
    1CAL  O01DG 7802   2.871   4.731   0.088
    1CAL  O01DH 7803   3.871   4.119   0.704
    1CAL  O01DI 7804   3.936   3.447   0.168
    1CAL  O01DJ 7805   3.064   3.395   0.623
    1CAL  O01DK 7806   2.436   4.409   0.009
    1CAL  O01DL 7807   2.435   4.252   0.168
    1CAL  O01DM 7808   2.629   4.330   0.089
    1CAL  O01DN 7809   3.065   3.237   0.782
    1CAL  O01DO 7810   2.433   4.443   0.782
    1CAL  O01DP 7811   2.871   3.316   0.703
    1CAL  O01DQ 7812   3.872   3.928   0.089
    1CAL  O01DR 7813   3.065   4.808   0.010
    1CAL  O01DS 7814   3.064   4.651   0.168
    1CAL  O01DT 7815   3.622   4.425   0.393
    1CAL  O01DU 7816   3.814   4.346   0.473
    1CAL  O01DV 7817   3.815   4.503   0.314
    1CAL  O01DW 7818   3.937   4.409   0.009
    1CAL  O01DX 7819   3.935   4.252   0.168
    1CAL  O01DY 7820   3.936   3.605   0.009
    1CAL  O01DZ 7821   2.629   3.526   0.088
    1CAL  O01Da 7822   2.379   4.025   0.397
    1CAL  O01Db 7823   2.370   4.119   0.706
    1CAL  O01Dc 7824   3.065   3.850   0.168
    1CAL  O01Dd 7825   3.564   4.651   0.168
    1CAL  O01De 7826   3.565   4.808   0.010
    1CAL  O01Df 7827   3.622   3.623   0.396
    1CAL  O01Dg 7828   3.815   3.544   0.475
    1CAL  O01Dh 7829   3.372   4.731   0.088
    1CAL  O01Di 7830   3.121   3.623   0.396
    1CAL  O01Dj 7831   3.314   3.702   0.317
    1CAL  O01Dk 7832   2.628   4.520   0.703
    1CAL  O01Dl 7833   3.436   3.604   0.010
    1CAL  O01Dm 7834   3.436   3.447   0.168
    1CAL  O01Dn 7835   3.629   3.526   0.088
    1CAL  O01Do 7836   3.371   4.119   0.705
    1CAL  O01Dp 7837   3.566   4.042   0.781
    1CAL  O01Dq 7838   3.315   3.544   0.475
    1CAL  O01Dr 7839   3.563   4.200   0.622
    1CAL  O01Ds 7840   2.065   3.850   0.168
    1CAL  O01Dt 7841   3.565   3.850   0.168
    1CAL  O01Du 7842   2.186   4.104   0.317
    1CAL  O01Dv 7843   2.063   4.200   0.622
    1CAL  O01Dw 7844   2.065   4.042   0.782
    1CAL  O01Dx 7845   2.128   3.717   0.704
    1CAL  O01Dy 7846   2.129   3.526   0.089
    1CAL  O01Dz 7847   2.128   4.330   0.089
    1CAL  O01E0 7848   3.564   4.007   0.010
    1CAL  O01E1 7849   2.315   4.503   0.315
    1CAL  O01E2 7850   3.872   4.731   0.088
    1CAL  O01E3 7851   3.871   3.316   0.704
    1CAL  O01E4 7852   2.121   4.425   0.393
    1CAL  O01E5 7853   3.935   4.599   0.622
    1CAL  O01E6 7854   2.064   4.007   0.010
    1CAL  O01E7 7855   3.372   3.928   0.089
    1CAL  O01E8 7856   2.314   4.346   0.473
    1CAL  O01E9 7857   2.434   4.600   0.622
    1CAL  O01EA 7858   2.628   3.717   0.703
    1CAL  O01EB 7859   3.371   3.315   0.705
    1CAL  O01EC 7860   3.436   3.797   0.622
    1CAL  O01ED 7861   3.434   3.640   0.782
    1CAL  O01EE 7862   3.629   3.717   0.703
    1CAL  O01EF 7863   2.879   3.220   0.396
    1CAL  O01EG 7864   2.686   4.748   0.475
    1CAL  O01EH 7865   3.434   4.599   0.622
    1CAL  O01EI 7866   3.628   4.520   0.702
    1CAL  O01EJ 7867   2.686   3.299   0.317
    1CAL  O01EK 7868   2.563   3.395   0.623
    1CAL  O01EL 7869   2.566   3.238   0.782
    1CAL  O01EM 7870   2.370   3.316   0.705
    1CAL  O01EN 7871   2.562   4.200   0.622
    1CAL  O01EO 7872   2.567   4.042   0.782
    1CAL  O01EP 7873   2.871   3.928   0.089
    1CAL  O01EQ 7874   3.566   3.237   0.782
    1CAL  O01ER 7875   3.564   3.395   0.623
    1CAL  O01ES 7876   2.433   3.640   0.782
    1CAL  O01ET 7877   2.435   3.798   0.623
    1CAL  O01EU 7878   3.686   3.299   0.317
    1CAL  O01EV 7879   3.686   4.748   0.475
    1CAL  O01EW 7880   3.879   3.220   0.396
    1CAL  O01EX 7881   2.379   3.221   0.396
    1CAL  O01EY 7882   2.186   4.748   0.475
    1CAL  O01EZ 7883   2.185   3.299   0.317
    1CAL  O01Ea 7884   3.186   3.299   0.317
    1CAL  O01Eb 7885   3.186   4.748   0.475
    1CAL  O01Ec 7886   3.379   3.221   0.396
    1CAL  O01Ed 7887   3.064   4.007   0.010
    1CAL  O01Ee 7888   3.815   3.702   0.317
    1CAL  O01Ef 7889   2.820   4.693   0.931
    1CAL  O01Eg 7890   2.811   4.541   1.097
    1CAL  O01Eh 7891   2.621   4.625   1.011
    1CAL  O01Ei 7892   2.678   4.292   0.930
    1CAL  O01Ej 7893   2.687   4.141   1.096
    1CAL  O01Ek 7894   2.877   4.223   1.009
    1CAL  O01El 7895   2.877   3.420   1.010
    1CAL  O01Em 7896   2.687   3.337   1.097
    1CAL  O01En 7897   2.678   3.488   0.931
    1CAL  O01Eo 7898   2.621   3.822   1.010
    1CAL  O01Ep 7899   2.811   3.738   1.096
    1CAL  O01Eq 7900   2.820   3.890   0.931
    1CAL  O01Er 7901   3.679   4.292   0.930
    1CAL  O01Es 7902   3.877   4.223   1.010
    1CAL  O01Et 7903   3.687   4.140   1.096
    1CAL  O01Eu 7904   3.622   4.624   1.010
    1CAL  O01Ev 7905   3.811   4.541   1.096
    1CAL  O01Ew 7906   3.820   4.693   0.931
    1CAL  O01Ex 7907   3.678   3.488   0.931
    1CAL  O01Ey 7908   3.877   3.420   1.010
    1CAL  O01Ez 7909   3.687   3.337   1.097
    1CAL  O01F0 7910   3.621   3.821   1.010
    1CAL  O01F1 7911   3.811   3.738   1.096
    1CAL  O01F2 7912   3.820   3.890   0.931
    1CAL  O01F3 7913   3.311   4.541   1.097
    1CAL  O01F4 7914   3.121   4.624   1.011
    1CAL  O01F5 7915   3.320   4.692   0.931
    1CAL  O01F6 7916   3.179   4.291   0.931
    1CAL  O01F7 7917   3.188   4.139   1.097
    1CAL  O01F8 7918   3.378   4.223   1.011
    1CAL  O01F9 7919   3.311   3.738   1.097
    1CAL  O01FA 7920   3.320   3.889   0.931
    1CAL  O01FB 7921   3.121   3.822   1.010
    1CAL  O01FC 7922   3.179   3.488   0.932
    1CAL  O01FD 7923   3.187   3.336   1.097
    1CAL  O01FE 7924   3.377   3.420   1.012
    1CAL  O01FF 7925   2.310   4.541   1.098
    1CAL  O01FG 7926   2.121   4.625   1.011
    1CAL  O01FH 7927   2.320   4.692   0.932
    1CAL  O01FI 7928   2.179   4.291   0.932
    1CAL  O01FJ 7929   2.188   4.139   1.097
    1CAL  O01FK 7930   2.378   4.223   1.013
    1CAL  O01FL 7931   2.310   3.739   1.098
    1CAL  O01FM 7932   2.121   3.822   1.010
    1CAL  O01FN 7933   2.320   3.890   0.931
    1CAL  O01FO 7934   2.377   3.420   1.013
    1CAL  O01FP 7935   2.187   3.336   1.098
    1CAL  O01FQ 7936   2.179   3.488   0.933
    1CAL  Ca0On 7937   3.002   4.023   1.008
    1CAL  Ca0Oo 7938   3.750   3.727   0.089
    1CAL  Ca0Op 7939   3.496   4.424   1.009
    1CAL  Ca0Oq 7940   2.002   4.023   1.009
    1CAL  Ca0Or 7941   2.750   4.720   0.704
    1CAL  Ca0Os 7942   3.750   4.129   0.089
    1CAL  Ca0Ot 7943   3.500   3.824   0.396
    1CAL  Ca0Ou 7944   3.500   4.626   0.396
    1CAL  Ca0Ov 7945   2.249   4.319   0.703
    1CAL  Ca0Ow 7946   3.000   4.626   0.396
    1CAL  Ca0Ox 7947   2.502   3.220   1.009
    1CAL  Ca0Oy 7948   2.250   3.727   0.089
    1CAL  Ca0Oz 7949   2.250   3.918   0.704
    1CAL  Ca0P0 7950   3.997   3.621   1.009
    1CAL  Ca0P1 7951   3.997   4.424   1.009
    1CAL  Ca0P2 7952   3.749   4.319   0.702
    1CAL  Ca0P3 7953   3.250   3.325   0.089
    1CAL  Ca0P4 7954   4.000   4.626   0.396
    1CAL  Ca0P5 7955   3.750   3.325   0.089
    1CAL  Ca0P6 7956   2.495   3.622   1.009
    1CAL  Ca0P7 7957   2.002   3.220   1.010
    1CAL  Ca0P8 7958   3.751   3.918   0.704
    1CAL  Ca0P9 7959   2.250   4.129   0.089
    1CAL  Ca0PA 7960   4.000   3.824   0.396
    1CAL  Ca0PB 7961   3.500   4.225   0.395
    1CAL  Ca0PC 7962   2.250   4.721   0.704
    1CAL  Ca0PD 7963   3.750   4.530   0.090
    1CAL  Ca0PE 7964   2.500   4.225   0.395
    1CAL  Ca0PF 7965   2.496   4.425   1.009
    1CAL  Ca0PG 7966   4.000   3.422   0.396
    1CAL  Ca0PH 7967   2.500   4.626   0.396
    1CAL  Ca0PI 7968   3.496   3.621   1.009
    1CAL  Ca0PJ 7969   3.250   4.129   0.089
    1CAL  Ca0PK 7970   2.750   4.129   0.089
    1CAL  Ca0PL 7971   3.000   3.422   0.396
    1CAL  Ca0PM 7972   3.000   4.225   0.395
    1CAL  Ca0PN 7973   2.500   3.824   0.396
    1CAL  Ca0PO 7974   3.000   3.824   0.396
    1CAL  Ca0PP 7975   2.749   4.319   0.703
    1CAL  Ca0PQ 7976   2.250   3.325   0.089
    1CAL  Ca0PR 7977   2.750   3.727   0.089
    1CAL  Ca0PS 7978   3.250   3.727   0.089
    1CAL  Ca0PT 7979   3.249   4.319   0.703
    1CAL  Ca0PU 7980   3.250   4.720   0.704
    1CAL  Ca0PV 7981   3.749   3.516   0.704
    1CAL  Ca0PW 7982   3.002   3.220   1.009
    1CAL  Ca0PX 7983   2.748   3.516   0.704
    1CAL  Ca0PY 7984   2.503   4.023   1.008
    1CAL  Ca0PZ 7985   2.500   3.422   0.396
    1CAL  Ca0Pa 7986   2.750   3.325   0.089
    1CAL  Ca0Pb 7987   3.250   4.530   0.090
    1CAL  Ca0Pc 7988   3.249   3.516   0.704
    1CAL  Ca0Pd 7989   2.996   3.621   1.009
    1CAL  Ca0Pe 7990   2.750   4.530   0.090
    1CAL  Ca0Pf 7991   2.996   4.424   1.009
    1CAL  Ca0Pg 7992   2.250   4.530   0.090
    1CAL  Ca0Ph 7993   3.500   3.422   0.396
    1CAL  Ca0Pi 7994   3.503   4.023   1.008
    1CAL  Ca0Pj 7995   3.502   3.219   1.009
    1CAL  Ca0Pk 7996   2.750   3.918   0.704
    1CAL  Ca0Pl 7997   3.750   4.721   0.704
    1CAL  Ca0Pm 7998   3.250   3.918   0.704
    1CAL  Ca0Pn 7999   2.249   3.516   0.704
    1CAL  Ca0Po 8000   4.000   4.225   0.395
    1CAL  C00Pp 8001   4.000   4.730   1.317
    1CAL  C00Pq 8002   3.250   3.220   1.624
    1CAL  C00Pr 8003   2.250   3.220   1.624
    1CAL  C00Ps 8004   3.499   3.718   1.930
    1CAL  C00Pt 8005   3.499   4.521   1.930
    1CAL  C00Pu 8006   2.750   3.220   1.624
    1CAL  C00Pv 8007   3.000   3.928   1.317
    1CAL  C00Pw 8008   3.250   4.425   1.621
    1CAL  C00Px 8009   2.750   4.425   1.622
    1CAL  C00Py 8010   2.500   4.120   1.931
    1CAL  C00Pz 8011   2.500   3.526   1.317
    1CAL  C00Q0 8012   3.000   4.330   1.317
    1CAL  C00Q1 8013   3.000   3.526   1.317
    1CAL  C00Q2 8014   2.250   3.623   1.624
    1CAL  C00Q3 8015   2.500   3.316   1.931
    1CAL  C00Q4 8016   3.000   4.120   1.930
    1CAL  C00Q5 8017   3.750   3.220   1.624
    1CAL  C00Q6 8018   3.500   3.316   1.931
    1CAL  C00Q7 8019   2.250   4.025   1.624
    1CAL  C00Q8 8020   3.999   3.718   1.931
    1CAL  C00Q9 8021   4.000   4.120   1.930
    1CAL  C00QA 8022   4.000   3.526   1.317
    1CAL  C00QB 8023   4.000   4.330   1.317
    1CAL  C00QC 8024   2.250   4.425   1.622
    1CAL  C00QD 8025   2.499   3.718   1.930
    1CAL  C00QE 8026   3.500   3.928   1.317
    1CAL  C00QF 8027   4.000   3.928   1.317
    1CAL  C00QG 8028   3.750   3.623   1.624
    1CAL  C00QH 8029   3.250   3.623   1.624
    1CAL  C00QI 8030   3.500   3.526   1.317
    1CAL  C00QJ 8031   3.500   4.120   1.930
    1CAL  C00QK 8032   2.498   4.521   1.930
    1CAL  C00QL 8033   3.500   4.730   1.317
    1CAL  C00QM 8034   2.750   3.623   1.624
    1CAL  C00QN 8035   3.250   4.025   1.624
    1CAL  C00QO 8036   2.500   4.330   1.317
    1CAL  C00QP 8037   3.750   4.425   1.621
    1CAL  C00QQ 8038   3.000   4.730   1.317
    1CAL  C00QR 8039   3.999   4.521   1.931
    1CAL  C00QS 8040   3.000   3.316   1.930
    1CAL  C00QT 8041   2.999   4.521   1.930
    1CAL  C00QU 8042   2.999   3.718   1.931
    1CAL  C00QV 8043   3.750   4.025   1.624
    1CAL  C00QW 8044   2.500   4.730   1.317
    1CAL  C00QX 8045   3.500   4.330   1.317
    1CAL  C00QY 8046   2.500   3.928   1.317
    1CAL  C00QZ 8047   2.750   4.025   1.624
    1CAL  C00Qa 8048   4.000   3.316   1.931
    1CAL  C00Qb 8049   2.751   3.816   2.241
    1CAL  C00Qc 8050   2.747   3.415   2.241
    1CAL  C00Qd 8051   2.747   4.218   2.240
    1CAL  C00Qe 8052   2.751   4.619   2.241
    1CAL  C00Qf 8053   3.751   3.816   2.241
    1CAL  C00Qg 8054   3.747   3.415   2.241
    1CAL  C00Qh 8055   3.751   4.619   2.241
    1CAL  C00Qi 8056   3.748   4.218   2.240
    1CAL  C00Qj 8057   3.251   4.619   2.241
    1CAL  C00Qk 8058   3.248   4.217   2.241
    1CAL  C00Ql 8059   3.251   3.816   2.241
    1CAL  C00Qm 8060   3.247   3.414   2.242
    1CAL  C00Qn 8061   2.251   4.619   2.242
    1CAL  C00Qo 8062   2.248   4.217   2.242
    1CAL  C00Qp 8063   2.251   3.817   2.241
    1CAL  C00Qq 8064   2.247   3.414   2.243
    1CAL  O01FR 8065   2.185   3.947   1.703
    1CAL  O01FS 8066   3.186   4.104   1.545
    1CAL  O01FT 8067   3.185   3.947   1.703
    1CAL  O01FU 8068   3.379   4.025   1.625
    1CAL  O01FV 8069   2.564   4.651   1.396
    1CAL  O01FW 8070   2.371   4.731   1.316
    1CAL  O01FX 8071   2.564   4.007   1.238
    1CAL  O01FY 8072   2.686   4.104   1.545
    1CAL  O01FZ 8073   2.685   3.947   1.703
    1CAL  O01Fa 8074   2.879   4.025   1.625
    1CAL  O01Fb 8075   2.565   4.808   1.238
    1CAL  O01Fc 8076   2.564   3.850   1.396
    1CAL  O01Fd 8077   2.371   3.928   1.317
    1CAL  O01Fe 8078   3.128   4.520   1.931
    1CAL  O01Ff 8079   2.935   4.599   1.850
    1CAL  O01Fg 8080   2.936   3.797   1.850
    1CAL  O01Fh 8081   2.933   3.640   2.010
    1CAL  O01Fi 8082   3.128   3.717   1.932
    1CAL  O01Fj 8083   2.933   4.443   2.010
    1CAL  O01Fk 8084   2.621   3.623   1.624
    1CAL  O01Fl 8085   3.063   4.199   1.850
    1CAL  O01Fm 8086   3.122   4.425   1.621
    1CAL  O01Fn 8087   3.314   4.346   1.701
    1CAL  O01Fo 8088   3.315   4.503   1.543
    1CAL  O01Fp 8089   2.436   3.447   1.396
    1CAL  O01Fq 8090   2.435   3.604   1.238
    1CAL  O01Fr 8091   2.621   4.425   1.621
    1CAL  O01Fs 8092   2.814   4.346   1.701
    1CAL  O01Ft 8093   2.815   4.503   1.543
    1CAL  O01Fu 8094   2.314   3.702   1.545
    1CAL  O01Fv 8095   2.814   3.544   1.703
    1CAL  O01Fw 8096   2.936   4.409   1.237
    1CAL  O01Fx 8097   3.129   4.330   1.317
    1CAL  O01Fy 8098   2.314   3.544   1.704
    1CAL  O01Fz 8099   2.121   3.623   1.624
    1CAL  O01G0 8100   2.814   3.702   1.545
    1CAL  O01G1 8101   2.936   3.605   1.237
    1CAL  O01G2 8102   2.936   3.447   1.396
    1CAL  O01G3 8103   3.129   3.526   1.317
    1CAL  O01G4 8104   2.870   4.119   1.931
    1CAL  O01G5 8105   3.066   4.042   2.009
    1CAL  O01G6 8106   2.935   4.252   1.396
    1CAL  O01G7 8107   3.686   4.104   1.545
    1CAL  O01G8 8108   3.685   3.947   1.703
    1CAL  O01G9 8109   3.879   4.025   1.625
    1CAL  O01GA 8110   3.934   4.442   2.010
    1CAL  O01GB 8111   3.936   3.797   1.851
    1CAL  O01GC 8112   3.934   3.639   2.010
    1CAL  O01GD 8113   2.128   4.520   1.932
    1CAL  O01GE 8114   2.064   3.395   1.851
    1CAL  O01GF 8115   3.436   4.409   1.237
    1CAL  O01GG 8116   3.435   4.252   1.396
    1CAL  O01GH 8117   3.629   4.330   1.317
    1CAL  O01GI 8118   2.065   3.238   2.011
    1CAL  O01GJ 8119   3.434   4.443   2.010
    1CAL  O01GK 8120   2.065   4.808   1.238
    1CAL  O01GL 8121   2.064   4.651   1.396
    1CAL  O01GM 8122   2.871   4.731   1.316
    1CAL  O01GN 8123   3.871   4.119   1.932
    1CAL  O01GO 8124   3.936   3.447   1.396
    1CAL  O01GP 8125   3.064   3.395   1.851
    1CAL  O01GQ 8126   2.436   4.409   1.237
    1CAL  O01GR 8127   2.435   4.252   1.396
    1CAL  O01GS 8128   2.629   4.330   1.317
    1CAL  O01GT 8129   3.065   3.237   2.010
    1CAL  O01GU 8130   2.433   4.443   2.010
    1CAL  O01GV 8131   2.871   3.316   1.931
    1CAL  O01GW 8132   3.872   3.928   1.317
    1CAL  O01GX 8133   3.065   4.808   1.238
    1CAL  O01GY 8134   3.064   4.651   1.396
    1CAL  O01GZ 8135   3.622   4.425   1.621
    1CAL  O01Ga 8136   3.814   4.346   1.701
    1CAL  O01Gb 8137   3.815   4.503   1.542
    1CAL  O01Gc 8138   3.937   4.409   1.237
    1CAL  O01Gd 8139   3.935   4.252   1.396
    1CAL  O01Ge 8140   3.936   3.605   1.237
    1CAL  O01Gf 8141   2.629   3.526   1.316
    1CAL  O01Gg 8142   2.379   4.025   1.625
    1CAL  O01Gh 8143   2.370   4.119   1.934
    1CAL  O01Gi 8144   3.065   3.850   1.396
    1CAL  O01Gj 8145   3.564   4.651   1.396
    1CAL  O01Gk 8146   3.565   4.808   1.238
    1CAL  O01Gl 8147   3.622   3.623   1.624
    1CAL  O01Gm 8148   3.815   3.544   1.703
    1CAL  O01Gn 8149   3.372   4.731   1.316
    1CAL  O01Go 8150   3.121   3.623   1.624
    1CAL  O01Gp 8151   3.314   3.702   1.545
    1CAL  O01Gq 8152   2.628   4.520   1.931
    1CAL  O01Gr 8153   3.436   3.604   1.238
    1CAL  O01Gs 8154   3.436   3.447   1.396
    1CAL  O01Gt 8155   3.629   3.526   1.316
    1CAL  O01Gu 8156   3.371   4.119   1.933
    1CAL  O01Gv 8157   3.566   4.042   2.009
    1CAL  O01Gw 8158   3.315   3.544   1.703
    1CAL  O01Gx 8159   3.563   4.200   1.850
    1CAL  O01Gy 8160   2.065   3.850   1.396
    1CAL  O01Gz 8161   3.565   3.850   1.396
    1CAL  O01H0 8162   2.186   4.104   1.545
    1CAL  O01H1 8163   2.063   4.200   1.850
    1CAL  O01H2 8164   2.065   4.042   2.010
    1CAL  O01H3 8165   2.128   3.717   1.932
    1CAL  O01H4 8166   2.129   3.526   1.317
    1CAL  O01H5 8167   2.128   4.330   1.317
    1CAL  O01H6 8168   3.564   4.007   1.238
    1CAL  O01H7 8169   2.315   4.503   1.543
    1CAL  O01H8 8170   3.872   4.731   1.316
    1CAL  O01H9 8171   3.871   3.316   1.932
    1CAL  O01HA 8172   2.121   4.425   1.621
    1CAL  O01HB 8173   3.935   4.599   1.850
    1CAL  O01HC 8174   2.064   4.007   1.238
    1CAL  O01HD 8175   3.372   3.928   1.317
    1CAL  O01HE 8176   2.314   4.346   1.701
    1CAL  O01HF 8177   2.434   4.600   1.850
    1CAL  O01HG 8178   2.628   3.717   1.931
    1CAL  O01HH 8179   3.371   3.315   1.933
    1CAL  O01HI 8180   3.436   3.797   1.850
    1CAL  O01HJ 8181   3.434   3.640   2.010
    1CAL  O01HK 8182   3.629   3.717   1.931
    1CAL  O01HL 8183   2.879   3.220   1.624
    1CAL  O01HM 8184   2.686   4.748   1.703
    1CAL  O01HN 8185   3.434   4.599   1.850
    1CAL  O01HO 8186   3.628   4.520   1.930
    1CAL  O01HP 8187   2.686   3.299   1.545
    1CAL  O01HQ 8188   2.563   3.395   1.851
    1CAL  O01HR 8189   2.566   3.238   2.010
    1CAL  O01HS 8190   2.370   3.316   1.933
    1CAL  O01HT 8191   2.562   4.200   1.850
    1CAL  O01HU 8192   2.567   4.042   2.010
    1CAL  O01HV 8193   2.871   3.928   1.317
    1CAL  O01HW 8194   3.566   3.237   2.010
    1CAL  O01HX 8195   3.564   3.395   1.851
    1CAL  O01HY 8196   2.433   3.640   2.010
    1CAL  O01HZ 8197   2.435   3.798   1.851
    1CAL  O01Ha 8198   3.686   3.299   1.545
    1CAL  O01Hb 8199   3.686   4.748   1.703
    1CAL  O01Hc 8200   3.879   3.220   1.624
    1CAL  O01Hd 8201   2.379   3.221   1.624
    1CAL  O01He 8202   2.186   4.748   1.703
    1CAL  O01Hf 8203   2.185   3.299   1.545
    1CAL  O01Hg 8204   3.186   3.299   1.545
    1CAL  O01Hh 8205   3.186   4.748   1.703
    1CAL  O01Hi 8206   3.379   3.221   1.624
    1CAL  O01Hj 8207   3.064   4.007   1.238
    1CAL  O01Hk 8208   3.815   3.702   1.545
    1CAL  O01Hl 8209   2.820   4.693   2.159
    1CAL  O01Hm 8210   2.811   4.541   2.325
    1CAL  O01Hn 8211   2.621   4.625   2.239
    1CAL  O01Ho 8212   2.678   4.292   2.158
    1CAL  O01Hp 8213   2.687   4.141   2.324
    1CAL  O01Hq 8214   2.877   4.223   2.237
    1CAL  O01Hr 8215   2.877   3.420   2.238
    1CAL  O01Hs 8216   2.687   3.337   2.325
    1CAL  O01Ht 8217   2.678   3.488   2.159
    1CAL  O01Hu 8218   2.621   3.822   2.238
    1CAL  O01Hv 8219   2.811   3.738   2.324
    1CAL  O01Hw 8220   2.820   3.890   2.159
    1CAL  O01Hx 8221   3.679   4.292   2.158
    1CAL  O01Hy 8222   3.877   4.223   2.238
    1CAL  O01Hz 8223   3.687   4.140   2.324
    1CAL  O01I0 8224   3.622   4.624   2.238
    1CAL  O01I1 8225   3.811   4.541   2.324
    1CAL  O01I2 8226   3.820   4.693   2.159
    1CAL  O01I3 8227   3.678   3.488   2.159
    1CAL  O01I4 8228   3.877   3.420   2.238
    1CAL  O01I5 8229   3.687   3.337   2.325
    1CAL  O01I6 8230   3.621   3.821   2.238
    1CAL  O01I7 8231   3.811   3.738   2.324
    1CAL  O01I8 8232   3.820   3.890   2.159
    1CAL  O01I9 8233   3.311   4.541   2.325
    1CAL  O01IA 8234   3.121   4.624   2.239
    1CAL  O01IB 8235   3.320   4.692   2.159
    1CAL  O01IC 8236   3.179   4.291   2.159
    1CAL  O01ID 8237   3.188   4.139   2.325
    1CAL  O01IE 8238   3.378   4.223   2.239
    1CAL  O01IF 8239   3.311   3.738   2.325
    1CAL  O01IG 8240   3.320   3.889   2.159
    1CAL  O01IH 8241   3.121   3.822   2.238
    1CAL  O01II 8242   3.179   3.488   2.160
    1CAL  O01IJ 8243   3.187   3.336   2.325
    1CAL  O01IK 8244   3.377   3.420   2.240
    1CAL  O01IL 8245   2.310   4.541   2.326
    1CAL  O01IM 8246   2.121   4.625   2.239
    1CAL  O01IN 8247   2.320   4.692   2.160
    1CAL  O01IO 8248   2.179   4.291   2.160
    1CAL  O01IP 8249   2.188   4.139   2.325
    1CAL  O01IQ 8250   2.378   4.223   2.241
    1CAL  O01IR 8251   2.310   3.739   2.326
    1CAL  O01IS 8252   2.121   3.822   2.238
    1CAL  O01IT 8253   2.320   3.890   2.159
    1CAL  O01IU 8254   2.377   3.420   2.241
    1CAL  O01IV 8255   2.187   3.336   2.326
    1CAL  O01IW 8256   2.179   3.488   2.161
    1CAL  Ca0Pp 8257   3.002   4.023   2.236
    1CAL  Ca0Pq 8258   3.750   3.727   1.317
    1CAL  Ca0Pr 8259   3.496   4.424   2.237
    1CAL  Ca0Ps 8260   2.002   4.023   2.237
    1CAL  Ca0Pt 8261   2.750   4.720   1.932
    1CAL  Ca0Pu 8262   3.750   4.129   1.317
    1CAL  Ca0Pv 8263   3.500   3.824   1.624
    1CAL  Ca0Pw 8264   3.500   4.626   1.624
    1CAL  Ca0Px 8265   2.249   4.319   1.931
    1CAL  Ca0Py 8266   3.000   4.626   1.624
    1CAL  Ca0Pz 8267   2.502   3.220   2.237
    1CAL  Ca0Q0 8268   2.250   3.727   1.317
    1CAL  Ca0Q1 8269   2.250   3.918   1.932
    1CAL  Ca0Q2 8270   3.997   3.621   2.237
    1CAL  Ca0Q3 8271   3.997   4.424   2.237
    1CAL  Ca0Q4 8272   3.749   4.319   1.930
    1CAL  Ca0Q5 8273   3.250   3.325   1.317
    1CAL  Ca0Q6 8274   4.000   4.626   1.624
    1CAL  Ca0Q7 8275   3.750   3.325   1.317
    1CAL  Ca0Q8 8276   2.495   3.622   2.237
    1CAL  Ca0Q9 8277   2.002   3.220   2.238
    1CAL  Ca0QA 8278   3.751   3.918   1.932
    1CAL  Ca0QB 8279   2.250   4.129   1.317
    1CAL  Ca0QC 8280   4.000   3.824   1.624
    1CAL  Ca0QD 8281   3.500   4.225   1.623
    1CAL  Ca0QE 8282   2.250   4.721   1.932
    1CAL  Ca0QF 8283   3.750   4.530   1.318
    1CAL  Ca0QG 8284   2.500   4.225   1.623
    1CAL  Ca0QH 8285   2.496   4.425   2.237
    1CAL  Ca0QI 8286   4.000   3.422   1.624
    1CAL  Ca0QJ 8287   2.500   4.626   1.624
    1CAL  Ca0QK 8288   3.496   3.621   2.237
    1CAL  Ca0QL 8289   3.250   4.129   1.317
    1CAL  Ca0QM 8290   2.750   4.129   1.317
    1CAL  Ca0QN 8291   3.000   3.422   1.624
    1CAL  Ca0QO 8292   3.000   4.225   1.623
    1CAL  Ca0QP 8293   2.500   3.824   1.624
    1CAL  Ca0QQ 8294   3.000   3.824   1.624
    1CAL  Ca0QR 8295   2.749   4.319   1.931
    1CAL  Ca0QS 8296   2.250   3.325   1.317
    1CAL  Ca0QT 8297   2.750   3.727   1.317
    1CAL  Ca0QU 8298   3.250   3.727   1.317
    1CAL  Ca0QV 8299   3.249   4.319   1.931
    1CAL  Ca0QW 8300   3.250   4.720   1.932
    1CAL  Ca0QX 8301   3.749   3.516   1.932
    1CAL  Ca0QY 8302   3.002   3.220   2.237
    1CAL  Ca0QZ 8303   2.748   3.516   1.932
    1CAL  Ca0Qa 8304   2.503   4.023   2.236
    1CAL  Ca0Qb 8305   2.500   3.422   1.624
    1CAL  Ca0Qc 8306   2.750   3.325   1.317
    1CAL  Ca0Qd 8307   3.250   4.530   1.318
    1CAL  Ca0Qe 8308   3.249   3.516   1.932
    1CAL  Ca0Qf 8309   2.996   3.621   2.237
    1CAL  Ca0Qg 8310   2.750   4.530   1.318
    1CAL  Ca0Qh 8311   2.996   4.424   2.237
    1CAL  Ca0Qi 8312   2.250   4.530   1.318
    1CAL  Ca0Qj 8313   3.500   3.422   1.624
    1CAL  Ca0Qk 8314   3.503   4.023   2.236
    1CAL  Ca0Ql 8315   3.502   3.219   2.237
    1CAL  Ca0Qm 8316   2.750   3.918   1.932
    1CAL  Ca0Qn 8317   3.750   4.721   1.932
    1CAL  Ca0Qo 8318   3.250   3.918   1.932
    1CAL  Ca0Qp 8319   2.249   3.516   1.932
    1CAL  Ca0Qq 8320   4.000   4.225   1.623
    1CAL  C00Qr 8321   4.000   4.730   2.545
    1CAL  C00Qs 8322   3.250   3.220   2.852
    1CAL  C00Qt 8323   2.250   3.220   2.852
    1CAL  C00Qu 8324   3.499   3.718   3.158
    1CAL  C00Qv 8325   3.499   4.521   3.158
    1CAL  C00Qw 8326   2.750   3.220   2.852
    1CAL  C00Qx 8327   3.000   3.928   2.545
    1CAL  C00Qy 8328   3.250   4.425   2.849
    1CAL  C00Qz 8329   2.750   4.425   2.850
    1CAL  C00R0 8330   2.500   4.120   3.159
    1CAL  C00R1 8331   2.500   3.526   2.545
    1CAL  C00R2 8332   3.000   4.330   2.545
    1CAL  C00R3 8333   3.000   3.526   2.545
    1CAL  C00R4 8334   2.250   3.623   2.852
    1CAL  C00R5 8335   2.500   3.316   3.159
    1CAL  C00R6 8336   3.000   4.120   3.158
    1CAL  C00R7 8337   3.750   3.220   2.852
    1CAL  C00R8 8338   3.500   3.316   3.159
    1CAL  C00R9 8339   2.250   4.025   2.852
    1CAL  C00RA 8340   3.999   3.718   3.159
    1CAL  C00RB 8341   4.000   4.120   3.158
    1CAL  C00RC 8342   4.000   3.526   2.545
    1CAL  C00RD 8343   4.000   4.330   2.545
    1CAL  C00RE 8344   2.250   4.425   2.850
    1CAL  C00RF 8345   2.499   3.718   3.158
    1CAL  C00RG 8346   3.500   3.928   2.545
    1CAL  C00RH 8347   4.000   3.928   2.545
    1CAL  C00RI 8348   3.750   3.623   2.852
    1CAL  C00RJ 8349   3.250   3.623   2.852
    1CAL  C00RK 8350   3.500   3.526   2.545
    1CAL  C00RL 8351   3.500   4.120   3.158
    1CAL  C00RM 8352   2.498   4.521   3.158
    1CAL  C00RN 8353   3.500   4.730   2.545
    1CAL  C00RO 8354   2.750   3.623   2.852
    1CAL  C00RP 8355   3.250   4.025   2.852
    1CAL  C00RQ 8356   2.500   4.330   2.545
    1CAL  C00RR 8357   3.750   4.425   2.849
    1CAL  C00RS 8358   3.000   4.730   2.545
    1CAL  C00RT 8359   3.999   4.521   3.159
    1CAL  C00RU 8360   3.000   3.316   3.158
    1CAL  C00RV 8361   2.999   4.521   3.158
    1CAL  C00RW 8362   2.999   3.718   3.159
    1CAL  C00RX 8363   3.750   4.025   2.852
    1CAL  C00RY 8364   2.500   4.730   2.545
    1CAL  C00RZ 8365   3.500   4.330   2.545
    1CAL  C00Ra 8366   2.500   3.928   2.545
    1CAL  C00Rb 8367   2.750   4.025   2.852
    1CAL  C00Rc 8368   4.000   3.316   3.159
    1CAL  C00Rd 8369   2.751   3.816   3.469
    1CAL  C00Re 8370   2.747   3.415   3.469
    1CAL  C00Rf 8371   2.747   4.218   3.468
    1CAL  C00Rg 8372   2.751   4.619   3.469
    1CAL  C00Rh 8373   3.751   3.816   3.469
    1CAL  C00Ri 8374   3.747   3.415   3.469
    1CAL  C00Rj 8375   3.751   4.619   3.469
    1CAL  C00Rk 8376   3.748   4.218   3.468
    1CAL  C00Rl 8377   3.251   4.619   3.469
    1CAL  C00Rm 8378   3.248   4.217   3.469
    1CAL  C00Rn 8379   3.251   3.816   3.469
    1CAL  C00Ro 8380   3.247   3.414   3.470
    1CAL  C00Rp 8381   2.251   4.619   3.470
    1CAL  C00Rq 8382   2.248   4.217   3.470
    1CAL  C00Rr 8383   2.251   3.817   3.469
    1CAL  C00Rs 8384   2.247   3.414   3.471
    1CAL  O01IX 8385   2.185   3.947   2.931
    1CAL  O01IY 8386   3.186   4.104   2.773
    1CAL  O01IZ 8387   3.185   3.947   2.931
    1CAL  O01Ia 8388   3.379   4.025   2.853
    1CAL  O01Ib 8389   2.564   4.651   2.624
    1CAL  O01Ic 8390   2.371   4.731   2.544
    1CAL  O01Id 8391   2.564   4.007   2.466
    1CAL  O01Ie 8392   2.686   4.104   2.773
    1CAL  O01If 8393   2.685   3.947   2.931
    1CAL  O01Ig 8394   2.879   4.025   2.853
    1CAL  O01Ih 8395   2.565   4.808   2.466
    1CAL  O01Ii 8396   2.564   3.850   2.624
    1CAL  O01Ij 8397   2.371   3.928   2.545
    1CAL  O01Ik 8398   3.128   4.520   3.159
    1CAL  O01Il 8399   2.935   4.599   3.078
    1CAL  O01Im 8400   2.936   3.797   3.078
    1CAL  O01In 8401   2.933   3.640   3.238
    1CAL  O01Io 8402   3.128   3.717   3.160
    1CAL  O01Ip 8403   2.933   4.443   3.238
    1CAL  O01Iq 8404   2.621   3.623   2.852
    1CAL  O01Ir 8405   3.063   4.199   3.078
    1CAL  O01Is 8406   3.122   4.425   2.849
    1CAL  O01It 8407   3.314   4.346   2.929
    1CAL  O01Iu 8408   3.315   4.503   2.771
    1CAL  O01Iv 8409   2.436   3.447   2.624
    1CAL  O01Iw 8410   2.435   3.604   2.466
    1CAL  O01Ix 8411   2.621   4.425   2.849
    1CAL  O01Iy 8412   2.814   4.346   2.929
    1CAL  O01Iz 8413   2.815   4.503   2.771
    1CAL  O01J0 8414   2.314   3.702   2.773
    1CAL  O01J1 8415   2.814   3.544   2.931
    1CAL  O01J2 8416   2.936   4.409   2.465
    1CAL  O01J3 8417   3.129   4.330   2.545
    1CAL  O01J4 8418   2.314   3.544   2.932
    1CAL  O01J5 8419   2.121   3.623   2.852
    1CAL  O01J6 8420   2.814   3.702   2.773
    1CAL  O01J7 8421   2.936   3.605   2.465
    1CAL  O01J8 8422   2.936   3.447   2.624
    1CAL  O01J9 8423   3.129   3.526   2.545
    1CAL  O01JA 8424   2.870   4.119   3.159
    1CAL  O01JB 8425   3.066   4.042   3.237
    1CAL  O01JC 8426   2.935   4.252   2.624
    1CAL  O01JD 8427   3.686   4.104   2.773
    1CAL  O01JE 8428   3.685   3.947   2.931
    1CAL  O01JF 8429   3.879   4.025   2.853
    1CAL  O01JG 8430   3.934   4.442   3.238
    1CAL  O01JH 8431   3.936   3.797   3.079
    1CAL  O01JI 8432   3.934   3.639   3.238
    1CAL  O01JJ 8433   2.128   4.520   3.160
    1CAL  O01JK 8434   2.064   3.395   3.079
    1CAL  O01JL 8435   3.436   4.409   2.465
    1CAL  O01JM 8436   3.435   4.252   2.624
    1CAL  O01JN 8437   3.629   4.330   2.545
    1CAL  O01JO 8438   2.065   3.238   3.239
    1CAL  O01JP 8439   3.434   4.443   3.238
    1CAL  O01JQ 8440   2.065   4.808   2.466
    1CAL  O01JR 8441   2.064   4.651   2.624
    1CAL  O01JS 8442   2.871   4.731   2.544
    1CAL  O01JT 8443   3.871   4.119   3.160
    1CAL  O01JU 8444   3.936   3.447   2.624
    1CAL  O01JV 8445   3.064   3.395   3.079
    1CAL  O01JW 8446   2.436   4.409   2.465
    1CAL  O01JX 8447   2.435   4.252   2.624
    1CAL  O01JY 8448   2.629   4.330   2.545
    1CAL  O01JZ 8449   3.065   3.237   3.238
    1CAL  O01Ja 8450   2.433   4.443   3.238
    1CAL  O01Jb 8451   2.871   3.316   3.159
    1CAL  O01Jc 8452   3.872   3.928   2.545
    1CAL  O01Jd 8453   3.065   4.808   2.466
    1CAL  O01Je 8454   3.064   4.651   2.624
    1CAL  O01Jf 8455   3.622   4.425   2.849
    1CAL  O01Jg 8456   3.814   4.346   2.929
    1CAL  O01Jh 8457   3.815   4.503   2.770
    1CAL  O01Ji 8458   3.937   4.409   2.465
    1CAL  O01Jj 8459   3.935   4.252   2.624
    1CAL  O01Jk 8460   3.936   3.605   2.465
    1CAL  O01Jl 8461   2.629   3.526   2.544
    1CAL  O01Jm 8462   2.379   4.025   2.853
    1CAL  O01Jn 8463   2.370   4.119   3.162
    1CAL  O01Jo 8464   3.065   3.850   2.624
    1CAL  O01Jp 8465   3.564   4.651   2.624
    1CAL  O01Jq 8466   3.565   4.808   2.466
    1CAL  O01Jr 8467   3.622   3.623   2.852
    1CAL  O01Js 8468   3.815   3.544   2.931
    1CAL  O01Jt 8469   3.372   4.731   2.544
    1CAL  O01Ju 8470   3.121   3.623   2.852
    1CAL  O01Jv 8471   3.314   3.702   2.773
    1CAL  O01Jw 8472   2.628   4.520   3.159
    1CAL  O01Jx 8473   3.436   3.604   2.466
    1CAL  O01Jy 8474   3.436   3.447   2.624
    1CAL  O01Jz 8475   3.629   3.526   2.544
    1CAL  O01K0 8476   3.371   4.119   3.161
    1CAL  O01K1 8477   3.566   4.042   3.237
    1CAL  O01K2 8478   3.315   3.544   2.931
    1CAL  O01K3 8479   3.563   4.200   3.078
    1CAL  O01K4 8480   2.065   3.850   2.624
    1CAL  O01K5 8481   3.565   3.850   2.624
    1CAL  O01K6 8482   2.186   4.104   2.773
    1CAL  O01K7 8483   2.063   4.200   3.078
    1CAL  O01K8 8484   2.065   4.042   3.238
    1CAL  O01K9 8485   2.128   3.717   3.160
    1CAL  O01KA 8486   2.129   3.526   2.545
    1CAL  O01KB 8487   2.128   4.330   2.545
    1CAL  O01KC 8488   3.564   4.007   2.466
    1CAL  O01KD 8489   2.315   4.503   2.771
    1CAL  O01KE 8490   3.872   4.731   2.544
    1CAL  O01KF 8491   3.871   3.316   3.160
    1CAL  O01KG 8492   2.121   4.425   2.849
    1CAL  O01KH 8493   3.935   4.599   3.078
    1CAL  O01KI 8494   2.064   4.007   2.466
    1CAL  O01KJ 8495   3.372   3.928   2.545
    1CAL  O01KK 8496   2.314   4.346   2.929
    1CAL  O01KL 8497   2.434   4.600   3.078
    1CAL  O01KM 8498   2.628   3.717   3.159
    1CAL  O01KN 8499   3.371   3.315   3.161
    1CAL  O01KO 8500   3.436   3.797   3.078
    1CAL  O01KP 8501   3.434   3.640   3.238
    1CAL  O01KQ 8502   3.629   3.717   3.159
    1CAL  O01KR 8503   2.879   3.220   2.852
    1CAL  O01KS 8504   2.686   4.748   2.931
    1CAL  O01KT 8505   3.434   4.599   3.078
    1CAL  O01KU 8506   3.628   4.520   3.158
    1CAL  O01KV 8507   2.686   3.299   2.773
    1CAL  O01KW 8508   2.563   3.395   3.079
    1CAL  O01KX 8509   2.566   3.238   3.238
    1CAL  O01KY 8510   2.370   3.316   3.161
    1CAL  O01KZ 8511   2.562   4.200   3.078
    1CAL  O01Ka 8512   2.567   4.042   3.238
    1CAL  O01Kb 8513   2.871   3.928   2.545
    1CAL  O01Kc 8514   3.566   3.237   3.238
    1CAL  O01Kd 8515   3.564   3.395   3.079
    1CAL  O01Ke 8516   2.433   3.640   3.238
    1CAL  O01Kf 8517   2.435   3.798   3.079
    1CAL  O01Kg 8518   3.686   3.299   2.773
    1CAL  O01Kh 8519   3.686   4.748   2.931
    1CAL  O01Ki 8520   3.879   3.220   2.852
    1CAL  O01Kj 8521   2.379   3.221   2.852
    1CAL  O01Kk 8522   2.186   4.748   2.931
    1CAL  O01Kl 8523   2.185   3.299   2.773
    1CAL  O01Km 8524   3.186   3.299   2.773
    1CAL  O01Kn 8525   3.186   4.748   2.931
    1CAL  O01Ko 8526   3.379   3.221   2.852
    1CAL  O01Kp 8527   3.064   4.007   2.466
    1CAL  O01Kq 8528   3.815   3.702   2.773
    1CAL  O01Kr 8529   2.820   4.693   3.387
    1CAL  O01Ks 8530   2.811   4.541   3.553
    1CAL  O01Kt 8531   2.621   4.625   3.467
    1CAL  O01Ku 8532   2.678   4.292   3.386
    1CAL  O01Kv 8533   2.687   4.141   3.552
    1CAL  O01Kw 8534   2.877   4.223   3.465
    1CAL  O01Kx 8535   2.877   3.420   3.466
    1CAL  O01Ky 8536   2.687   3.337   3.553
    1CAL  O01Kz 8537   2.678   3.488   3.387
    1CAL  O01L0 8538   2.621   3.822   3.466
    1CAL  O01L1 8539   2.811   3.738   3.552
    1CAL  O01L2 8540   2.820   3.890   3.387
    1CAL  O01L3 8541   3.679   4.292   3.386
    1CAL  O01L4 8542   3.877   4.223   3.466
    1CAL  O01L5 8543   3.687   4.140   3.552
    1CAL  O01L6 8544   3.622   4.624   3.466
    1CAL  O01L7 8545   3.811   4.541   3.552
    1CAL  O01L8 8546   3.820   4.693   3.387
    1CAL  O01L9 8547   3.678   3.488   3.387
    1CAL  O01LA 8548   3.877   3.420   3.466
    1CAL  O01LB 8549   3.687   3.337   3.553
    1CAL  O01LC 8550   3.621   3.821   3.466
    1CAL  O01LD 8551   3.811   3.738   3.552
    1CAL  O01LE 8552   3.820   3.890   3.387
    1CAL  O01LF 8553   3.311   4.541   3.553
    1CAL  O01LG 8554   3.121   4.624   3.467
    1CAL  O01LH 8555   3.320   4.692   3.387
    1CAL  O01LI 8556   3.179   4.291   3.387
    1CAL  O01LJ 8557   3.188   4.139   3.553
    1CAL  O01LK 8558   3.378   4.223   3.467
    1CAL  O01LL 8559   3.311   3.738   3.553
    1CAL  O01LM 8560   3.320   3.889   3.387
    1CAL  O01LN 8561   3.121   3.822   3.466
    1CAL  O01LO 8562   3.179   3.488   3.388
    1CAL  O01LP 8563   3.187   3.336   3.553
    1CAL  O01LQ 8564   3.377   3.420   3.468
    1CAL  O01LR 8565   2.310   4.541   3.554
    1CAL  O01LS 8566   2.121   4.625   3.467
    1CAL  O01LT 8567   2.320   4.692   3.388
    1CAL  O01LU 8568   2.179   4.291   3.388
    1CAL  O01LV 8569   2.188   4.139   3.553
    1CAL  O01LW 8570   2.378   4.223   3.469
    1CAL  O01LX 8571   2.310   3.739   3.554
    1CAL  O01LY 8572   2.121   3.822   3.466
    1CAL  O01LZ 8573   2.320   3.890   3.387
    1CAL  O01La 8574   2.377   3.420   3.469
    1CAL  O01Lb 8575   2.187   3.336   3.554
    1CAL  O01Lc 8576   2.179   3.488   3.389
    1CAL  Ca0Qr 8577   3.002   4.023   3.464
    1CAL  Ca0Qs 8578   3.750   3.727   2.545
    1CAL  Ca0Qt 8579   3.496   4.424   3.465
    1CAL  Ca0Qu 8580   2.002   4.023   3.465
    1CAL  Ca0Qv 8581   2.750   4.720   3.160
    1CAL  Ca0Qw 8582   3.750   4.129   2.545
    1CAL  Ca0Qx 8583   3.500   3.824   2.852
    1CAL  Ca0Qy 8584   3.500   4.626   2.852
    1CAL  Ca0Qz 8585   2.249   4.319   3.159
    1CAL  Ca0R0 8586   3.000   4.626   2.852
    1CAL  Ca0R1 8587   2.502   3.220   3.465
    1CAL  Ca0R2 8588   2.250   3.727   2.545
    1CAL  Ca0R3 8589   2.250   3.918   3.160
    1CAL  Ca0R4 8590   3.997   3.621   3.465
    1CAL  Ca0R5 8591   3.997   4.424   3.465
    1CAL  Ca0R6 8592   3.749   4.319   3.158
    1CAL  Ca0R7 8593   3.250   3.325   2.545
    1CAL  Ca0R8 8594   4.000   4.626   2.852
    1CAL  Ca0R9 8595   3.750   3.325   2.545
    1CAL  Ca0RA 8596   2.495   3.622   3.465
    1CAL  Ca0RB 8597   2.002   3.220   3.466
    1CAL  Ca0RC 8598   3.751   3.918   3.160
    1CAL  Ca0RD 8599   2.250   4.129   2.545
    1CAL  Ca0RE 8600   4.000   3.824   2.852
    1CAL  Ca0RF 8601   3.500   4.225   2.851
    1CAL  Ca0RG 8602   2.250   4.721   3.160
    1CAL  Ca0RH 8603   3.750   4.530   2.546
    1CAL  Ca0RI 8604   2.500   4.225   2.851
    1CAL  Ca0RJ 8605   2.496   4.425   3.465
    1CAL  Ca0RK 8606   4.000   3.422   2.852
    1CAL  Ca0RL 8607   2.500   4.626   2.852
    1CAL  Ca0RM 8608   3.496   3.621   3.465
    1CAL  Ca0RN 8609   3.250   4.129   2.545
    1CAL  Ca0RO 8610   2.750   4.129   2.545
    1CAL  Ca0RP 8611   3.000   3.422   2.852
    1CAL  Ca0RQ 8612   3.000   4.225   2.851
    1CAL  Ca0RR 8613   2.500   3.824   2.852
    1CAL  Ca0RS 8614   3.000   3.824   2.852
    1CAL  Ca0RT 8615   2.749   4.319   3.159
    1CAL  Ca0RU 8616   2.250   3.325   2.545
    1CAL  Ca0RV 8617   2.750   3.727   2.545
    1CAL  Ca0RW 8618   3.250   3.727   2.545
    1CAL  Ca0RX 8619   3.249   4.319   3.159
    1CAL  Ca0RY 8620   3.250   4.720   3.160
    1CAL  Ca0RZ 8621   3.749   3.516   3.160
    1CAL  Ca0Ra 8622   3.002   3.220   3.465
    1CAL  Ca0Rb 8623   2.748   3.516   3.160
    1CAL  Ca0Rc 8624   2.503   4.023   3.464
    1CAL  Ca0Rd 8625   2.500   3.422   2.852
    1CAL  Ca0Re 8626   2.750   3.325   2.545
    1CAL  Ca0Rf 8627   3.250   4.530   2.546
    1CAL  Ca0Rg 8628   3.249   3.516   3.160
    1CAL  Ca0Rh 8629   2.996   3.621   3.465
    1CAL  Ca0Ri 8630   2.750   4.530   2.546
    1CAL  Ca0Rj 8631   2.996   4.424   3.465
    1CAL  Ca0Rk 8632   2.250   4.530   2.546
    1CAL  Ca0Rl 8633   3.500   3.422   2.852
    1CAL  Ca0Rm 8634   3.503   4.023   3.464
    1CAL  Ca0Rn 8635   3.502   3.219   3.465
    1CAL  Ca0Ro 8636   2.750   3.918   3.160
    1CAL  Ca0Rp 8637   3.750   4.721   3.160
    1CAL  Ca0Rq 8638   3.250   3.918   3.160
    1CAL  Ca0Rr 8639   2.249   3.516   3.160
    1CAL  Ca0Rs 8640   4.000   4.225   2.851
    1CAL  C00Rt 8641   4.000   6.336   0.089
    1CAL  C00Ru 8642   3.250   4.826   0.396
    1CAL  C00Rv 8643   2.250   4.826   0.396
    1CAL  C00Rw 8644   3.499   5.324   0.702
    1CAL  C00Rx 8645   3.499   6.127   0.702
    1CAL  C00Ry 8646   2.750   4.826   0.396
    1CAL  C00Rz 8647   3.000   5.534   0.089
    1CAL  C00S0 8648   3.250   6.031   0.393
    1CAL  C00S1 8649   2.750   6.031   0.394
    1CAL  C00S2 8650   2.500   5.726   0.703
    1CAL  C00S3 8651   2.500   5.132   0.089
    1CAL  C00S4 8652   3.000   5.936   0.089
    1CAL  C00S5 8653   3.000   5.132   0.089
    1CAL  C00S6 8654   2.250   5.229   0.396
    1CAL  C00S7 8655   2.500   4.922   0.703
    1CAL  C00S8 8656   3.000   5.726   0.702
    1CAL  C00S9 8657   3.750   4.826   0.396
    1CAL  C00SA 8658   3.500   4.922   0.703
    1CAL  C00SB 8659   2.250   5.631   0.396
    1CAL  C00SC 8660   3.999   5.324   0.703
    1CAL  C00SD 8661   4.000   5.726   0.702
    1CAL  C00SE 8662   4.000   5.132   0.089
    1CAL  C00SF 8663   4.000   5.936   0.089
    1CAL  C00SG 8664   2.250   6.031   0.394
    1CAL  C00SH 8665   2.499   5.324   0.702
    1CAL  C00SI 8666   3.500   5.534   0.089
    1CAL  C00SJ 8667   4.000   5.534   0.089
    1CAL  C00SK 8668   3.750   5.229   0.396
    1CAL  C00SL 8669   3.250   5.229   0.396
    1CAL  C00SM 8670   3.500   5.132   0.089
    1CAL  C00SN 8671   3.500   5.726   0.702
    1CAL  C00SO 8672   2.498   6.127   0.702
    1CAL  C00SP 8673   3.500   6.336   0.089
    1CAL  C00SQ 8674   2.750   5.229   0.396
    1CAL  C00SR 8675   3.250   5.631   0.396
    1CAL  C00SS 8676   2.500   5.936   0.089
    1CAL  C00ST 8677   3.750   6.031   0.393
    1CAL  C00SU 8678   3.000   6.336   0.089
    1CAL  C00SV 8679   3.999   6.127   0.703
    1CAL  C00SW 8680   3.000   4.922   0.702
    1CAL  C00SX 8681   2.999   6.127   0.702
    1CAL  C00SY 8682   2.999   5.324   0.703
    1CAL  C00SZ 8683   3.750   5.631   0.396
    1CAL  C00Sa 8684   2.500   6.336   0.089
    1CAL  C00Sb 8685   3.500   5.936   0.089
    1CAL  C00Sc 8686   2.500   5.534   0.089
    1CAL  C00Sd 8687   2.750   5.631   0.396
    1CAL  C00Se 8688   4.000   4.922   0.703
    1CAL  C00Sf 8689   2.751   5.422   1.013
    1CAL  C00Sg 8690   2.747   5.021   1.013
    1CAL  C00Sh 8691   2.747   5.824   1.012
    1CAL  C00Si 8692   2.751   6.225   1.013
    1CAL  C00Sj 8693   3.751   5.422   1.013
    1CAL  C00Sk 8694   3.747   5.021   1.013
    1CAL  C00Sl 8695   3.751   6.225   1.013
    1CAL  C00Sm 8696   3.748   5.824   1.012
    1CAL  C00Sn 8697   3.251   6.225   1.013
    1CAL  C00So 8698   3.248   5.823   1.013
    1CAL  C00Sp 8699   3.251   5.422   1.013
    1CAL  C00Sq 8700   3.247   5.020   1.014
    1CAL  C00Sr 8701   2.251   6.225   1.014
    1CAL  C00Ss 8702   2.248   5.823   1.014
    1CAL  C00St 8703   2.251   5.423   1.013
    1CAL  C00Su 8704   2.247   5.020   1.015
    1CAL  O01Ld 8705   2.185   5.553   0.475
    1CAL  O01Le 8706   3.186   5.710   0.317
    1CAL  O01Lf 8707   3.185   5.553   0.475
    1CAL  O01Lg 8708   3.379   5.631   0.397
    1CAL  O01Lh 8709   2.564   6.257   0.168
    1CAL  O01Li 8710   2.371   6.337   0.088
    1CAL  O01Lj 8711   2.564   5.613   0.010
    1CAL  O01Lk 8712   2.686   5.710   0.317
    1CAL  O01Ll 8713   2.685   5.553   0.475
    1CAL  O01Lm 8714   2.879   5.631   0.397
    1CAL  O01Ln 8715   2.565   6.414   0.010
    1CAL  O01Lo 8716   2.564   5.456   0.168
    1CAL  O01Lp 8717   2.371   5.534   0.089
    1CAL  O01Lq 8718   3.128   6.126   0.703
    1CAL  O01Lr 8719   2.935   6.205   0.622
    1CAL  O01Ls 8720   2.936   5.403   0.622
    1CAL  O01Lt 8721   2.933   5.246   0.782
    1CAL  O01Lu 8722   3.128   5.323   0.704
    1CAL  O01Lv 8723   2.933   6.049   0.782
    1CAL  O01Lw 8724   2.621   5.229   0.396
    1CAL  O01Lx 8725   3.063   5.805   0.622
    1CAL  O01Ly 8726   3.122   6.031   0.393
    1CAL  O01Lz 8727   3.314   5.952   0.473
    1CAL  O01M0 8728   3.315   6.109   0.315
    1CAL  O01M1 8729   2.436   5.053   0.168
    1CAL  O01M2 8730   2.435   5.210   0.010
    1CAL  O01M3 8731   2.621   6.031   0.393
    1CAL  O01M4 8732   2.814   5.952   0.473
    1CAL  O01M5 8733   2.815   6.109   0.315
    1CAL  O01M6 8734   2.314   5.308   0.317
    1CAL  O01M7 8735   2.814   5.150   0.475
    1CAL  O01M8 8736   2.936   6.015   0.009
    1CAL  O01M9 8737   3.129   5.936   0.089
    1CAL  O01MA 8738   2.314   5.150   0.476
    1CAL  O01MB 8739   2.121   5.229   0.396
    1CAL  O01MC 8740   2.814   5.308   0.317
    1CAL  O01MD 8741   2.936   5.211   0.009
    1CAL  O01ME 8742   2.936   5.053   0.168
    1CAL  O01MF 8743   3.129   5.132   0.089
    1CAL  O01MG 8744   2.870   5.725   0.703
    1CAL  O01MH 8745   3.066   5.648   0.781
    1CAL  O01MI 8746   2.935   5.858   0.168
    1CAL  O01MJ 8747   3.686   5.710   0.317
    1CAL  O01MK 8748   3.685   5.553   0.475
    1CAL  O01ML 8749   3.879   5.631   0.397
    1CAL  O01MM 8750   3.934   6.048   0.782
    1CAL  O01MN 8751   3.936   5.403   0.623
    1CAL  O01MO 8752   3.934   5.245   0.782
    1CAL  O01MP 8753   2.128   6.126   0.704
    1CAL  O01MQ 8754   2.064   5.001   0.623
    1CAL  O01MR 8755   3.436   6.015   0.009
    1CAL  O01MS 8756   3.435   5.858   0.168
    1CAL  O01MT 8757   3.629   5.936   0.089
    1CAL  O01MU 8758   2.065   4.844   0.783
    1CAL  O01MV 8759   3.434   6.049   0.782
    1CAL  O01MW 8760   2.065   6.414   0.010
    1CAL  O01MX 8761   2.064   6.257   0.168
    1CAL  O01MY 8762   2.871   6.337   0.088
    1CAL  O01MZ 8763   3.871   5.725   0.704
    1CAL  O01Ma 8764   3.936   5.053   0.168
    1CAL  O01Mb 8765   3.064   5.001   0.623
    1CAL  O01Mc 8766   2.436   6.015   0.009
    1CAL  O01Md 8767   2.435   5.858   0.168
    1CAL  O01Me 8768   2.629   5.936   0.089
    1CAL  O01Mf 8769   3.065   4.843   0.782
    1CAL  O01Mg 8770   2.433   6.049   0.782
    1CAL  O01Mh 8771   2.871   4.922   0.703
    1CAL  O01Mi 8772   3.872   5.534   0.089
    1CAL  O01Mj 8773   3.065   6.414   0.010
    1CAL  O01Mk 8774   3.064   6.257   0.168
    1CAL  O01Ml 8775   3.622   6.031   0.393
    1CAL  O01Mm 8776   3.814   5.952   0.473
    1CAL  O01Mn 8777   3.815   6.109   0.314
    1CAL  O01Mo 8778   3.937   6.015   0.009
    1CAL  O01Mp 8779   3.935   5.858   0.168
    1CAL  O01Mq 8780   3.936   5.211   0.009
    1CAL  O01Mr 8781   2.629   5.132   0.088
    1CAL  O01Ms 8782   2.379   5.631   0.397
    1CAL  O01Mt 8783   2.370   5.725   0.706
    1CAL  O01Mu 8784   3.065   5.456   0.168
    1CAL  O01Mv 8785   3.564   6.257   0.168
    1CAL  O01Mw 8786   3.565   6.414   0.010
    1CAL  O01Mx 8787   3.622   5.229   0.396
    1CAL  O01My 8788   3.815   5.150   0.475
    1CAL  O01Mz 8789   3.372   6.337   0.088
    1CAL  O01N0 8790   3.121   5.229   0.396
    1CAL  O01N1 8791   3.314   5.308   0.317
    1CAL  O01N2 8792   2.628   6.126   0.703
    1CAL  O01N3 8793   3.436   5.210   0.010
    1CAL  O01N4 8794   3.436   5.053   0.168
    1CAL  O01N5 8795   3.629   5.132   0.088
    1CAL  O01N6 8796   3.371   5.725   0.705
    1CAL  O01N7 8797   3.566   5.648   0.781
    1CAL  O01N8 8798   3.315   5.150   0.475
    1CAL  O01N9 8799   3.563   5.806   0.622
    1CAL  O01NA 8800   2.065   5.456   0.168
    1CAL  O01NB 8801   3.565   5.456   0.168
    1CAL  O01NC 8802   2.186   5.710   0.317
    1CAL  O01ND 8803   2.063   5.806   0.622
    1CAL  O01NE 8804   2.065   5.648   0.782
    1CAL  O01NF 8805   2.128   5.323   0.704
    1CAL  O01NG 8806   2.129   5.132   0.089
    1CAL  O01NH 8807   2.128   5.936   0.089
    1CAL  O01NI 8808   3.564   5.613   0.010
    1CAL  O01NJ 8809   2.315   6.109   0.315
    1CAL  O01NK 8810   3.872   6.337   0.088
    1CAL  O01NL 8811   3.871   4.922   0.704
    1CAL  O01NM 8812   2.121   6.031   0.393
    1CAL  O01NN 8813   3.935   6.205   0.622
    1CAL  O01NO 8814   2.064   5.613   0.010
    1CAL  O01NP 8815   3.372   5.534   0.089
    1CAL  O01NQ 8816   2.314   5.952   0.473
    1CAL  O01NR 8817   2.434   6.206   0.622
    1CAL  O01NS 8818   2.628   5.323   0.703
    1CAL  O01NT 8819   3.371   4.921   0.705
    1CAL  O01NU 8820   3.436   5.403   0.622
    1CAL  O01NV 8821   3.434   5.246   0.782
    1CAL  O01NW 8822   3.629   5.323   0.703
    1CAL  O01NX 8823   2.879   4.826   0.396
    1CAL  O01NY 8824   2.686   6.354   0.475
    1CAL  O01NZ 8825   3.434   6.205   0.622
    1CAL  O01Na 8826   3.628   6.126   0.702
    1CAL  O01Nb 8827   2.686   4.905   0.317
    1CAL  O01Nc 8828   2.563   5.001   0.623
    1CAL  O01Nd 8829   2.566   4.844   0.782
    1CAL  O01Ne 8830   2.370   4.922   0.705
    1CAL  O01Nf 8831   2.562   5.806   0.622
    1CAL  O01Ng 8832   2.567   5.648   0.782
    1CAL  O01Nh 8833   2.871   5.534   0.089
    1CAL  O01Ni 8834   3.566   4.843   0.782
    1CAL  O01Nj 8835   3.564   5.001   0.623
    1CAL  O01Nk 8836   2.433   5.246   0.782
    1CAL  O01Nl 8837   2.435   5.404   0.623
    1CAL  O01Nm 8838   3.686   4.905   0.317
    1CAL  O01Nn 8839   3.686   6.354   0.475
    1CAL  O01No 8840   3.879   4.826   0.396
    1CAL  O01Np 8841   2.379   4.827   0.396
    1CAL  O01Nq 8842   2.186   6.354   0.475
    1CAL  O01Nr 8843   2.185   4.905   0.317
    1CAL  O01Ns 8844   3.186   4.905   0.317
    1CAL  O01Nt 8845   3.186   6.354   0.475
    1CAL  O01Nu 8846   3.379   4.827   0.396
    1CAL  O01Nv 8847   3.064   5.613   0.010
    1CAL  O01Nw 8848   3.815   5.308   0.317
    1CAL  O01Nx 8849   2.820   6.299   0.931
    1CAL  O01Ny 8850   2.811   6.147   1.097
    1CAL  O01Nz 8851   2.621   6.231   1.011
    1CAL  O01O0 8852   2.678   5.898   0.930
    1CAL  O01O1 8853   2.687   5.747   1.096
    1CAL  O01O2 8854   2.877   5.829   1.009
    1CAL  O01O3 8855   2.877   5.026   1.010
    1CAL  O01O4 8856   2.687   4.943   1.097
    1CAL  O01O5 8857   2.678   5.094   0.931
    1CAL  O01O6 8858   2.621   5.428   1.010
    1CAL  O01O7 8859   2.811   5.344   1.096
    1CAL  O01O8 8860   2.820   5.496   0.931
    1CAL  O01O9 8861   3.679   5.898   0.930
    1CAL  O01OA 8862   3.877   5.829   1.010
    1CAL  O01OB 8863   3.687   5.746   1.096
    1CAL  O01OC 8864   3.622   6.230   1.010
    1CAL  O01OD 8865   3.811   6.147   1.096
    1CAL  O01OE 8866   3.820   6.299   0.931
    1CAL  O01OF 8867   3.678   5.094   0.931
    1CAL  O01OG 8868   3.877   5.026   1.010
    1CAL  O01OH 8869   3.687   4.943   1.097
    1CAL  O01OI 8870   3.621   5.427   1.010
    1CAL  O01OJ 8871   3.811   5.344   1.096
    1CAL  O01OK 8872   3.820   5.496   0.931
    1CAL  O01OL 8873   3.311   6.147   1.097
    1CAL  O01OM 8874   3.121   6.230   1.011
    1CAL  O01ON 8875   3.320   6.298   0.931
    1CAL  O01OO 8876   3.179   5.897   0.931
    1CAL  O01OP 8877   3.188   5.745   1.097
    1CAL  O01OQ 8878   3.378   5.829   1.011
    1CAL  O01OR 8879   3.311   5.344   1.097
    1CAL  O01OS 8880   3.320   5.495   0.931
    1CAL  O01OT 8881   3.121   5.428   1.010
    1CAL  O01OU 8882   3.179   5.094   0.932
    1CAL  O01OV 8883   3.187   4.942   1.097
    1CAL  O01OW 8884   3.377   5.026   1.012
    1CAL  O01OX 8885   2.310   6.147   1.098
    1CAL  O01OY 8886   2.121   6.231   1.011
    1CAL  O01OZ 8887   2.320   6.298   0.932
    1CAL  O01Oa 8888   2.179   5.897   0.932
    1CAL  O01Ob 8889   2.188   5.745   1.097
    1CAL  O01Oc 8890   2.378   5.829   1.013
    1CAL  O01Od 8891   2.310   5.345   1.098
    1CAL  O01Oe 8892   2.121   5.428   1.010
    1CAL  O01Of 8893   2.320   5.496   0.931
    1CAL  O01Og 8894   2.377   5.026   1.013
    1CAL  O01Oh 8895   2.187   4.942   1.098
    1CAL  O01Oi 8896   2.179   5.094   0.933
    1CAL  Ca0Rt 8897   3.002   5.629   1.008
    1CAL  Ca0Ru 8898   3.750   5.333   0.089
    1CAL  Ca0Rv 8899   3.496   6.030   1.009
    1CAL  Ca0Rw 8900   2.002   5.629   1.009
    1CAL  Ca0Rx 8901   2.750   6.326   0.704
    1CAL  Ca0Ry 8902   3.750   5.735   0.089
    1CAL  Ca0Rz 8903   3.500   5.430   0.396
    1CAL  Ca0S0 8904   3.500   6.232   0.396
    1CAL  Ca0S1 8905   2.249   5.925   0.703
    1CAL  Ca0S2 8906   3.000   6.232   0.396
    1CAL  Ca0S3 8907   2.502   4.826   1.009
    1CAL  Ca0S4 8908   2.250   5.333   0.089
    1CAL  Ca0S5 8909   2.250   5.524   0.704
    1CAL  Ca0S6 8910   3.997   5.227   1.009
    1CAL  Ca0S7 8911   3.997   6.030   1.009
    1CAL  Ca0S8 8912   3.749   5.925   0.702
    1CAL  Ca0S9 8913   3.250   4.931   0.089
    1CAL  Ca0SA 8914   4.000   6.232   0.396
    1CAL  Ca0SB 8915   3.750   4.931   0.089
    1CAL  Ca0SC 8916   2.495   5.228   1.009
    1CAL  Ca0SD 8917   2.002   4.826   1.010
    1CAL  Ca0SE 8918   3.751   5.524   0.704
    1CAL  Ca0SF 8919   2.250   5.735   0.089
    1CAL  Ca0SG 8920   4.000   5.430   0.396
    1CAL  Ca0SH 8921   3.500   5.831   0.395
    1CAL  Ca0SI 8922   2.250   6.327   0.704
    1CAL  Ca0SJ 8923   3.750   6.136   0.090
    1CAL  Ca0SK 8924   2.500   5.831   0.395
    1CAL  Ca0SL 8925   2.496   6.031   1.009
    1CAL  Ca0SM 8926   4.000   5.028   0.396
    1CAL  Ca0SN 8927   2.500   6.232   0.396
    1CAL  Ca0SO 8928   3.496   5.227   1.009
    1CAL  Ca0SP 8929   3.250   5.735   0.089
    1CAL  Ca0SQ 8930   2.750   5.735   0.089
    1CAL  Ca0SR 8931   3.000   5.028   0.396
    1CAL  Ca0SS 8932   3.000   5.831   0.395
    1CAL  Ca0ST 8933   2.500   5.430   0.396
    1CAL  Ca0SU 8934   3.000   5.430   0.396
    1CAL  Ca0SV 8935   2.749   5.925   0.703
    1CAL  Ca0SW 8936   2.250   4.931   0.089
    1CAL  Ca0SX 8937   2.750   5.333   0.089
    1CAL  Ca0SY 8938   3.250   5.333   0.089
    1CAL  Ca0SZ 8939   3.249   5.925   0.703
    1CAL  Ca0Sa 8940   3.250   6.326   0.704
    1CAL  Ca0Sb 8941   3.749   5.122   0.704
    1CAL  Ca0Sc 8942   3.002   4.826   1.009
    1CAL  Ca0Sd 8943   2.748   5.122   0.704
    1CAL  Ca0Se 8944   2.503   5.629   1.008
    1CAL  Ca0Sf 8945   2.500   5.028   0.396
    1CAL  Ca0Sg 8946   2.750   4.931   0.089
    1CAL  Ca0Sh 8947   3.250   6.136   0.090
    1CAL  Ca0Si 8948   3.249   5.122   0.704
    1CAL  Ca0Sj 8949   2.996   5.227   1.009
    1CAL  Ca0Sk 8950   2.750   6.136   0.090
    1CAL  Ca0Sl 8951   2.996   6.030   1.009
    1CAL  Ca0Sm 8952   2.250   6.136   0.090
    1CAL  Ca0Sn 8953   3.500   5.028   0.396
    1CAL  Ca0So 8954   3.503   5.629   1.008
    1CAL  Ca0Sp 8955   3.502   4.825   1.009
    1CAL  Ca0Sq 8956   2.750   5.524   0.704
    1CAL  Ca0Sr 8957   3.750   6.327   0.704
    1CAL  Ca0Ss 8958   3.250   5.524   0.704
    1CAL  Ca0St 8959   2.249   5.122   0.704
    1CAL  Ca0Su 8960   4.000   5.831   0.395
    1CAL  C00Sv 8961   4.000   6.336   1.317
    1CAL  C00Sw 8962   3.250   4.826   1.624
    1CAL  C00Sx 8963   2.250   4.826   1.624
    1CAL  C00Sy 8964   3.499   5.324   1.930
    1CAL  C00Sz 8965   3.499   6.127   1.930
    1CAL  C00T0 8966   2.750   4.826   1.624
    1CAL  C00T1 8967   3.000   5.534   1.317
    1CAL  C00T2 8968   3.250   6.031   1.621
    1CAL  C00T3 8969   2.750   6.031   1.622
    1CAL  C00T4 8970   2.500   5.726   1.931
    1CAL  C00T5 8971   2.500   5.132   1.317
    1CAL  C00T6 8972   3.000   5.936   1.317
    1CAL  C00T7 8973   3.000   5.132   1.317
    1CAL  C00T8 8974   2.250   5.229   1.624
    1CAL  C00T9 8975   2.500   4.922   1.931
    1CAL  C00TA 8976   3.000   5.726   1.930
    1CAL  C00TB 8977   3.750   4.826   1.624
    1CAL  C00TC 8978   3.500   4.922   1.931
    1CAL  C00TD 8979   2.250   5.631   1.624
    1CAL  C00TE 8980   3.999   5.324   1.931
    1CAL  C00TF 8981   4.000   5.726   1.930
    1CAL  C00TG 8982   4.000   5.132   1.317
    1CAL  C00TH 8983   4.000   5.936   1.317
    1CAL  C00TI 8984   2.250   6.031   1.622
    1CAL  C00TJ 8985   2.499   5.324   1.930
    1CAL  C00TK 8986   3.500   5.534   1.317
    1CAL  C00TL 8987   4.000   5.534   1.317
    1CAL  C00TM 8988   3.750   5.229   1.624
    1CAL  C00TN 8989   3.250   5.229   1.624
    1CAL  C00TO 8990   3.500   5.132   1.317
    1CAL  C00TP 8991   3.500   5.726   1.930
    1CAL  C00TQ 8992   2.498   6.127   1.930
    1CAL  C00TR 8993   3.500   6.336   1.317
    1CAL  C00TS 8994   2.750   5.229   1.624
    1CAL  C00TT 8995   3.250   5.631   1.624
    1CAL  C00TU 8996   2.500   5.936   1.317
    1CAL  C00TV 8997   3.750   6.031   1.621
    1CAL  C00TW 8998   3.000   6.336   1.317
    1CAL  C00TX 8999   3.999   6.127   1.931
    1CAL  C00TY 9000   3.000   4.922   1.930
    1CAL  C00TZ 9001   2.999   6.127   1.930
    1CAL  C00Ta 9002   2.999   5.324   1.931
    1CAL  C00Tb 9003   3.750   5.631   1.624
    1CAL  C00Tc 9004   2.500   6.336   1.317
    1CAL  C00Td 9005   3.500   5.936   1.317
    1CAL  C00Te 9006   2.500   5.534   1.317
    1CAL  C00Tf 9007   2.750   5.631   1.624
    1CAL  C00Tg 9008   4.000   4.922   1.931
    1CAL  C00Th 9009   2.751   5.422   2.241
    1CAL  C00Ti 9010   2.747   5.021   2.241
    1CAL  C00Tj 9011   2.747   5.824   2.240
    1CAL  C00Tk 9012   2.751   6.225   2.241
    1CAL  C00Tl 9013   3.751   5.422   2.241
    1CAL  C00Tm 9014   3.747   5.021   2.241
    1CAL  C00Tn 9015   3.751   6.225   2.241
    1CAL  C00To 9016   3.748   5.824   2.240
    1CAL  C00Tp 9017   3.251   6.225   2.241
    1CAL  C00Tq 9018   3.248   5.823   2.241
    1CAL  C00Tr 9019   3.251   5.422   2.241
    1CAL  C00Ts 9020   3.247   5.020   2.242
    1CAL  C00Tt 9021   2.251   6.225   2.242
    1CAL  C00Tu 9022   2.248   5.823   2.242
    1CAL  C00Tv 9023   2.251   5.423   2.241
    1CAL  C00Tw 9024   2.247   5.020   2.243
    1CAL  O01Oj 9025   2.185   5.553   1.703
    1CAL  O01Ok 9026   3.186   5.710   1.545
    1CAL  O01Ol 9027   3.185   5.553   1.703
    1CAL  O01Om 9028   3.379   5.631   1.625
    1CAL  O01On 9029   2.564   6.257   1.396
    1CAL  O01Oo 9030   2.371   6.337   1.316
    1CAL  O01Op 9031   2.564   5.613   1.238
    1CAL  O01Oq 9032   2.686   5.710   1.545
    1CAL  O01Or 9033   2.685   5.553   1.703
    1CAL  O01Os 9034   2.879   5.631   1.625
    1CAL  O01Ot 9035   2.565   6.414   1.238
    1CAL  O01Ou 9036   2.564   5.456   1.396
    1CAL  O01Ov 9037   2.371   5.534   1.317
    1CAL  O01Ow 9038   3.128   6.126   1.931
    1CAL  O01Ox 9039   2.935   6.205   1.850
    1CAL  O01Oy 9040   2.936   5.403   1.850
    1CAL  O01Oz 9041   2.933   5.246   2.010
    1CAL  O01P0 9042   3.128   5.323   1.932
    1CAL  O01P1 9043   2.933   6.049   2.010
    1CAL  O01P2 9044   2.621   5.229   1.624
    1CAL  O01P3 9045   3.063   5.805   1.850
    1CAL  O01P4 9046   3.122   6.031   1.621
    1CAL  O01P5 9047   3.314   5.952   1.701
    1CAL  O01P6 9048   3.315   6.109   1.543
    1CAL  O01P7 9049   2.436   5.053   1.396
    1CAL  O01P8 9050   2.435   5.210   1.238
    1CAL  O01P9 9051   2.621   6.031   1.621
    1CAL  O01PA 9052   2.814   5.952   1.701
    1CAL  O01PB 9053   2.815   6.109   1.543
    1CAL  O01PC 9054   2.314   5.308   1.545
    1CAL  O01PD 9055   2.814   5.150   1.703
    1CAL  O01PE 9056   2.936   6.015   1.237
    1CAL  O01PF 9057   3.129   5.936   1.317
    1CAL  O01PG 9058   2.314   5.150   1.704
    1CAL  O01PH 9059   2.121   5.229   1.624
    1CAL  O01PI 9060   2.814   5.308   1.545
    1CAL  O01PJ 9061   2.936   5.211   1.237
    1CAL  O01PK 9062   2.936   5.053   1.396
    1CAL  O01PL 9063   3.129   5.132   1.317
    1CAL  O01PM 9064   2.870   5.725   1.931
    1CAL  O01PN 9065   3.066   5.648   2.009
    1CAL  O01PO 9066   2.935   5.858   1.396
    1CAL  O01PP 9067   3.686   5.710   1.545
    1CAL  O01PQ 9068   3.685   5.553   1.703
    1CAL  O01PR 9069   3.879   5.631   1.625
    1CAL  O01PS 9070   3.934   6.048   2.010
    1CAL  O01PT 9071   3.936   5.403   1.851
    1CAL  O01PU 9072   3.934   5.245   2.010
    1CAL  O01PV 9073   2.128   6.126   1.932
    1CAL  O01PW 9074   2.064   5.001   1.851
    1CAL  O01PX 9075   3.436   6.015   1.237
    1CAL  O01PY 9076   3.435   5.858   1.396
    1CAL  O01PZ 9077   3.629   5.936   1.317
    1CAL  O01Pa 9078   2.065   4.844   2.011
    1CAL  O01Pb 9079   3.434   6.049   2.010
    1CAL  O01Pc 9080   2.065   6.414   1.238
    1CAL  O01Pd 9081   2.064   6.257   1.396
    1CAL  O01Pe 9082   2.871   6.337   1.316
    1CAL  O01Pf 9083   3.871   5.725   1.932
    1CAL  O01Pg 9084   3.936   5.053   1.396
    1CAL  O01Ph 9085   3.064   5.001   1.851
    1CAL  O01Pi 9086   2.436   6.015   1.237
    1CAL  O01Pj 9087   2.435   5.858   1.396
    1CAL  O01Pk 9088   2.629   5.936   1.317
    1CAL  O01Pl 9089   3.065   4.843   2.010
    1CAL  O01Pm 9090   2.433   6.049   2.010
    1CAL  O01Pn 9091   2.871   4.922   1.931
    1CAL  O01Po 9092   3.872   5.534   1.317
    1CAL  O01Pp 9093   3.065   6.414   1.238
    1CAL  O01Pq 9094   3.064   6.257   1.396
    1CAL  O01Pr 9095   3.622   6.031   1.621
    1CAL  O01Ps 9096   3.814   5.952   1.701
    1CAL  O01Pt 9097   3.815   6.109   1.542
    1CAL  O01Pu 9098   3.937   6.015   1.237
    1CAL  O01Pv 9099   3.935   5.858   1.396
    1CAL  O01Pw 9100   3.936   5.211   1.237
    1CAL  O01Px 9101   2.629   5.132   1.316
    1CAL  O01Py 9102   2.379   5.631   1.625
    1CAL  O01Pz 9103   2.370   5.725   1.934
    1CAL  O01Q0 9104   3.065   5.456   1.396
    1CAL  O01Q1 9105   3.564   6.257   1.396
    1CAL  O01Q2 9106   3.565   6.414   1.238
    1CAL  O01Q3 9107   3.622   5.229   1.624
    1CAL  O01Q4 9108   3.815   5.150   1.703
    1CAL  O01Q5 9109   3.372   6.337   1.316
    1CAL  O01Q6 9110   3.121   5.229   1.624
    1CAL  O01Q7 9111   3.314   5.308   1.545
    1CAL  O01Q8 9112   2.628   6.126   1.931
    1CAL  O01Q9 9113   3.436   5.210   1.238
    1CAL  O01QA 9114   3.436   5.053   1.396
    1CAL  O01QB 9115   3.629   5.132   1.316
    1CAL  O01QC 9116   3.371   5.725   1.933
    1CAL  O01QD 9117   3.566   5.648   2.009
    1CAL  O01QE 9118   3.315   5.150   1.703
    1CAL  O01QF 9119   3.563   5.806   1.850
    1CAL  O01QG 9120   2.065   5.456   1.396
    1CAL  O01QH 9121   3.565   5.456   1.396
    1CAL  O01QI 9122   2.186   5.710   1.545
    1CAL  O01QJ 9123   2.063   5.806   1.850
    1CAL  O01QK 9124   2.065   5.648   2.010
    1CAL  O01QL 9125   2.128   5.323   1.932
    1CAL  O01QM 9126   2.129   5.132   1.317
    1CAL  O01QN 9127   2.128   5.936   1.317
    1CAL  O01QO 9128   3.564   5.613   1.238
    1CAL  O01QP 9129   2.315   6.109   1.543
    1CAL  O01QQ 9130   3.872   6.337   1.316
    1CAL  O01QR 9131   3.871   4.922   1.932
    1CAL  O01QS 9132   2.121   6.031   1.621
    1CAL  O01QT 9133   3.935   6.205   1.850
    1CAL  O01QU 9134   2.064   5.613   1.238
    1CAL  O01QV 9135   3.372   5.534   1.317
    1CAL  O01QW 9136   2.314   5.952   1.701
    1CAL  O01QX 9137   2.434   6.206   1.850
    1CAL  O01QY 9138   2.628   5.323   1.931
    1CAL  O01QZ 9139   3.371   4.921   1.933
    1CAL  O01Qa 9140   3.436   5.403   1.850
    1CAL  O01Qb 9141   3.434   5.246   2.010
    1CAL  O01Qc 9142   3.629   5.323   1.931
    1CAL  O01Qd 9143   2.879   4.826   1.624
    1CAL  O01Qe 9144   2.686   6.354   1.703
    1CAL  O01Qf 9145   3.434   6.205   1.850
    1CAL  O01Qg 9146   3.628   6.126   1.930
    1CAL  O01Qh 9147   2.686   4.905   1.545
    1CAL  O01Qi 9148   2.563   5.001   1.851
    1CAL  O01Qj 9149   2.566   4.844   2.010
    1CAL  O01Qk 9150   2.370   4.922   1.933
    1CAL  O01Ql 9151   2.562   5.806   1.850
    1CAL  O01Qm 9152   2.567   5.648   2.010
    1CAL  O01Qn 9153   2.871   5.534   1.317
    1CAL  O01Qo 9154   3.566   4.843   2.010
    1CAL  O01Qp 9155   3.564   5.001   1.851
    1CAL  O01Qq 9156   2.433   5.246   2.010
    1CAL  O01Qr 9157   2.435   5.404   1.851
    1CAL  O01Qs 9158   3.686   4.905   1.545
    1CAL  O01Qt 9159   3.686   6.354   1.703
    1CAL  O01Qu 9160   3.879   4.826   1.624
    1CAL  O01Qv 9161   2.379   4.827   1.624
    1CAL  O01Qw 9162   2.186   6.354   1.703
    1CAL  O01Qx 9163   2.185   4.905   1.545
    1CAL  O01Qy 9164   3.186   4.905   1.545
    1CAL  O01Qz 9165   3.186   6.354   1.703
    1CAL  O01R0 9166   3.379   4.827   1.624
    1CAL  O01R1 9167   3.064   5.613   1.238
    1CAL  O01R2 9168   3.815   5.308   1.545
    1CAL  O01R3 9169   2.820   6.299   2.159
    1CAL  O01R4 9170   2.811   6.147   2.325
    1CAL  O01R5 9171   2.621   6.231   2.239
    1CAL  O01R6 9172   2.678   5.898   2.158
    1CAL  O01R7 9173   2.687   5.747   2.324
    1CAL  O01R8 9174   2.877   5.829   2.237
    1CAL  O01R9 9175   2.877   5.026   2.238
    1CAL  O01RA 9176   2.687   4.943   2.325
    1CAL  O01RB 9177   2.678   5.094   2.159
    1CAL  O01RC 9178   2.621   5.428   2.238
    1CAL  O01RD 9179   2.811   5.344   2.324
    1CAL  O01RE 9180   2.820   5.496   2.159
    1CAL  O01RF 9181   3.679   5.898   2.158
    1CAL  O01RG 9182   3.877   5.829   2.238
    1CAL  O01RH 9183   3.687   5.746   2.324
    1CAL  O01RI 9184   3.622   6.230   2.238
    1CAL  O01RJ 9185   3.811   6.147   2.324
    1CAL  O01RK 9186   3.820   6.299   2.159
    1CAL  O01RL 9187   3.678   5.094   2.159
    1CAL  O01RM 9188   3.877   5.026   2.238
    1CAL  O01RN 9189   3.687   4.943   2.325
    1CAL  O01RO 9190   3.621   5.427   2.238
    1CAL  O01RP 9191   3.811   5.344   2.324
    1CAL  O01RQ 9192   3.820   5.496   2.159
    1CAL  O01RR 9193   3.311   6.147   2.325
    1CAL  O01RS 9194   3.121   6.230   2.239
    1CAL  O01RT 9195   3.320   6.298   2.159
    1CAL  O01RU 9196   3.179   5.897   2.159
    1CAL  O01RV 9197   3.188   5.745   2.325
    1CAL  O01RW 9198   3.378   5.829   2.239
    1CAL  O01RX 9199   3.311   5.344   2.325
    1CAL  O01RY 9200   3.320   5.495   2.159
    1CAL  O01RZ 9201   3.121   5.428   2.238
    1CAL  O01Ra 9202   3.179   5.094   2.160
    1CAL  O01Rb 9203   3.187   4.942   2.325
    1CAL  O01Rc 9204   3.377   5.026   2.240
    1CAL  O01Rd 9205   2.310   6.147   2.326
    1CAL  O01Re 9206   2.121   6.231   2.239
    1CAL  O01Rf 9207   2.320   6.298   2.160
    1CAL  O01Rg 9208   2.179   5.897   2.160
    1CAL  O01Rh 9209   2.188   5.745   2.325
    1CAL  O01Ri 9210   2.378   5.829   2.241
    1CAL  O01Rj 9211   2.310   5.345   2.326
    1CAL  O01Rk 9212   2.121   5.428   2.238
    1CAL  O01Rl 9213   2.320   5.496   2.159
    1CAL  O01Rm 9214   2.377   5.026   2.241
    1CAL  O01Rn 9215   2.187   4.942   2.326
    1CAL  O01Ro 9216   2.179   5.094   2.161
    1CAL  Ca0Sv 9217   3.002   5.629   2.236
    1CAL  Ca0Sw 9218   3.750   5.333   1.317
    1CAL  Ca0Sx 9219   3.496   6.030   2.237
    1CAL  Ca0Sy 9220   2.002   5.629   2.237
    1CAL  Ca0Sz 9221   2.750   6.326   1.932
    1CAL  Ca0T0 9222   3.750   5.735   1.317
    1CAL  Ca0T1 9223   3.500   5.430   1.624
    1CAL  Ca0T2 9224   3.500   6.232   1.624
    1CAL  Ca0T3 9225   2.249   5.925   1.931
    1CAL  Ca0T4 9226   3.000   6.232   1.624
    1CAL  Ca0T5 9227   2.502   4.826   2.237
    1CAL  Ca0T6 9228   2.250   5.333   1.317
    1CAL  Ca0T7 9229   2.250   5.524   1.932
    1CAL  Ca0T8 9230   3.997   5.227   2.237
    1CAL  Ca0T9 9231   3.997   6.030   2.237
    1CAL  Ca0TA 9232   3.749   5.925   1.930
    1CAL  Ca0TB 9233   3.250   4.931   1.317
    1CAL  Ca0TC 9234   4.000   6.232   1.624
    1CAL  Ca0TD 9235   3.750   4.931   1.317
    1CAL  Ca0TE 9236   2.495   5.228   2.237
    1CAL  Ca0TF 9237   2.002   4.826   2.238
    1CAL  Ca0TG 9238   3.751   5.524   1.932
    1CAL  Ca0TH 9239   2.250   5.735   1.317
    1CAL  Ca0TI 9240   4.000   5.430   1.624
    1CAL  Ca0TJ 9241   3.500   5.831   1.623
    1CAL  Ca0TK 9242   2.250   6.327   1.932
    1CAL  Ca0TL 9243   3.750   6.136   1.318
    1CAL  Ca0TM 9244   2.500   5.831   1.623
    1CAL  Ca0TN 9245   2.496   6.031   2.237
    1CAL  Ca0TO 9246   4.000   5.028   1.624
    1CAL  Ca0TP 9247   2.500   6.232   1.624
    1CAL  Ca0TQ 9248   3.496   5.227   2.237
    1CAL  Ca0TR 9249   3.250   5.735   1.317
    1CAL  Ca0TS 9250   2.750   5.735   1.317
    1CAL  Ca0TT 9251   3.000   5.028   1.624
    1CAL  Ca0TU 9252   3.000   5.831   1.623
    1CAL  Ca0TV 9253   2.500   5.430   1.624
    1CAL  Ca0TW 9254   3.000   5.430   1.624
    1CAL  Ca0TX 9255   2.749   5.925   1.931
    1CAL  Ca0TY 9256   2.250   4.931   1.317
    1CAL  Ca0TZ 9257   2.750   5.333   1.317
    1CAL  Ca0Ta 9258   3.250   5.333   1.317
    1CAL  Ca0Tb 9259   3.249   5.925   1.931
    1CAL  Ca0Tc 9260   3.250   6.326   1.932
    1CAL  Ca0Td 9261   3.749   5.122   1.932
    1CAL  Ca0Te 9262   3.002   4.826   2.237
    1CAL  Ca0Tf 9263   2.748   5.122   1.932
    1CAL  Ca0Tg 9264   2.503   5.629   2.236
    1CAL  Ca0Th 9265   2.500   5.028   1.624
    1CAL  Ca0Ti 9266   2.750   4.931   1.317
    1CAL  Ca0Tj 9267   3.250   6.136   1.318
    1CAL  Ca0Tk 9268   3.249   5.122   1.932
    1CAL  Ca0Tl 9269   2.996   5.227   2.237
    1CAL  Ca0Tm 9270   2.750   6.136   1.318
    1CAL  Ca0Tn 9271   2.996   6.030   2.237
    1CAL  Ca0To 9272   2.250   6.136   1.318
    1CAL  Ca0Tp 9273   3.500   5.028   1.624
    1CAL  Ca0Tq 9274   3.503   5.629   2.236
    1CAL  Ca0Tr 9275   3.502   4.825   2.237
    1CAL  Ca0Ts 9276   2.750   5.524   1.932
    1CAL  Ca0Tt 9277   3.750   6.327   1.932
    1CAL  Ca0Tu 9278   3.250   5.524   1.932
    1CAL  Ca0Tv 9279   2.249   5.122   1.932
    1CAL  Ca0Tw 9280   4.000   5.831   1.623
    1CAL  C00Tx 9281   4.000   6.336   2.545
    1CAL  C00Ty 9282   3.250   4.826   2.852
    1CAL  C00Tz 9283   2.250   4.826   2.852
    1CAL  C00U0 9284   3.499   5.324   3.158
    1CAL  C00U1 9285   3.499   6.127   3.158
    1CAL  C00U2 9286   2.750   4.826   2.852
    1CAL  C00U3 9287   3.000   5.534   2.545
    1CAL  C00U4 9288   3.250   6.031   2.849
    1CAL  C00U5 9289   2.750   6.031   2.850
    1CAL  C00U6 9290   2.500   5.726   3.159
    1CAL  C00U7 9291   2.500   5.132   2.545
    1CAL  C00U8 9292   3.000   5.936   2.545
    1CAL  C00U9 9293   3.000   5.132   2.545
    1CAL  C00UA 9294   2.250   5.229   2.852
    1CAL  C00UB 9295   2.500   4.922   3.159
    1CAL  C00UC 9296   3.000   5.726   3.158
    1CAL  C00UD 9297   3.750   4.826   2.852
    1CAL  C00UE 9298   3.500   4.922   3.159
    1CAL  C00UF 9299   2.250   5.631   2.852
    1CAL  C00UG 9300   3.999   5.324   3.159
    1CAL  C00UH 9301   4.000   5.726   3.158
    1CAL  C00UI 9302   4.000   5.132   2.545
    1CAL  C00UJ 9303   4.000   5.936   2.545
    1CAL  C00UK 9304   2.250   6.031   2.850
    1CAL  C00UL 9305   2.499   5.324   3.158
    1CAL  C00UM 9306   3.500   5.534   2.545
    1CAL  C00UN 9307   4.000   5.534   2.545
    1CAL  C00UO 9308   3.750   5.229   2.852
    1CAL  C00UP 9309   3.250   5.229   2.852
    1CAL  C00UQ 9310   3.500   5.132   2.545
    1CAL  C00UR 9311   3.500   5.726   3.158
    1CAL  C00US 9312   2.498   6.127   3.158
    1CAL  C00UT 9313   3.500   6.336   2.545
    1CAL  C00UU 9314   2.750   5.229   2.852
    1CAL  C00UV 9315   3.250   5.631   2.852
    1CAL  C00UW 9316   2.500   5.936   2.545
    1CAL  C00UX 9317   3.750   6.031   2.849
    1CAL  C00UY 9318   3.000   6.336   2.545
    1CAL  C00UZ 9319   3.999   6.127   3.159
    1CAL  C00Ua 9320   3.000   4.922   3.158
    1CAL  C00Ub 9321   2.999   6.127   3.158
    1CAL  C00Uc 9322   2.999   5.324   3.159
    1CAL  C00Ud 9323   3.750   5.631   2.852
    1CAL  C00Ue 9324   2.500   6.336   2.545
    1CAL  C00Uf 9325   3.500   5.936   2.545
    1CAL  C00Ug 9326   2.500   5.534   2.545
    1CAL  C00Uh 9327   2.750   5.631   2.852
    1CAL  C00Ui 9328   4.000   4.922   3.159
    1CAL  C00Uj 9329   2.751   5.422   3.469
    1CAL  C00Uk 9330   2.747   5.021   3.469
    1CAL  C00Ul 9331   2.747   5.824   3.468
    1CAL  C00Um 9332   2.751   6.225   3.469
    1CAL  C00Un 9333   3.751   5.422   3.469
    1CAL  C00Uo 9334   3.747   5.021   3.469
    1CAL  C00Up 9335   3.751   6.225   3.469
    1CAL  C00Uq 9336   3.748   5.824   3.468
    1CAL  C00Ur 9337   3.251   6.225   3.469
    1CAL  C00Us 9338   3.248   5.823   3.469
    1CAL  C00Ut 9339   3.251   5.422   3.469
    1CAL  C00Uu 9340   3.247   5.020   3.470
    1CAL  C00Uv 9341   2.251   6.225   3.470
    1CAL  C00Uw 9342   2.248   5.823   3.470
    1CAL  C00Ux 9343   2.251   5.423   3.469
    1CAL  C00Uy 9344   2.247   5.020   3.471
    1CAL  O01Rp 9345   2.185   5.553   2.931
    1CAL  O01Rq 9346   3.186   5.710   2.773
    1CAL  O01Rr 9347   3.185   5.553   2.931
    1CAL  O01Rs 9348   3.379   5.631   2.853
    1CAL  O01Rt 9349   2.564   6.257   2.624
    1CAL  O01Ru 9350   2.371   6.337   2.544
    1CAL  O01Rv 9351   2.564   5.613   2.466
    1CAL  O01Rw 9352   2.686   5.710   2.773
    1CAL  O01Rx 9353   2.685   5.553   2.931
    1CAL  O01Ry 9354   2.879   5.631   2.853
    1CAL  O01Rz 9355   2.565   6.414   2.466
    1CAL  O01S0 9356   2.564   5.456   2.624
    1CAL  O01S1 9357   2.371   5.534   2.545
    1CAL  O01S2 9358   3.128   6.126   3.159
    1CAL  O01S3 9359   2.935   6.205   3.078
    1CAL  O01S4 9360   2.936   5.403   3.078
    1CAL  O01S5 9361   2.933   5.246   3.238
    1CAL  O01S6 9362   3.128   5.323   3.160
    1CAL  O01S7 9363   2.933   6.049   3.238
    1CAL  O01S8 9364   2.621   5.229   2.852
    1CAL  O01S9 9365   3.063   5.805   3.078
    1CAL  O01SA 9366   3.122   6.031   2.849
    1CAL  O01SB 9367   3.314   5.952   2.929
    1CAL  O01SC 9368   3.315   6.109   2.771
    1CAL  O01SD 9369   2.436   5.053   2.624
    1CAL  O01SE 9370   2.435   5.210   2.466
    1CAL  O01SF 9371   2.621   6.031   2.849
    1CAL  O01SG 9372   2.814   5.952   2.929
    1CAL  O01SH 9373   2.815   6.109   2.771
    1CAL  O01SI 9374   2.314   5.308   2.773
    1CAL  O01SJ 9375   2.814   5.150   2.931
    1CAL  O01SK 9376   2.936   6.015   2.465
    1CAL  O01SL 9377   3.129   5.936   2.545
    1CAL  O01SM 9378   2.314   5.150   2.932
    1CAL  O01SN 9379   2.121   5.229   2.852
    1CAL  O01SO 9380   2.814   5.308   2.773
    1CAL  O01SP 9381   2.936   5.211   2.465
    1CAL  O01SQ 9382   2.936   5.053   2.624
    1CAL  O01SR 9383   3.129   5.132   2.545
    1CAL  O01SS 9384   2.870   5.725   3.159
    1CAL  O01ST 9385   3.066   5.648   3.237
    1CAL  O01SU 9386   2.935   5.858   2.624
    1CAL  O01SV 9387   3.686   5.710   2.773
    1CAL  O01SW 9388   3.685   5.553   2.931
    1CAL  O01SX 9389   3.879   5.631   2.853
    1CAL  O01SY 9390   3.934   6.048   3.238
    1CAL  O01SZ 9391   3.936   5.403   3.079
    1CAL  O01Sa 9392   3.934   5.245   3.238
    1CAL  O01Sb 9393   2.128   6.126   3.160
    1CAL  O01Sc 9394   2.064   5.001   3.079
    1CAL  O01Sd 9395   3.436   6.015   2.465
    1CAL  O01Se 9396   3.435   5.858   2.624
    1CAL  O01Sf 9397   3.629   5.936   2.545
    1CAL  O01Sg 9398   2.065   4.844   3.239
    1CAL  O01Sh 9399   3.434   6.049   3.238
    1CAL  O01Si 9400   2.065   6.414   2.466
    1CAL  O01Sj 9401   2.064   6.257   2.624
    1CAL  O01Sk 9402   2.871   6.337   2.544
    1CAL  O01Sl 9403   3.871   5.725   3.160
    1CAL  O01Sm 9404   3.936   5.053   2.624
    1CAL  O01Sn 9405   3.064   5.001   3.079
    1CAL  O01So 9406   2.436   6.015   2.465
    1CAL  O01Sp 9407   2.435   5.858   2.624
    1CAL  O01Sq 9408   2.629   5.936   2.545
    1CAL  O01Sr 9409   3.065   4.843   3.238
    1CAL  O01Ss 9410   2.433   6.049   3.238
    1CAL  O01St 9411   2.871   4.922   3.159
    1CAL  O01Su 9412   3.872   5.534   2.545
    1CAL  O01Sv 9413   3.065   6.414   2.466
    1CAL  O01Sw 9414   3.064   6.257   2.624
    1CAL  O01Sx 9415   3.622   6.031   2.849
    1CAL  O01Sy 9416   3.814   5.952   2.929
    1CAL  O01Sz 9417   3.815   6.109   2.770
    1CAL  O01T0 9418   3.937   6.015   2.465
    1CAL  O01T1 9419   3.935   5.858   2.624
    1CAL  O01T2 9420   3.936   5.211   2.465
    1CAL  O01T3 9421   2.629   5.132   2.544
    1CAL  O01T4 9422   2.379   5.631   2.853
    1CAL  O01T5 9423   2.370   5.725   3.162
    1CAL  O01T6 9424   3.065   5.456   2.624
    1CAL  O01T7 9425   3.564   6.257   2.624
    1CAL  O01T8 9426   3.565   6.414   2.466
    1CAL  O01T9 9427   3.622   5.229   2.852
    1CAL  O01TA 9428   3.815   5.150   2.931
    1CAL  O01TB 9429   3.372   6.337   2.544
    1CAL  O01TC 9430   3.121   5.229   2.852
    1CAL  O01TD 9431   3.314   5.308   2.773
    1CAL  O01TE 9432   2.628   6.126   3.159
    1CAL  O01TF 9433   3.436   5.210   2.466
    1CAL  O01TG 9434   3.436   5.053   2.624
    1CAL  O01TH 9435   3.629   5.132   2.544
    1CAL  O01TI 9436   3.371   5.725   3.161
    1CAL  O01TJ 9437   3.566   5.648   3.237
    1CAL  O01TK 9438   3.315   5.150   2.931
    1CAL  O01TL 9439   3.563   5.806   3.078
    1CAL  O01TM 9440   2.065   5.456   2.624
    1CAL  O01TN 9441   3.565   5.456   2.624
    1CAL  O01TO 9442   2.186   5.710   2.773
    1CAL  O01TP 9443   2.063   5.806   3.078
    1CAL  O01TQ 9444   2.065   5.648   3.238
    1CAL  O01TR 9445   2.128   5.323   3.160
    1CAL  O01TS 9446   2.129   5.132   2.545
    1CAL  O01TT 9447   2.128   5.936   2.545
    1CAL  O01TU 9448   3.564   5.613   2.466
    1CAL  O01TV 9449   2.315   6.109   2.771
    1CAL  O01TW 9450   3.872   6.337   2.544
    1CAL  O01TX 9451   3.871   4.922   3.160
    1CAL  O01TY 9452   2.121   6.031   2.849
    1CAL  O01TZ 9453   3.935   6.205   3.078
    1CAL  O01Ta 9454   2.064   5.613   2.466
    1CAL  O01Tb 9455   3.372   5.534   2.545
    1CAL  O01Tc 9456   2.314   5.952   2.929
    1CAL  O01Td 9457   2.434   6.206   3.078
    1CAL  O01Te 9458   2.628   5.323   3.159
    1CAL  O01Tf 9459   3.371   4.921   3.161
    1CAL  O01Tg 9460   3.436   5.403   3.078
    1CAL  O01Th 9461   3.434   5.246   3.238
    1CAL  O01Ti 9462   3.629   5.323   3.159
    1CAL  O01Tj 9463   2.879   4.826   2.852
    1CAL  O01Tk 9464   2.686   6.354   2.931
    1CAL  O01Tl 9465   3.434   6.205   3.078
    1CAL  O01Tm 9466   3.628   6.126   3.158
    1CAL  O01Tn 9467   2.686   4.905   2.773
    1CAL  O01To 9468   2.563   5.001   3.079
    1CAL  O01Tp 9469   2.566   4.844   3.238
    1CAL  O01Tq 9470   2.370   4.922   3.161
    1CAL  O01Tr 9471   2.562   5.806   3.078
    1CAL  O01Ts 9472   2.567   5.648   3.238
    1CAL  O01Tt 9473   2.871   5.534   2.545
    1CAL  O01Tu 9474   3.566   4.843   3.238
    1CAL  O01Tv 9475   3.564   5.001   3.079
    1CAL  O01Tw 9476   2.433   5.246   3.238
    1CAL  O01Tx 9477   2.435   5.404   3.079
    1CAL  O01Ty 9478   3.686   4.905   2.773
    1CAL  O01Tz 9479   3.686   6.354   2.931
    1CAL  O01U0 9480   3.879   4.826   2.852
    1CAL  O01U1 9481   2.379   4.827   2.852
    1CAL  O01U2 9482   2.186   6.354   2.931
    1CAL  O01U3 9483   2.185   4.905   2.773
    1CAL  O01U4 9484   3.186   4.905   2.773
    1CAL  O01U5 9485   3.186   6.354   2.931
    1CAL  O01U6 9486   3.379   4.827   2.852
    1CAL  O01U7 9487   3.064   5.613   2.466
    1CAL  O01U8 9488   3.815   5.308   2.773
    1CAL  O01U9 9489   2.820   6.299   3.387
    1CAL  O01UA 9490   2.811   6.147   3.553
    1CAL  O01UB 9491   2.621   6.231   3.467
    1CAL  O01UC 9492   2.678   5.898   3.386
    1CAL  O01UD 9493   2.687   5.747   3.552
    1CAL  O01UE 9494   2.877   5.829   3.465
    1CAL  O01UF 9495   2.877   5.026   3.466
    1CAL  O01UG 9496   2.687   4.943   3.553
    1CAL  O01UH 9497   2.678   5.094   3.387
    1CAL  O01UI 9498   2.621   5.428   3.466
    1CAL  O01UJ 9499   2.811   5.344   3.552
    1CAL  O01UK 9500   2.820   5.496   3.387
    1CAL  O01UL 9501   3.679   5.898   3.386
    1CAL  O01UM 9502   3.877   5.829   3.466
    1CAL  O01UN 9503   3.687   5.746   3.552
    1CAL  O01UO 9504   3.622   6.230   3.466
    1CAL  O01UP 9505   3.811   6.147   3.552
    1CAL  O01UQ 9506   3.820   6.299   3.387
    1CAL  O01UR 9507   3.678   5.094   3.387
    1CAL  O01US 9508   3.877   5.026   3.466
    1CAL  O01UT 9509   3.687   4.943   3.553
    1CAL  O01UU 9510   3.621   5.427   3.466
    1CAL  O01UV 9511   3.811   5.344   3.552
    1CAL  O01UW 9512   3.820   5.496   3.387
    1CAL  O01UX 9513   3.311   6.147   3.553
    1CAL  O01UY 9514   3.121   6.230   3.467
    1CAL  O01UZ 9515   3.320   6.298   3.387
    1CAL  O01Ua 9516   3.179   5.897   3.387
    1CAL  O01Ub 9517   3.188   5.745   3.553
    1CAL  O01Uc 9518   3.378   5.829   3.467
    1CAL  O01Ud 9519   3.311   5.344   3.553
    1CAL  O01Ue 9520   3.320   5.495   3.387
    1CAL  O01Uf 9521   3.121   5.428   3.466
    1CAL  O01Ug 9522   3.179   5.094   3.388
    1CAL  O01Uh 9523   3.187   4.942   3.553
    1CAL  O01Ui 9524   3.377   5.026   3.468
    1CAL  O01Uj 9525   2.310   6.147   3.554
    1CAL  O01Uk 9526   2.121   6.231   3.467
    1CAL  O01Ul 9527   2.320   6.298   3.388
    1CAL  O01Um 9528   2.179   5.897   3.388
    1CAL  O01Un 9529   2.188   5.745   3.553
    1CAL  O01Uo 9530   2.378   5.829   3.469
    1CAL  O01Up 9531   2.310   5.345   3.554
    1CAL  O01Uq 9532   2.121   5.428   3.466
    1CAL  O01Ur 9533   2.320   5.496   3.387
    1CAL  O01Us 9534   2.377   5.026   3.469
    1CAL  O01Ut 9535   2.187   4.942   3.554
    1CAL  O01Uu 9536   2.179   5.094   3.389
    1CAL  Ca0Tx 9537   3.002   5.629   3.464
    1CAL  Ca0Ty 9538   3.750   5.333   2.545
    1CAL  Ca0Tz 9539   3.496   6.030   3.465
    1CAL  Ca0U0 9540   2.002   5.629   3.465
    1CAL  Ca0U1 9541   2.750   6.326   3.160
    1CAL  Ca0U2 9542   3.750   5.735   2.545
    1CAL  Ca0U3 9543   3.500   5.430   2.852
    1CAL  Ca0U4 9544   3.500   6.232   2.852
    1CAL  Ca0U5 9545   2.249   5.925   3.159
    1CAL  Ca0U6 9546   3.000   6.232   2.852
    1CAL  Ca0U7 9547   2.502   4.826   3.465
    1CAL  Ca0U8 9548   2.250   5.333   2.545
    1CAL  Ca0U9 9549   2.250   5.524   3.160
    1CAL  Ca0UA 9550   3.997   5.227   3.465
    1CAL  Ca0UB 9551   3.997   6.030   3.465
    1CAL  Ca0UC 9552   3.749   5.925   3.158
    1CAL  Ca0UD 9553   3.250   4.931   2.545
    1CAL  Ca0UE 9554   4.000   6.232   2.852
    1CAL  Ca0UF 9555   3.750   4.931   2.545
    1CAL  Ca0UG 9556   2.495   5.228   3.465
    1CAL  Ca0UH 9557   2.002   4.826   3.466
    1CAL  Ca0UI 9558   3.751   5.524   3.160
    1CAL  Ca0UJ 9559   2.250   5.735   2.545
    1CAL  Ca0UK 9560   4.000   5.430   2.852
    1CAL  Ca0UL 9561   3.500   5.831   2.851
    1CAL  Ca0UM 9562   2.250   6.327   3.160
    1CAL  Ca0UN 9563   3.750   6.136   2.546
    1CAL  Ca0UO 9564   2.500   5.831   2.851
    1CAL  Ca0UP 9565   2.496   6.031   3.465
    1CAL  Ca0UQ 9566   4.000   5.028   2.852
    1CAL  Ca0UR 9567   2.500   6.232   2.852
    1CAL  Ca0US 9568   3.496   5.227   3.465
    1CAL  Ca0UT 9569   3.250   5.735   2.545
    1CAL  Ca0UU 9570   2.750   5.735   2.545
    1CAL  Ca0UV 9571   3.000   5.028   2.852
    1CAL  Ca0UW 9572   3.000   5.831   2.851
    1CAL  Ca0UX 9573   2.500   5.430   2.852
    1CAL  Ca0UY 9574   3.000   5.430   2.852
    1CAL  Ca0UZ 9575   2.749   5.925   3.159
    1CAL  Ca0Ua 9576   2.250   4.931   2.545
    1CAL  Ca0Ub 9577   2.750   5.333   2.545
    1CAL  Ca0Uc 9578   3.250   5.333   2.545
    1CAL  Ca0Ud 9579   3.249   5.925   3.159
    1CAL  Ca0Ue 9580   3.250   6.326   3.160
    1CAL  Ca0Uf 9581   3.749   5.122   3.160
    1CAL  Ca0Ug 9582   3.002   4.826   3.465
    1CAL  Ca0Uh 9583   2.748   5.122   3.160
    1CAL  Ca0Ui 9584   2.503   5.629   3.464
    1CAL  Ca0Uj 9585   2.500   5.028   2.852
    1CAL  Ca0Uk 9586   2.750   4.931   2.545
    1CAL  Ca0Ul 9587   3.250   6.136   2.546
    1CAL  Ca0Um 9588   3.249   5.122   3.160
    1CAL  Ca0Un 9589   2.996   5.227   3.465
    1CAL  Ca0Uo 9590   2.750   6.136   2.546
    1CAL  Ca0Up 9591   2.996   6.030   3.465
    1CAL  Ca0Uq 9592   2.250   6.136   2.546
    1CAL  Ca0Ur 9593   3.500   5.028   2.852
    1CAL  Ca0Us 9594   3.503   5.629   3.464
    1CAL  Ca0Ut 9595   3.502   4.825   3.465
    1CAL  Ca0Uu 9596   2.750   5.524   3.160
    1CAL  Ca0Uv 9597   3.750   6.327   3.160
    1CAL  Ca0Uw 9598   3.250   5.524   3.160
    1CAL  Ca0Ux 9599   2.249   5.122   3.160
    1CAL  Ca0Uy 9600   4.000   5.831   2.851
    1CAL  C00Uz 9601   4.000   7.942   0.089
    1CAL  C00V0 9602   3.250   6.432   0.396
    1CAL  C00V1 9603   2.250   6.432   0.396
    1CAL  C00V2 9604   3.499   6.930   0.702
    1CAL  C00V3 9605   3.499   7.733   0.702
    1CAL  C00V4 9606   2.750   6.432   0.396
    1CAL  C00V5 9607   3.000   7.140   0.089
    1CAL  C00V6 9608   3.250   7.637   0.393
    1CAL  C00V7 9609   2.750   7.637   0.394
    1CAL  C00V8 9610   2.500   7.332   0.703
    1CAL  C00V9 9611   2.500   6.738   0.089
    1CAL  C00VA 9612   3.000   7.542   0.089
    1CAL  C00VB 9613   3.000   6.738   0.089
    1CAL  C00VC 9614   2.250   6.835   0.396
    1CAL  C00VD 9615   2.500   6.528   0.703
    1CAL  C00VE 9616   3.000   7.332   0.702
    1CAL  C00VF 9617   3.750   6.432   0.396
    1CAL  C00VG 9618   3.500   6.528   0.703
    1CAL  C00VH 9619   2.250   7.237   0.396
    1CAL  C00VI 9620   3.999   6.930   0.703
    1CAL  C00VJ 9621   4.000   7.332   0.702
    1CAL  C00VK 9622   4.000   6.738   0.089
    1CAL  C00VL 9623   4.000   7.542   0.089
    1CAL  C00VM 9624   2.250   7.637   0.394
    1CAL  C00VN 9625   2.499   6.930   0.702
    1CAL  C00VO 9626   3.500   7.140   0.089
    1CAL  C00VP 9627   4.000   7.140   0.089
    1CAL  C00VQ 9628   3.750   6.835   0.396
    1CAL  C00VR 9629   3.250   6.835   0.396
    1CAL  C00VS 9630   3.500   6.738   0.089
    1CAL  C00VT 9631   3.500   7.332   0.702
    1CAL  C00VU 9632   2.498   7.733   0.702
    1CAL  C00VV 9633   3.500   7.942   0.089
    1CAL  C00VW 9634   2.750   6.835   0.396
    1CAL  C00VX 9635   3.250   7.237   0.396
    1CAL  C00VY 9636   2.500   7.542   0.089
    1CAL  C00VZ 9637   3.750   7.637   0.393
    1CAL  C00Va 9638   3.000   7.942   0.089
    1CAL  C00Vb 9639   3.999   7.733   0.703
    1CAL  C00Vc 9640   3.000   6.528   0.702
    1CAL  C00Vd 9641   2.999   7.733   0.702
    1CAL  C00Ve 9642   2.999   6.930   0.703
    1CAL  C00Vf 9643   3.750   7.237   0.396
    1CAL  C00Vg 9644   2.500   7.942   0.089
    1CAL  C00Vh 9645   3.500   7.542   0.089
    1CAL  C00Vi 9646   2.500   7.140   0.089
    1CAL  C00Vj 9647   2.750   7.237   0.396
    1CAL  C00Vk 9648   4.000   6.528   0.703
    1CAL  C00Vl 9649   2.751   7.028   1.013
    1CAL  C00Vm 9650   2.747   6.627   1.013
    1CAL  C00Vn 9651   2.747   7.430   1.012
    1CAL  C00Vo 9652   2.751   7.831   1.013
    1CAL  C00Vp 9653   3.751   7.028   1.013
    1CAL  C00Vq 9654   3.747   6.627   1.013
    1CAL  C00Vr 9655   3.751   7.831   1.013
    1CAL  C00Vs 9656   3.748   7.430   1.012
    1CAL  C00Vt 9657   3.251   7.831   1.013
    1CAL  C00Vu 9658   3.248   7.429   1.013
    1CAL  C00Vv 9659   3.251   7.028   1.013
    1CAL  C00Vw 9660   3.247   6.626   1.014
    1CAL  C00Vx 9661   2.251   7.831   1.014
    1CAL  C00Vy 9662   2.248   7.429   1.014
    1CAL  C00Vz 9663   2.251   7.029   1.013
    1CAL  C00W0 9664   2.247   6.626   1.015
    1CAL  O01Uv 9665   2.185   7.159   0.475
    1CAL  O01Uw 9666   3.186   7.316   0.317
    1CAL  O01Ux 9667   3.185   7.159   0.475
    1CAL  O01Uy 9668   3.379   7.237   0.397
    1CAL  O01Uz 9669   2.564   7.863   0.168
    1CAL  O01V0 9670   2.371   7.943   0.088
    1CAL  O01V1 9671   2.564   7.219   0.010
    1CAL  O01V2 9672   2.686   7.316   0.317
    1CAL  O01V3 9673   2.685   7.159   0.475
    1CAL  O01V4 9674   2.879   7.237   0.397
    1CAL  O01V5 9675   2.565   8.020   0.010
    1CAL  O01V6 9676   2.564   7.062   0.168
    1CAL  O01V7 9677   2.371   7.140   0.089
    1CAL  O01V8 9678   3.128   7.732   0.703
    1CAL  O01V9 9679   2.935   7.811   0.622
    1CAL  O01VA 9680   2.936   7.009   0.622
    1CAL  O01VB 9681   2.933   6.852   0.782
    1CAL  O01VC 9682   3.128   6.929   0.704
    1CAL  O01VD 9683   2.933   7.655   0.782
    1CAL  O01VE 9684   2.621   6.835   0.396
    1CAL  O01VF 9685   3.063   7.411   0.622
    1CAL  O01VG 9686   3.122   7.637   0.393
    1CAL  O01VH 9687   3.314   7.558   0.473
    1CAL  O01VI 9688   3.315   7.715   0.315
    1CAL  O01VJ 9689   2.436   6.659   0.168
    1CAL  O01VK 9690   2.435   6.816   0.010
    1CAL  O01VL 9691   2.621   7.637   0.393
    1CAL  O01VM 9692   2.814   7.558   0.473
    1CAL  O01VN 9693   2.815   7.715   0.315
    1CAL  O01VO 9694   2.314   6.914   0.317
    1CAL  O01VP 9695   2.814   6.756   0.475
    1CAL  O01VQ 9696   2.936   7.621   0.009
    1CAL  O01VR 9697   3.129   7.542   0.089
    1CAL  O01VS 9698   2.314   6.756   0.476
    1CAL  O01VT 9699   2.121   6.835   0.396
    1CAL  O01VU 9700   2.814   6.914   0.317
    1CAL  O01VV 9701   2.936   6.817   0.009
    1CAL  O01VW 9702   2.936   6.659   0.168
    1CAL  O01VX 9703   3.129   6.738   0.089
    1CAL  O01VY 9704   2.870   7.331   0.703
    1CAL  O01VZ 9705   3.066   7.254   0.781
    1CAL  O01Va 9706   2.935   7.464   0.168
    1CAL  O01Vb 9707   3.686   7.316   0.317
    1CAL  O01Vc 9708   3.685   7.159   0.475
    1CAL  O01Vd 9709   3.879   7.237   0.397
    1CAL  O01Ve 9710   3.934   7.654   0.782
    1CAL  O01Vf 9711   3.936   7.009   0.623
    1CAL  O01Vg 9712   3.934   6.851   0.782
    1CAL  O01Vh 9713   2.128   7.732   0.704
    1CAL  O01Vi 9714   2.064   6.607   0.623
    1CAL  O01Vj 9715   3.436   7.621   0.009
    1CAL  O01Vk 9716   3.435   7.464   0.168
    1CAL  O01Vl 9717   3.629   7.542   0.089
    1CAL  O01Vm 9718   2.065   6.450   0.783
    1CAL  O01Vn 9719   3.434   7.655   0.782
    1CAL  O01Vo 9720   2.065   8.020   0.010
    1CAL  O01Vp 9721   2.064   7.863   0.168
    1CAL  O01Vq 9722   2.871   7.943   0.088
    1CAL  O01Vr 9723   3.871   7.331   0.704
    1CAL  O01Vs 9724   3.936   6.659   0.168
    1CAL  O01Vt 9725   3.064   6.607   0.623
    1CAL  O01Vu 9726   2.436   7.621   0.009
    1CAL  O01Vv 9727   2.435   7.464   0.168
    1CAL  O01Vw 9728   2.629   7.542   0.089
    1CAL  O01Vx 9729   3.065   6.449   0.782
    1CAL  O01Vy 9730   2.433   7.655   0.782
    1CAL  O01Vz 9731   2.871   6.528   0.703
    1CAL  O01W0 9732   3.872   7.140   0.089
    1CAL  O01W1 9733   3.065   8.020   0.010
    1CAL  O01W2 9734   3.064   7.863   0.168
    1CAL  O01W3 9735   3.622   7.637   0.393
    1CAL  O01W4 9736   3.814   7.558   0.473
    1CAL  O01W5 9737   3.815   7.715   0.314
    1CAL  O01W6 9738   3.937   7.621   0.009
    1CAL  O01W7 9739   3.935   7.464   0.168
    1CAL  O01W8 9740   3.936   6.817   0.009
    1CAL  O01W9 9741   2.629   6.738   0.088
    1CAL  O01WA 9742   2.379   7.237   0.397
    1CAL  O01WB 9743   2.370   7.331   0.706
    1CAL  O01WC 9744   3.065   7.062   0.168
    1CAL  O01WD 9745   3.564   7.863   0.168
    1CAL  O01WE 9746   3.565   8.020   0.010
    1CAL  O01WF 9747   3.622   6.835   0.396
    1CAL  O01WG 9748   3.815   6.756   0.475
    1CAL  O01WH 9749   3.372   7.943   0.088
    1CAL  O01WI 9750   3.121   6.835   0.396
    1CAL  O01WJ 9751   3.314   6.914   0.317
    1CAL  O01WK 9752   2.628   7.732   0.703
    1CAL  O01WL 9753   3.436   6.816   0.010
    1CAL  O01WM 9754   3.436   6.659   0.168
    1CAL  O01WN 9755   3.629   6.738   0.088
    1CAL  O01WO 9756   3.371   7.331   0.705
    1CAL  O01WP 9757   3.566   7.254   0.781
    1CAL  O01WQ 9758   3.315   6.756   0.475
    1CAL  O01WR 9759   3.563   7.412   0.622
    1CAL  O01WS 9760   2.065   7.062   0.168
    1CAL  O01WT 9761   3.565   7.062   0.168
    1CAL  O01WU 9762   2.186   7.316   0.317
    1CAL  O01WV 9763   2.063   7.412   0.622
    1CAL  O01WW 9764   2.065   7.254   0.782
    1CAL  O01WX 9765   2.128   6.929   0.704
    1CAL  O01WY 9766   2.129   6.738   0.089
    1CAL  O01WZ 9767   2.128   7.542   0.089
    1CAL  O01Wa 9768   3.564   7.219   0.010
    1CAL  O01Wb 9769   2.315   7.715   0.315
    1CAL  O01Wc 9770   3.872   7.943   0.088
    1CAL  O01Wd 9771   3.871   6.528   0.704
    1CAL  O01We 9772   2.121   7.637   0.393
    1CAL  O01Wf 9773   3.935   7.811   0.622
    1CAL  O01Wg 9774   2.064   7.219   0.010
    1CAL  O01Wh 9775   3.372   7.140   0.089
    1CAL  O01Wi 9776   2.314   7.558   0.473
    1CAL  O01Wj 9777   2.434   7.812   0.622
    1CAL  O01Wk 9778   2.628   6.929   0.703
    1CAL  O01Wl 9779   3.371   6.527   0.705
    1CAL  O01Wm 9780   3.436   7.009   0.622
    1CAL  O01Wn 9781   3.434   6.852   0.782
    1CAL  O01Wo 9782   3.629   6.929   0.703
    1CAL  O01Wp 9783   2.879   6.432   0.396
    1CAL  O01Wq 9784   2.686   7.960   0.475
    1CAL  O01Wr 9785   3.434   7.811   0.622
    1CAL  O01Ws 9786   3.628   7.732   0.702
    1CAL  O01Wt 9787   2.686   6.511   0.317
    1CAL  O01Wu 9788   2.563   6.607   0.623
    1CAL  O01Wv 9789   2.566   6.450   0.782
    1CAL  O01Ww 9790   2.370   6.528   0.705
    1CAL  O01Wx 9791   2.562   7.412   0.622
    1CAL  O01Wy 9792   2.567   7.254   0.782
    1CAL  O01Wz 9793   2.871   7.140   0.089
    1CAL  O01X0 9794   3.566   6.449   0.782
    1CAL  O01X1 9795   3.564   6.607   0.623
    1CAL  O01X2 9796   2.433   6.852   0.782
    1CAL  O01X3 9797   2.435   7.010   0.623
    1CAL  O01X4 9798   3.686   6.511   0.317
    1CAL  O01X5 9799   3.686   7.960   0.475
    1CAL  O01X6 9800   3.879   6.432   0.396
    1CAL  O01X7 9801   2.379   6.433   0.396
    1CAL  O01X8 9802   2.186   7.960   0.475
    1CAL  O01X9 9803   2.185   6.511   0.317
    1CAL  O01XA 9804   3.186   6.511   0.317
    1CAL  O01XB 9805   3.186   7.960   0.475
    1CAL  O01XC 9806   3.379   6.433   0.396
    1CAL  O01XD 9807   3.064   7.219   0.010
    1CAL  O01XE 9808   3.815   6.914   0.317
    1CAL  O01XF 9809   2.820   7.905   0.931
    1CAL  O01XG 9810   2.811   7.753   1.097
    1CAL  O01XH 9811   2.621   7.837   1.011
    1CAL  O01XI 9812   2.678   7.504   0.930
    1CAL  O01XJ 9813   2.687   7.353   1.096
    1CAL  O01XK 9814   2.877   7.435   1.009
    1CAL  O01XL 9815   2.877   6.632   1.010
    1CAL  O01XM 9816   2.687   6.549   1.097
    1CAL  O01XN 9817   2.678   6.700   0.931
    1CAL  O01XO 9818   2.621   7.034   1.010
    1CAL  O01XP 9819   2.811   6.950   1.096
    1CAL  O01XQ 9820   2.820   7.102   0.931
    1CAL  O01XR 9821   3.679   7.504   0.930
    1CAL  O01XS 9822   3.877   7.435   1.010
    1CAL  O01XT 9823   3.687   7.352   1.096
    1CAL  O01XU 9824   3.622   7.836   1.010
    1CAL  O01XV 9825   3.811   7.753   1.096
    1CAL  O01XW 9826   3.820   7.905   0.931
    1CAL  O01XX 9827   3.678   6.700   0.931
    1CAL  O01XY 9828   3.877   6.632   1.010
    1CAL  O01XZ 9829   3.687   6.549   1.097
    1CAL  O01Xa 9830   3.621   7.033   1.010
    1CAL  O01Xb 9831   3.811   6.950   1.096
    1CAL  O01Xc 9832   3.820   7.102   0.931
    1CAL  O01Xd 9833   3.311   7.753   1.097
    1CAL  O01Xe 9834   3.121   7.836   1.011
    1CAL  O01Xf 9835   3.320   7.904   0.931
    1CAL  O01Xg 9836   3.179   7.503   0.931
    1CAL  O01Xh 9837   3.188   7.351   1.097
    1CAL  O01Xi 9838   3.378   7.435   1.011
    1CAL  O01Xj 9839   3.311   6.950   1.097
    1CAL  O01Xk 9840   3.320   7.101   0.931
    1CAL  O01Xl 9841   3.121   7.034   1.010
    1CAL  O01Xm 9842   3.179   6.700   0.932
    1CAL  O01Xn 9843   3.187   6.548   1.097
    1CAL  O01Xo 9844   3.377   6.632   1.012
    1CAL  O01Xp 9845   2.310   7.753   1.098
    1CAL  O01Xq 9846   2.121   7.837   1.011
    1CAL  O01Xr 9847   2.320   7.904   0.932
    1CAL  O01Xs 9848   2.179   7.503   0.932
    1CAL  O01Xt 9849   2.188   7.351   1.097
    1CAL  O01Xu 9850   2.378   7.435   1.013
    1CAL  O01Xv 9851   2.310   6.951   1.098
    1CAL  O01Xw 9852   2.121   7.034   1.010
    1CAL  O01Xx 9853   2.320   7.102   0.931
    1CAL  O01Xy 9854   2.377   6.632   1.013
    1CAL  O01Xz 9855   2.187   6.548   1.098
    1CAL  O01Y0 9856   2.179   6.700   0.933
    1CAL  Ca0Uz 9857   3.002   7.235   1.008
    1CAL  Ca0V0 9858   3.750   6.939   0.089
    1CAL  Ca0V1 9859   3.496   7.636   1.009
    1CAL  Ca0V2 9860   2.002   7.235   1.009
    1CAL  Ca0V3 9861   2.750   7.932   0.704
    1CAL  Ca0V4 9862   3.750   7.341   0.089
    1CAL  Ca0V5 9863   3.500   7.036   0.396
    1CAL  Ca0V6 9864   3.500   7.838   0.396
    1CAL  Ca0V7 9865   2.249   7.531   0.703
    1CAL  Ca0V8 9866   3.000   7.838   0.396
    1CAL  Ca0V9 9867   2.502   6.432   1.009
    1CAL  Ca0VA 9868   2.250   6.939   0.089
    1CAL  Ca0VB 9869   2.250   7.130   0.704
    1CAL  Ca0VC 9870   3.997   6.833   1.009
    1CAL  Ca0VD 9871   3.997   7.636   1.009
    1CAL  Ca0VE 9872   3.749   7.531   0.702
    1CAL  Ca0VF 9873   3.250   6.537   0.089
    1CAL  Ca0VG 9874   4.000   7.838   0.396
    1CAL  Ca0VH 9875   3.750   6.537   0.089
    1CAL  Ca0VI 9876   2.495   6.834   1.009
    1CAL  Ca0VJ 9877   2.002   6.432   1.010
    1CAL  Ca0VK 9878   3.751   7.130   0.704
    1CAL  Ca0VL 9879   2.250   7.341   0.089
    1CAL  Ca0VM 9880   4.000   7.036   0.396
    1CAL  Ca0VN 9881   3.500   7.437   0.395
    1CAL  Ca0VO 9882   2.250   7.933   0.704
    1CAL  Ca0VP 9883   3.750   7.742   0.090
    1CAL  Ca0VQ 9884   2.500   7.437   0.395
    1CAL  Ca0VR 9885   2.496   7.637   1.009
    1CAL  Ca0VS 9886   4.000   6.634   0.396
    1CAL  Ca0VT 9887   2.500   7.838   0.396
    1CAL  Ca0VU 9888   3.496   6.833   1.009
    1CAL  Ca0VV 9889   3.250   7.341   0.089
    1CAL  Ca0VW 9890   2.750   7.341   0.089
    1CAL  Ca0VX 9891   3.000   6.634   0.396
    1CAL  Ca0VY 9892   3.000   7.437   0.395
    1CAL  Ca0VZ 9893   2.500   7.036   0.396
    1CAL  Ca0Va 9894   3.000   7.036   0.396
    1CAL  Ca0Vb 9895   2.749   7.531   0.703
    1CAL  Ca0Vc 9896   2.250   6.537   0.089
    1CAL  Ca0Vd 9897   2.750   6.939   0.089
    1CAL  Ca0Ve 9898   3.250   6.939   0.089
    1CAL  Ca0Vf 9899   3.249   7.531   0.703
    1CAL  Ca0Vg 9900   3.250   7.932   0.704
    1CAL  Ca0Vh 9901   3.749   6.728   0.704
    1CAL  Ca0Vi 9902   3.002   6.432   1.009
    1CAL  Ca0Vj 9903   2.748   6.728   0.704
    1CAL  Ca0Vk 9904   2.503   7.235   1.008
    1CAL  Ca0Vl 9905   2.500   6.634   0.396
    1CAL  Ca0Vm 9906   2.750   6.537   0.089
    1CAL  Ca0Vn 9907   3.250   7.742   0.090
    1CAL  Ca0Vo 9908   3.249   6.728   0.704
    1CAL  Ca0Vp 9909   2.996   6.833   1.009
    1CAL  Ca0Vq 9910   2.750   7.742   0.090
    1CAL  Ca0Vr 9911   2.996   7.636   1.009
    1CAL  Ca0Vs 9912   2.250   7.742   0.090
    1CAL  Ca0Vt 9913   3.500   6.634   0.396
    1CAL  Ca0Vu 9914   3.503   7.235   1.008
    1CAL  Ca0Vv 9915   3.502   6.431   1.009
    1CAL  Ca0Vw 9916   2.750   7.130   0.704
    1CAL  Ca0Vx 9917   3.750   7.933   0.704
    1CAL  Ca0Vy 9918   3.250   7.130   0.704
    1CAL  Ca0Vz 9919   2.249   6.728   0.704
    1CAL  Ca0W0 9920   4.000   7.437   0.395
    1CAL  C00W1 9921   4.000   7.942   1.317
    1CAL  C00W2 9922   3.250   6.432   1.624
    1CAL  C00W3 9923   2.250   6.432   1.624
    1CAL  C00W4 9924   3.499   6.930   1.930
    1CAL  C00W5 9925   3.499   7.733   1.930
    1CAL  C00W6 9926   2.750   6.432   1.624
    1CAL  C00W7 9927   3.000   7.140   1.317
    1CAL  C00W8 9928   3.250   7.637   1.621
    1CAL  C00W9 9929   2.750   7.637   1.622
    1CAL  C00WA 9930   2.500   7.332   1.931
    1CAL  C00WB 9931   2.500   6.738   1.317
    1CAL  C00WC 9932   3.000   7.542   1.317
    1CAL  C00WD 9933   3.000   6.738   1.317
    1CAL  C00WE 9934   2.250   6.835   1.624
    1CAL  C00WF 9935   2.500   6.528   1.931
    1CAL  C00WG 9936   3.000   7.332   1.930
    1CAL  C00WH 9937   3.750   6.432   1.624
    1CAL  C00WI 9938   3.500   6.528   1.931
    1CAL  C00WJ 9939   2.250   7.237   1.624
    1CAL  C00WK 9940   3.999   6.930   1.931
    1CAL  C00WL 9941   4.000   7.332   1.930
    1CAL  C00WM 9942   4.000   6.738   1.317
    1CAL  C00WN 9943   4.000   7.542   1.317
    1CAL  C00WO 9944   2.250   7.637   1.622
    1CAL  C00WP 9945   2.499   6.930   1.930
    1CAL  C00WQ 9946   3.500   7.140   1.317
    1CAL  C00WR 9947   4.000   7.140   1.317
    1CAL  C00WS 9948   3.750   6.835   1.624
    1CAL  C00WT 9949   3.250   6.835   1.624
    1CAL  C00WU 9950   3.500   6.738   1.317
    1CAL  C00WV 9951   3.500   7.332   1.930
    1CAL  C00WW 9952   2.498   7.733   1.930
    1CAL  C00WX 9953   3.500   7.942   1.317
    1CAL  C00WY 9954   2.750   6.835   1.624
    1CAL  C00WZ 9955   3.250   7.237   1.624
    1CAL  C00Wa 9956   2.500   7.542   1.317
    1CAL  C00Wb 9957   3.750   7.637   1.621
    1CAL  C00Wc 9958   3.000   7.942   1.317
    1CAL  C00Wd 9959   3.999   7.733   1.931
    1CAL  C00We 9960   3.000   6.528   1.930
    1CAL  C00Wf 9961   2.999   7.733   1.930
    1CAL  C00Wg 9962   2.999   6.930   1.931
    1CAL  C00Wh 9963   3.750   7.237   1.624
    1CAL  C00Wi 9964   2.500   7.942   1.317
    1CAL  C00Wj 9965   3.500   7.542   1.317
    1CAL  C00Wk 9966   2.500   7.140   1.317
    1CAL  C00Wl 9967   2.750   7.237   1.624
    1CAL  C00Wm 9968   4.000   6.528   1.931
    1CAL  C00Wn 9969   2.751   7.028   2.241
    1CAL  C00Wo 9970   2.747   6.627   2.241
    1CAL  C00Wp 9971   2.747   7.430   2.240
    1CAL  C00Wq 9972   2.751   7.831   2.241
    1CAL  C00Wr 9973   3.751   7.028   2.241
    1CAL  C00Ws 9974   3.747   6.627   2.241
    1CAL  C00Wt 9975   3.751   7.831   2.241
    1CAL  C00Wu 9976   3.748   7.430   2.240
    1CAL  C00Wv 9977   3.251   7.831   2.241
    1CAL  C00Ww 9978   3.248   7.429   2.241
    1CAL  C00Wx 9979   3.251   7.028   2.241
    1CAL  C00Wy 9980   3.247   6.626   2.242
    1CAL  C00Wz 9981   2.251   7.831   2.242
    1CAL  C00X0 9982   2.248   7.429   2.242
    1CAL  C00X1 9983   2.251   7.029   2.241
    1CAL  C00X2 9984   2.247   6.626   2.243
    1CAL  O01Y1 9985   2.185   7.159   1.703
    1CAL  O01Y2 9986   3.186   7.316   1.545
    1CAL  O01Y3 9987   3.185   7.159   1.703
    1CAL  O01Y4 9988   3.379   7.237   1.625
    1CAL  O01Y5 9989   2.564   7.863   1.396
    1CAL  O01Y6 9990   2.371   7.943   1.316
    1CAL  O01Y7 9991   2.564   7.219   1.238
    1CAL  O01Y8 9992   2.686   7.316   1.545
    1CAL  O01Y9 9993   2.685   7.159   1.703
    1CAL  O01YA 9994   2.879   7.237   1.625
    1CAL  O01YB 9995   2.565   8.020   1.238
    1CAL  O01YC 9996   2.564   7.062   1.396
    1CAL  O01YD 9997   2.371   7.140   1.317
    1CAL  O01YE 9998   3.128   7.732   1.931
    1CAL  O01YF 9999   2.935   7.811   1.850
    1CAL  O01YG10000   2.936   7.009   1.850
    1CAL  O01YH10001   2.933   6.852   2.010
    1CAL  O01YI10002   3.128   6.929   1.932
    1CAL  O01YJ10003   2.933   7.655   2.010
    1CAL  O01YK10004   2.621   6.835   1.624
    1CAL  O01YL10005   3.063   7.411   1.850
    1CAL  O01YM10006   3.122   7.637   1.621
    1CAL  O01YN10007   3.314   7.558   1.701
    1CAL  O01YO10008   3.315   7.715   1.543
    1CAL  O01YP10009   2.436   6.659   1.396
    1CAL  O01YQ10010   2.435   6.816   1.238
    1CAL  O01YR10011   2.621   7.637   1.621
    1CAL  O01YS10012   2.814   7.558   1.701
    1CAL  O01YT10013   2.815   7.715   1.543
    1CAL  O01YU10014   2.314   6.914   1.545
    1CAL  O01YV10015   2.814   6.756   1.703
    1CAL  O01YW10016   2.936   7.621   1.237
    1CAL  O01YX10017   3.129   7.542   1.317
    1CAL  O01YY10018   2.314   6.756   1.704
    1CAL  O01YZ10019   2.121   6.835   1.624
    1CAL  O01Ya10020   2.814   6.914   1.545
    1CAL  O01Yb10021   2.936   6.817   1.237
    1CAL  O01Yc10022   2.936   6.659   1.396
    1CAL  O01Yd10023   3.129   6.738   1.317
    1CAL  O01Ye10024   2.870   7.331   1.931
    1CAL  O01Yf10025   3.066   7.254   2.009
    1CAL  O01Yg10026   2.935   7.464   1.396
    1CAL  O01Yh10027   3.686   7.316   1.545
    1CAL  O01Yi10028   3.685   7.159   1.703
    1CAL  O01Yj10029   3.879   7.237   1.625
    1CAL  O01Yk10030   3.934   7.654   2.010
    1CAL  O01Yl10031   3.936   7.009   1.851
    1CAL  O01Ym10032   3.934   6.851   2.010
    1CAL  O01Yn10033   2.128   7.732   1.932
    1CAL  O01Yo10034   2.064   6.607   1.851
    1CAL  O01Yp10035   3.436   7.621   1.237
    1CAL  O01Yq10036   3.435   7.464   1.396
    1CAL  O01Yr10037   3.629   7.542   1.317
    1CAL  O01Ys10038   2.065   6.450   2.011
    1CAL  O01Yt10039   3.434   7.655   2.010
    1CAL  O01Yu10040   2.065   8.020   1.238
    1CAL  O01Yv10041   2.064   7.863   1.396
    1CAL  O01Yw10042   2.871   7.943   1.316
    1CAL  O01Yx10043   3.871   7.331   1.932
    1CAL  O01Yy10044   3.936   6.659   1.396
    1CAL  O01Yz10045   3.064   6.607   1.851
    1CAL  O01Z010046   2.436   7.621   1.237
    1CAL  O01Z110047   2.435   7.464   1.396
    1CAL  O01Z210048   2.629   7.542   1.317
    1CAL  O01Z310049   3.065   6.449   2.010
    1CAL  O01Z410050   2.433   7.655   2.010
    1CAL  O01Z510051   2.871   6.528   1.931
    1CAL  O01Z610052   3.872   7.140   1.317
    1CAL  O01Z710053   3.065   8.020   1.238
    1CAL  O01Z810054   3.064   7.863   1.396
    1CAL  O01Z910055   3.622   7.637   1.621
    1CAL  O01ZA10056   3.814   7.558   1.701
    1CAL  O01ZB10057   3.815   7.715   1.542
    1CAL  O01ZC10058   3.937   7.621   1.237
    1CAL  O01ZD10059   3.935   7.464   1.396
    1CAL  O01ZE10060   3.936   6.817   1.237
    1CAL  O01ZF10061   2.629   6.738   1.316
    1CAL  O01ZG10062   2.379   7.237   1.625
    1CAL  O01ZH10063   2.370   7.331   1.934
    1CAL  O01ZI10064   3.065   7.062   1.396
    1CAL  O01ZJ10065   3.564   7.863   1.396
    1CAL  O01ZK10066   3.565   8.020   1.238
    1CAL  O01ZL10067   3.622   6.835   1.624
    1CAL  O01ZM10068   3.815   6.756   1.703
    1CAL  O01ZN10069   3.372   7.943   1.316
    1CAL  O01ZO10070   3.121   6.835   1.624
    1CAL  O01ZP10071   3.314   6.914   1.545
    1CAL  O01ZQ10072   2.628   7.732   1.931
    1CAL  O01ZR10073   3.436   6.816   1.238
    1CAL  O01ZS10074   3.436   6.659   1.396
    1CAL  O01ZT10075   3.629   6.738   1.316
    1CAL  O01ZU10076   3.371   7.331   1.933
    1CAL  O01ZV10077   3.566   7.254   2.009
    1CAL  O01ZW10078   3.315   6.756   1.703
    1CAL  O01ZX10079   3.563   7.412   1.850
    1CAL  O01ZY10080   2.065   7.062   1.396
    1CAL  O01ZZ10081   3.565   7.062   1.396
    1CAL  O01Za10082   2.186   7.316   1.545
    1CAL  O01Zb10083   2.063   7.412   1.850
    1CAL  O01Zc10084   2.065   7.254   2.010
    1CAL  O01Zd10085   2.128   6.929   1.932
    1CAL  O01Ze10086   2.129   6.738   1.317
    1CAL  O01Zf10087   2.128   7.542   1.317
    1CAL  O01Zg10088   3.564   7.219   1.238
    1CAL  O01Zh10089   2.315   7.715   1.543
    1CAL  O01Zi10090   3.872   7.943   1.316
    1CAL  O01Zj10091   3.871   6.528   1.932
    1CAL  O01Zk10092   2.121   7.637   1.621
    1CAL  O01Zl10093   3.935   7.811   1.850
    1CAL  O01Zm10094   2.064   7.219   1.238
    1CAL  O01Zn10095   3.372   7.140   1.317
    1CAL  O01Zo10096   2.314   7.558   1.701
    1CAL  O01Zp10097   2.434   7.812   1.850
    1CAL  O01Zq10098   2.628   6.929   1.931
    1CAL  O01Zr10099   3.371   6.527   1.933
    1CAL  O01Zs10100   3.436   7.009   1.850
    1CAL  O01Zt10101   3.434   6.852   2.010
    1CAL  O01Zu10102   3.629   6.929   1.931
    1CAL  O01Zv10103   2.879   6.432   1.624
    1CAL  O01Zw10104   2.686   7.960   1.703
    1CAL  O01Zx10105   3.434   7.811   1.850
    1CAL  O01Zy10106   3.628   7.732   1.930
    1CAL  O01Zz10107   2.686   6.511   1.545
    1CAL  O01a010108   2.563   6.607   1.851
    1CAL  O01a110109   2.566   6.450   2.010
    1CAL  O01a210110   2.370   6.528   1.933
    1CAL  O01a310111   2.562   7.412   1.850
    1CAL  O01a410112   2.567   7.254   2.010
    1CAL  O01a510113   2.871   7.140   1.317
    1CAL  O01a610114   3.566   6.449   2.010
    1CAL  O01a710115   3.564   6.607   1.851
    1CAL  O01a810116   2.433   6.852   2.010
    1CAL  O01a910117   2.435   7.010   1.851
    1CAL  O01aA10118   3.686   6.511   1.545
    1CAL  O01aB10119   3.686   7.960   1.703
    1CAL  O01aC10120   3.879   6.432   1.624
    1CAL  O01aD10121   2.379   6.433   1.624
    1CAL  O01aE10122   2.186   7.960   1.703
    1CAL  O01aF10123   2.185   6.511   1.545
    1CAL  O01aG10124   3.186   6.511   1.545
    1CAL  O01aH10125   3.186   7.960   1.703
    1CAL  O01aI10126   3.379   6.433   1.624
    1CAL  O01aJ10127   3.064   7.219   1.238
    1CAL  O01aK10128   3.815   6.914   1.545
    1CAL  O01aL10129   2.820   7.905   2.159
    1CAL  O01aM10130   2.811   7.753   2.325
    1CAL  O01aN10131   2.621   7.837   2.239
    1CAL  O01aO10132   2.678   7.504   2.158
    1CAL  O01aP10133   2.687   7.353   2.324
    1CAL  O01aQ10134   2.877   7.435   2.237
    1CAL  O01aR10135   2.877   6.632   2.238
    1CAL  O01aS10136   2.687   6.549   2.325
    1CAL  O01aT10137   2.678   6.700   2.159
    1CAL  O01aU10138   2.621   7.034   2.238
    1CAL  O01aV10139   2.811   6.950   2.324
    1CAL  O01aW10140   2.820   7.102   2.159
    1CAL  O01aX10141   3.679   7.504   2.158
    1CAL  O01aY10142   3.877   7.435   2.238
    1CAL  O01aZ10143   3.687   7.352   2.324
    1CAL  O01aa10144   3.622   7.836   2.238
    1CAL  O01ab10145   3.811   7.753   2.324
    1CAL  O01ac10146   3.820   7.905   2.159
    1CAL  O01ad10147   3.678   6.700   2.159
    1CAL  O01ae10148   3.877   6.632   2.238
    1CAL  O01af10149   3.687   6.549   2.325
    1CAL  O01ag10150   3.621   7.033   2.238
    1CAL  O01ah10151   3.811   6.950   2.324
    1CAL  O01ai10152   3.820   7.102   2.159
    1CAL  O01aj10153   3.311   7.753   2.325
    1CAL  O01ak10154   3.121   7.836   2.239
    1CAL  O01al10155   3.320   7.904   2.159
    1CAL  O01am10156   3.179   7.503   2.159
    1CAL  O01an10157   3.188   7.351   2.325
    1CAL  O01ao10158   3.378   7.435   2.239
    1CAL  O01ap10159   3.311   6.950   2.325
    1CAL  O01aq10160   3.320   7.101   2.159
    1CAL  O01ar10161   3.121   7.034   2.238
    1CAL  O01as10162   3.179   6.700   2.160
    1CAL  O01at10163   3.187   6.548   2.325
    1CAL  O01au10164   3.377   6.632   2.240
    1CAL  O01av10165   2.310   7.753   2.326
    1CAL  O01aw10166   2.121   7.837   2.239
    1CAL  O01ax10167   2.320   7.904   2.160
    1CAL  O01ay10168   2.179   7.503   2.160
    1CAL  O01az10169   2.188   7.351   2.325
    1CAL  O01b010170   2.378   7.435   2.241
    1CAL  O01b110171   2.310   6.951   2.326
    1CAL  O01b210172   2.121   7.034   2.238
    1CAL  O01b310173   2.320   7.102   2.159
    1CAL  O01b410174   2.377   6.632   2.241
    1CAL  O01b510175   2.187   6.548   2.326
    1CAL  O01b610176   2.179   6.700   2.161
    1CAL  Ca0W110177   3.002   7.235   2.236
    1CAL  Ca0W210178   3.750   6.939   1.317
    1CAL  Ca0W310179   3.496   7.636   2.237
    1CAL  Ca0W410180   2.002   7.235   2.237
    1CAL  Ca0W510181   2.750   7.932   1.932
    1CAL  Ca0W610182   3.750   7.341   1.317
    1CAL  Ca0W710183   3.500   7.036   1.624
    1CAL  Ca0W810184   3.500   7.838   1.624
    1CAL  Ca0W910185   2.249   7.531   1.931
    1CAL  Ca0WA10186   3.000   7.838   1.624
    1CAL  Ca0WB10187   2.502   6.432   2.237
    1CAL  Ca0WC10188   2.250   6.939   1.317
    1CAL  Ca0WD10189   2.250   7.130   1.932
    1CAL  Ca0WE10190   3.997   6.833   2.237
    1CAL  Ca0WF10191   3.997   7.636   2.237
    1CAL  Ca0WG10192   3.749   7.531   1.930
    1CAL  Ca0WH10193   3.250   6.537   1.317
    1CAL  Ca0WI10194   4.000   7.838   1.624
    1CAL  Ca0WJ10195   3.750   6.537   1.317
    1CAL  Ca0WK10196   2.495   6.834   2.237
    1CAL  Ca0WL10197   2.002   6.432   2.238
    1CAL  Ca0WM10198   3.751   7.130   1.932
    1CAL  Ca0WN10199   2.250   7.341   1.317
    1CAL  Ca0WO10200   4.000   7.036   1.624
    1CAL  Ca0WP10201   3.500   7.437   1.623
    1CAL  Ca0WQ10202   2.250   7.933   1.932
    1CAL  Ca0WR10203   3.750   7.742   1.318
    1CAL  Ca0WS10204   2.500   7.437   1.623
    1CAL  Ca0WT10205   2.496   7.637   2.237
    1CAL  Ca0WU10206   4.000   6.634   1.624
    1CAL  Ca0WV10207   2.500   7.838   1.624
    1CAL  Ca0WW10208   3.496   6.833   2.237
    1CAL  Ca0WX10209   3.250   7.341   1.317
    1CAL  Ca0WY10210   2.750   7.341   1.317
    1CAL  Ca0WZ10211   3.000   6.634   1.624
    1CAL  Ca0Wa10212   3.000   7.437   1.623
    1CAL  Ca0Wb10213   2.500   7.036   1.624
    1CAL  Ca0Wc10214   3.000   7.036   1.624
    1CAL  Ca0Wd10215   2.749   7.531   1.931
    1CAL  Ca0We10216   2.250   6.537   1.317
    1CAL  Ca0Wf10217   2.750   6.939   1.317
    1CAL  Ca0Wg10218   3.250   6.939   1.317
    1CAL  Ca0Wh10219   3.249   7.531   1.931
    1CAL  Ca0Wi10220   3.250   7.932   1.932
    1CAL  Ca0Wj10221   3.749   6.728   1.932
    1CAL  Ca0Wk10222   3.002   6.432   2.237
    1CAL  Ca0Wl10223   2.748   6.728   1.932
    1CAL  Ca0Wm10224   2.503   7.235   2.236
    1CAL  Ca0Wn10225   2.500   6.634   1.624
    1CAL  Ca0Wo10226   2.750   6.537   1.317
    1CAL  Ca0Wp10227   3.250   7.742   1.318
    1CAL  Ca0Wq10228   3.249   6.728   1.932
    1CAL  Ca0Wr10229   2.996   6.833   2.237
    1CAL  Ca0Ws10230   2.750   7.742   1.318
    1CAL  Ca0Wt10231   2.996   7.636   2.237
    1CAL  Ca0Wu10232   2.250   7.742   1.318
    1CAL  Ca0Wv10233   3.500   6.634   1.624
    1CAL  Ca0Ww10234   3.503   7.235   2.236
    1CAL  Ca0Wx10235   3.502   6.431   2.237
    1CAL  Ca0Wy10236   2.750   7.130   1.932
    1CAL  Ca0Wz10237   3.750   7.933   1.932
    1CAL  Ca0X010238   3.250   7.130   1.932
    1CAL  Ca0X110239   2.249   6.728   1.932
    1CAL  Ca0X210240   4.000   7.437   1.623
    1CAL  C00X310241   4.000   7.942   2.545
    1CAL  C00X410242   3.250   6.432   2.852
    1CAL  C00X510243   2.250   6.432   2.852
    1CAL  C00X610244   3.499   6.930   3.158
    1CAL  C00X710245   3.499   7.733   3.158
    1CAL  C00X810246   2.750   6.432   2.852
    1CAL  C00X910247   3.000   7.140   2.545
    1CAL  C00XA10248   3.250   7.637   2.849
    1CAL  C00XB10249   2.750   7.637   2.850
    1CAL  C00XC10250   2.500   7.332   3.159
    1CAL  C00XD10251   2.500   6.738   2.545
    1CAL  C00XE10252   3.000   7.542   2.545
    1CAL  C00XF10253   3.000   6.738   2.545
    1CAL  C00XG10254   2.250   6.835   2.852
    1CAL  C00XH10255   2.500   6.528   3.159
    1CAL  C00XI10256   3.000   7.332   3.158
    1CAL  C00XJ10257   3.750   6.432   2.852
    1CAL  C00XK10258   3.500   6.528   3.159
    1CAL  C00XL10259   2.250   7.237   2.852
    1CAL  C00XM10260   3.999   6.930   3.159
    1CAL  C00XN10261   4.000   7.332   3.158
    1CAL  C00XO10262   4.000   6.738   2.545
    1CAL  C00XP10263   4.000   7.542   2.545
    1CAL  C00XQ10264   2.250   7.637   2.850
    1CAL  C00XR10265   2.499   6.930   3.158
    1CAL  C00XS10266   3.500   7.140   2.545
    1CAL  C00XT10267   4.000   7.140   2.545
    1CAL  C00XU10268   3.750   6.835   2.852
    1CAL  C00XV10269   3.250   6.835   2.852
    1CAL  C00XW10270   3.500   6.738   2.545
    1CAL  C00XX10271   3.500   7.332   3.158
    1CAL  C00XY10272   2.498   7.733   3.158
    1CAL  C00XZ10273   3.500   7.942   2.545
    1CAL  C00Xa10274   2.750   6.835   2.852
    1CAL  C00Xb10275   3.250   7.237   2.852
    1CAL  C00Xc10276   2.500   7.542   2.545
    1CAL  C00Xd10277   3.750   7.637   2.849
    1CAL  C00Xe10278   3.000   7.942   2.545
    1CAL  C00Xf10279   3.999   7.733   3.159
    1CAL  C00Xg10280   3.000   6.528   3.158
    1CAL  C00Xh10281   2.999   7.733   3.158
    1CAL  C00Xi10282   2.999   6.930   3.159
    1CAL  C00Xj10283   3.750   7.237   2.852
    1CAL  C00Xk10284   2.500   7.942   2.545
    1CAL  C00Xl10285   3.500   7.542   2.545
    1CAL  C00Xm10286   2.500   7.140   2.545
    1CAL  C00Xn10287   2.750   7.237   2.852
    1CAL  C00Xo10288   4.000   6.528   3.159
    1CAL  C00Xp10289   2.751   7.028   3.469
    1CAL  C00Xq10290   2.747   6.627   3.469
    1CAL  C00Xr10291   2.747   7.430   3.468
    1CAL  C00Xs10292   2.751   7.831   3.469
    1CAL  C00Xt10293   3.751   7.028   3.469
    1CAL  C00Xu10294   3.747   6.627   3.469
    1CAL  C00Xv10295   3.751   7.831   3.469
    1CAL  C00Xw10296   3.748   7.430   3.468
    1CAL  C00Xx10297   3.251   7.831   3.469
    1CAL  C00Xy10298   3.248   7.429   3.469
    1CAL  C00Xz10299   3.251   7.028   3.469
    1CAL  C00Y010300   3.247   6.626   3.470
    1CAL  C00Y110301   2.251   7.831   3.470
    1CAL  C00Y210302   2.248   7.429   3.470
    1CAL  C00Y310303   2.251   7.029   3.469
    1CAL  C00Y410304   2.247   6.626   3.471
    1CAL  O01b710305   2.185   7.159   2.931
    1CAL  O01b810306   3.186   7.316   2.773
    1CAL  O01b910307   3.185   7.159   2.931
    1CAL  O01bA10308   3.379   7.237   2.853
    1CAL  O01bB10309   2.564   7.863   2.624
    1CAL  O01bC10310   2.371   7.943   2.544
    1CAL  O01bD10311   2.564   7.219   2.466
    1CAL  O01bE10312   2.686   7.316   2.773
    1CAL  O01bF10313   2.685   7.159   2.931
    1CAL  O01bG10314   2.879   7.237   2.853
    1CAL  O01bH10315   2.565   8.020   2.466
    1CAL  O01bI10316   2.564   7.062   2.624
    1CAL  O01bJ10317   2.371   7.140   2.545
    1CAL  O01bK10318   3.128   7.732   3.159
    1CAL  O01bL10319   2.935   7.811   3.078
    1CAL  O01bM10320   2.936   7.009   3.078
    1CAL  O01bN10321   2.933   6.852   3.238
    1CAL  O01bO10322   3.128   6.929   3.160
    1CAL  O01bP10323   2.933   7.655   3.238
    1CAL  O01bQ10324   2.621   6.835   2.852
    1CAL  O01bR10325   3.063   7.411   3.078
    1CAL  O01bS10326   3.122   7.637   2.849
    1CAL  O01bT10327   3.314   7.558   2.929
    1CAL  O01bU10328   3.315   7.715   2.771
    1CAL  O01bV10329   2.436   6.659   2.624
    1CAL  O01bW10330   2.435   6.816   2.466
    1CAL  O01bX10331   2.621   7.637   2.849
    1CAL  O01bY10332   2.814   7.558   2.929
    1CAL  O01bZ10333   2.815   7.715   2.771
    1CAL  O01ba10334   2.314   6.914   2.773
    1CAL  O01bb10335   2.814   6.756   2.931
    1CAL  O01bc10336   2.936   7.621   2.465
    1CAL  O01bd10337   3.129   7.542   2.545
    1CAL  O01be10338   2.314   6.756   2.932
    1CAL  O01bf10339   2.121   6.835   2.852
    1CAL  O01bg10340   2.814   6.914   2.773
    1CAL  O01bh10341   2.936   6.817   2.465
    1CAL  O01bi10342   2.936   6.659   2.624
    1CAL  O01bj10343   3.129   6.738   2.545
    1CAL  O01bk10344   2.870   7.331   3.159
    1CAL  O01bl10345   3.066   7.254   3.237
    1CAL  O01bm10346   2.935   7.464   2.624
    1CAL  O01bn10347   3.686   7.316   2.773
    1CAL  O01bo10348   3.685   7.159   2.931
    1CAL  O01bp10349   3.879   7.237   2.853
    1CAL  O01bq10350   3.934   7.654   3.238
    1CAL  O01br10351   3.936   7.009   3.079
    1CAL  O01bs10352   3.934   6.851   3.238
    1CAL  O01bt10353   2.128   7.732   3.160
    1CAL  O01bu10354   2.064   6.607   3.079
    1CAL  O01bv10355   3.436   7.621   2.465
    1CAL  O01bw10356   3.435   7.464   2.624
    1CAL  O01bx10357   3.629   7.542   2.545
    1CAL  O01by10358   2.065   6.450   3.239
    1CAL  O01bz10359   3.434   7.655   3.238
    1CAL  O01c010360   2.065   8.020   2.466
    1CAL  O01c110361   2.064   7.863   2.624
    1CAL  O01c210362   2.871   7.943   2.544
    1CAL  O01c310363   3.871   7.331   3.160
    1CAL  O01c410364   3.936   6.659   2.624
    1CAL  O01c510365   3.064   6.607   3.079
    1CAL  O01c610366   2.436   7.621   2.465
    1CAL  O01c710367   2.435   7.464   2.624
    1CAL  O01c810368   2.629   7.542   2.545
    1CAL  O01c910369   3.065   6.449   3.238
    1CAL  O01cA10370   2.433   7.655   3.238
    1CAL  O01cB10371   2.871   6.528   3.159
    1CAL  O01cC10372   3.872   7.140   2.545
    1CAL  O01cD10373   3.065   8.020   2.466
    1CAL  O01cE10374   3.064   7.863   2.624
    1CAL  O01cF10375   3.622   7.637   2.849
    1CAL  O01cG10376   3.814   7.558   2.929
    1CAL  O01cH10377   3.815   7.715   2.770
    1CAL  O01cI10378   3.937   7.621   2.465
    1CAL  O01cJ10379   3.935   7.464   2.624
    1CAL  O01cK10380   3.936   6.817   2.465
    1CAL  O01cL10381   2.629   6.738   2.544
    1CAL  O01cM10382   2.379   7.237   2.853
    1CAL  O01cN10383   2.370   7.331   3.162
    1CAL  O01cO10384   3.065   7.062   2.624
    1CAL  O01cP10385   3.564   7.863   2.624
    1CAL  O01cQ10386   3.565   8.020   2.466
    1CAL  O01cR10387   3.622   6.835   2.852
    1CAL  O01cS10388   3.815   6.756   2.931
    1CAL  O01cT10389   3.372   7.943   2.544
    1CAL  O01cU10390   3.121   6.835   2.852
    1CAL  O01cV10391   3.314   6.914   2.773
    1CAL  O01cW10392   2.628   7.732   3.159
    1CAL  O01cX10393   3.436   6.816   2.466
    1CAL  O01cY10394   3.436   6.659   2.624
    1CAL  O01cZ10395   3.629   6.738   2.544
    1CAL  O01ca10396   3.371   7.331   3.161
    1CAL  O01cb10397   3.566   7.254   3.237
    1CAL  O01cc10398   3.315   6.756   2.931
    1CAL  O01cd10399   3.563   7.412   3.078
    1CAL  O01ce10400   2.065   7.062   2.624
    1CAL  O01cf10401   3.565   7.062   2.624
    1CAL  O01cg10402   2.186   7.316   2.773
    1CAL  O01ch10403   2.063   7.412   3.078
    1CAL  O01ci10404   2.065   7.254   3.238
    1CAL  O01cj10405   2.128   6.929   3.160
    1CAL  O01ck10406   2.129   6.738   2.545
    1CAL  O01cl10407   2.128   7.542   2.545
    1CAL  O01cm10408   3.564   7.219   2.466
    1CAL  O01cn10409   2.315   7.715   2.771
    1CAL  O01co10410   3.872   7.943   2.544
    1CAL  O01cp10411   3.871   6.528   3.160
    1CAL  O01cq10412   2.121   7.637   2.849
    1CAL  O01cr10413   3.935   7.811   3.078
    1CAL  O01cs10414   2.064   7.219   2.466
    1CAL  O01ct10415   3.372   7.140   2.545
    1CAL  O01cu10416   2.314   7.558   2.929
    1CAL  O01cv10417   2.434   7.812   3.078
    1CAL  O01cw10418   2.628   6.929   3.159
    1CAL  O01cx10419   3.371   6.527   3.161
    1CAL  O01cy10420   3.436   7.009   3.078
    1CAL  O01cz10421   3.434   6.852   3.238
    1CAL  O01d010422   3.629   6.929   3.159
    1CAL  O01d110423   2.879   6.432   2.852
    1CAL  O01d210424   2.686   7.960   2.931
    1CAL  O01d310425   3.434   7.811   3.078
    1CAL  O01d410426   3.628   7.732   3.158
    1CAL  O01d510427   2.686   6.511   2.773
    1CAL  O01d610428   2.563   6.607   3.079
    1CAL  O01d710429   2.566   6.450   3.238
    1CAL  O01d810430   2.370   6.528   3.161
    1CAL  O01d910431   2.562   7.412   3.078
    1CAL  O01dA10432   2.567   7.254   3.238
    1CAL  O01dB10433   2.871   7.140   2.545
    1CAL  O01dC10434   3.566   6.449   3.238
    1CAL  O01dD10435   3.564   6.607   3.079
    1CAL  O01dE10436   2.433   6.852   3.238
    1CAL  O01dF10437   2.435   7.010   3.079
    1CAL  O01dG10438   3.686   6.511   2.773
    1CAL  O01dH10439   3.686   7.960   2.931
    1CAL  O01dI10440   3.879   6.432   2.852
    1CAL  O01dJ10441   2.379   6.433   2.852
    1CAL  O01dK10442   2.186   7.960   2.931
    1CAL  O01dL10443   2.185   6.511   2.773
    1CAL  O01dM10444   3.186   6.511   2.773
    1CAL  O01dN10445   3.186   7.960   2.931
    1CAL  O01dO10446   3.379   6.433   2.852
    1CAL  O01dP10447   3.064   7.219   2.466
    1CAL  O01dQ10448   3.815   6.914   2.773
    1CAL  O01dR10449   2.820   7.905   3.387
    1CAL  O01dS10450   2.811   7.753   3.553
    1CAL  O01dT10451   2.621   7.837   3.467
    1CAL  O01dU10452   2.678   7.504   3.386
    1CAL  O01dV10453   2.687   7.353   3.552
    1CAL  O01dW10454   2.877   7.435   3.465
    1CAL  O01dX10455   2.877   6.632   3.466
    1CAL  O01dY10456   2.687   6.549   3.553
    1CAL  O01dZ10457   2.678   6.700   3.387
    1CAL  O01da10458   2.621   7.034   3.466
    1CAL  O01db10459   2.811   6.950   3.552
    1CAL  O01dc10460   2.820   7.102   3.387
    1CAL  O01dd10461   3.679   7.504   3.386
    1CAL  O01de10462   3.877   7.435   3.466
    1CAL  O01df10463   3.687   7.352   3.552
    1CAL  O01dg10464   3.622   7.836   3.466
    1CAL  O01dh10465   3.811   7.753   3.552
    1CAL  O01di10466   3.820   7.905   3.387
    1CAL  O01dj10467   3.678   6.700   3.387
    1CAL  O01dk10468   3.877   6.632   3.466
    1CAL  O01dl10469   3.687   6.549   3.553
    1CAL  O01dm10470   3.621   7.033   3.466
    1CAL  O01dn10471   3.811   6.950   3.552
    1CAL  O01do10472   3.820   7.102   3.387
    1CAL  O01dp10473   3.311   7.753   3.553
    1CAL  O01dq10474   3.121   7.836   3.467
    1CAL  O01dr10475   3.320   7.904   3.387
    1CAL  O01ds10476   3.179   7.503   3.387
    1CAL  O01dt10477   3.188   7.351   3.553
    1CAL  O01du10478   3.378   7.435   3.467
    1CAL  O01dv10479   3.311   6.950   3.553
    1CAL  O01dw10480   3.320   7.101   3.387
    1CAL  O01dx10481   3.121   7.034   3.466
    1CAL  O01dy10482   3.179   6.700   3.388
    1CAL  O01dz10483   3.187   6.548   3.553
    1CAL  O01e010484   3.377   6.632   3.468
    1CAL  O01e110485   2.310   7.753   3.554
    1CAL  O01e210486   2.121   7.837   3.467
    1CAL  O01e310487   2.320   7.904   3.388
    1CAL  O01e410488   2.179   7.503   3.388
    1CAL  O01e510489   2.188   7.351   3.553
    1CAL  O01e610490   2.378   7.435   3.469
    1CAL  O01e710491   2.310   6.951   3.554
    1CAL  O01e810492   2.121   7.034   3.466
    1CAL  O01e910493   2.320   7.102   3.387
    1CAL  O01eA10494   2.377   6.632   3.469
    1CAL  O01eB10495   2.187   6.548   3.554
    1CAL  O01eC10496   2.179   6.700   3.389
    1CAL  Ca0X310497   3.002   7.235   3.464
    1CAL  Ca0X410498   3.750   6.939   2.545
    1CAL  Ca0X510499   3.496   7.636   3.465
    1CAL  Ca0X610500   2.002   7.235   3.465
    1CAL  Ca0X710501   2.750   7.932   3.160
    1CAL  Ca0X810502   3.750   7.341   2.545
    1CAL  Ca0X910503   3.500   7.036   2.852
    1CAL  Ca0XA10504   3.500   7.838   2.852
    1CAL  Ca0XB10505   2.249   7.531   3.159
    1CAL  Ca0XC10506   3.000   7.838   2.852
    1CAL  Ca0XD10507   2.502   6.432   3.465
    1CAL  Ca0XE10508   2.250   6.939   2.545
    1CAL  Ca0XF10509   2.250   7.130   3.160
    1CAL  Ca0XG10510   3.997   6.833   3.465
    1CAL  Ca0XH10511   3.997   7.636   3.465
    1CAL  Ca0XI10512   3.749   7.531   3.158
    1CAL  Ca0XJ10513   3.250   6.537   2.545
    1CAL  Ca0XK10514   4.000   7.838   2.852
    1CAL  Ca0XL10515   3.750   6.537   2.545
    1CAL  Ca0XM10516   2.495   6.834   3.465
    1CAL  Ca0XN10517   2.002   6.432   3.466
    1CAL  Ca0XO10518   3.751   7.130   3.160
    1CAL  Ca0XP10519   2.250   7.341   2.545
    1CAL  Ca0XQ10520   4.000   7.036   2.852
    1CAL  Ca0XR10521   3.500   7.437   2.851
    1CAL  Ca0XS10522   2.250   7.933   3.160
    1CAL  Ca0XT10523   3.750   7.742   2.546
    1CAL  Ca0XU10524   2.500   7.437   2.851
    1CAL  Ca0XV10525   2.496   7.637   3.465
    1CAL  Ca0XW10526   4.000   6.634   2.852
    1CAL  Ca0XX10527   2.500   7.838   2.852
    1CAL  Ca0XY10528   3.496   6.833   3.465
    1CAL  Ca0XZ10529   3.250   7.341   2.545
    1CAL  Ca0Xa10530   2.750   7.341   2.545
    1CAL  Ca0Xb10531   3.000   6.634   2.852
    1CAL  Ca0Xc10532   3.000   7.437   2.851
    1CAL  Ca0Xd10533   2.500   7.036   2.852
    1CAL  Ca0Xe10534   3.000   7.036   2.852
    1CAL  Ca0Xf10535   2.749   7.531   3.159
    1CAL  Ca0Xg10536   2.250   6.537   2.545
    1CAL  Ca0Xh10537   2.750   6.939   2.545
    1CAL  Ca0Xi10538   3.250   6.939   2.545
    1CAL  Ca0Xj10539   3.249   7.531   3.159
    1CAL  Ca0Xk10540   3.250   7.932   3.160
    1CAL  Ca0Xl10541   3.749   6.728   3.160
    1CAL  Ca0Xm10542   3.002   6.432   3.465
    1CAL  Ca0Xn10543   2.748   6.728   3.160
    1CAL  Ca0Xo10544   2.503   7.235   3.464
    1CAL  Ca0Xp10545   2.500   6.634   2.852
    1CAL  Ca0Xq10546   2.750   6.537   2.545
    1CAL  Ca0Xr10547   3.250   7.742   2.546
    1CAL  Ca0Xs10548   3.249   6.728   3.160
    1CAL  Ca0Xt10549   2.996   6.833   3.465
    1CAL  Ca0Xu10550   2.750   7.742   2.546
    1CAL  Ca0Xv10551   2.996   7.636   3.465
    1CAL  Ca0Xw10552   2.250   7.742   2.546
    1CAL  Ca0Xx10553   3.500   6.634   2.852
    1CAL  Ca0Xy10554   3.503   7.235   3.464
    1CAL  Ca0Xz10555   3.502   6.431   3.465
    1CAL  Ca0Y010556   2.750   7.130   3.160
    1CAL  Ca0Y110557   3.750   7.933   3.160
    1CAL  Ca0Y210558   3.250   7.130   3.160
    1CAL  Ca0Y310559   2.249   6.728   3.160
    1CAL  Ca0Y410560   4.000   7.437   2.851
    1CAL  C00Y510561   4.000   9.548   0.089
    1CAL  C00Y610562   3.250   8.038   0.396
    1CAL  C00Y710563   2.250   8.038   0.396
    1CAL  C00Y810564   3.499   8.536   0.702
    1CAL  C00Y910565   3.499   9.339   0.702
    1CAL  C00YA10566   2.750   8.038   0.396
    1CAL  C00YB10567   3.000   8.746   0.089
    1CAL  C00YC10568   3.250   9.243   0.393
    1CAL  C00YD10569   2.750   9.243   0.394
    1CAL  C00YE10570   2.500   8.938   0.703
    1CAL  C00YF10571   2.500   8.344   0.089
    1CAL  C00YG10572   3.000   9.148   0.089
    1CAL  C00YH10573   3.000   8.344   0.089
    1CAL  C00YI10574   2.250   8.441   0.396
    1CAL  C00YJ10575   2.500   8.134   0.703
    1CAL  C00YK10576   3.000   8.938   0.702
    1CAL  C00YL10577   3.750   8.038   0.396
    1CAL  C00YM10578   3.500   8.134   0.703
    1CAL  C00YN10579   2.250   8.843   0.396
    1CAL  C00YO10580   3.999   8.536   0.703
    1CAL  C00YP10581   4.000   8.938   0.702
    1CAL  C00YQ10582   4.000   8.344   0.089
    1CAL  C00YR10583   4.000   9.148   0.089
    1CAL  C00YS10584   2.250   9.243   0.394
    1CAL  C00YT10585   2.499   8.536   0.702
    1CAL  C00YU10586   3.500   8.746   0.089
    1CAL  C00YV10587   4.000   8.746   0.089
    1CAL  C00YW10588   3.750   8.441   0.396
    1CAL  C00YX10589   3.250   8.441   0.396
    1CAL  C00YY10590   3.500   8.344   0.089
    1CAL  C00YZ10591   3.500   8.938   0.702
    1CAL  C00Ya10592   2.498   9.339   0.702
    1CAL  C00Yb10593   3.500   9.548   0.089
    1CAL  C00Yc10594   2.750   8.441   0.396
    1CAL  C00Yd10595   3.250   8.843   0.396
    1CAL  C00Ye10596   2.500   9.148   0.089
    1CAL  C00Yf10597   3.750   9.243   0.393
    1CAL  C00Yg10598   3.000   9.548   0.089
    1CAL  C00Yh10599   3.999   9.339   0.703
    1CAL  C00Yi10600   3.000   8.134   0.702
    1CAL  C00Yj10601   2.999   9.339   0.702
    1CAL  C00Yk10602   2.999   8.536   0.703
    1CAL  C00Yl10603   3.750   8.843   0.396
    1CAL  C00Ym10604   2.500   9.548   0.089
    1CAL  C00Yn10605   3.500   9.148   0.089
    1CAL  C00Yo10606   2.500   8.746   0.089
    1CAL  C00Yp10607   2.750   8.843   0.396
    1CAL  C00Yq10608   4.000   8.134   0.703
    1CAL  C00Yr10609   2.751   8.634   1.013
    1CAL  C00Ys10610   2.747   8.233   1.013
    1CAL  C00Yt10611   2.747   9.036   1.012
    1CAL  C00Yu10612   2.751   9.437   1.013
    1CAL  C00Yv10613   3.751   8.634   1.013
    1CAL  C00Yw10614   3.747   8.233   1.013
    1CAL  C00Yx10615   3.751   9.437   1.013
    1CAL  C00Yy10616   3.748   9.036   1.012
    1CAL  C00Yz10617   3.251   9.437   1.013
    1CAL  C00Z010618   3.248   9.035   1.013
    1CAL  C00Z110619   3.251   8.634   1.013
    1CAL  C00Z210620   3.247   8.232   1.014
    1CAL  C00Z310621   2.251   9.437   1.014
    1CAL  C00Z410622   2.248   9.035   1.014
    1CAL  C00Z510623   2.251   8.635   1.013
    1CAL  C00Z610624   2.247   8.232   1.015
    1CAL  O01eD10625   2.185   8.765   0.475
    1CAL  O01eE10626   3.186   8.922   0.317
    1CAL  O01eF10627   3.185   8.765   0.475
    1CAL  O01eG10628   3.379   8.843   0.397
    1CAL  O01eH10629   2.564   9.469   0.168
    1CAL  O01eI10630   2.371   9.549   0.088
    1CAL  O01eJ10631   2.564   8.825   0.010
    1CAL  O01eK10632   2.686   8.922   0.317
    1CAL  O01eL10633   2.685   8.765   0.475
    1CAL  O01eM10634   2.879   8.843   0.397
    1CAL  O01eN10635   2.565   9.626   0.010
    1CAL  O01eO10636   2.564   8.668   0.168
    1CAL  O01eP10637   2.371   8.746   0.089
    1CAL  O01eQ10638   3.128   9.338   0.703
    1CAL  O01eR10639   2.935   9.417   0.622
    1CAL  O01eS10640   2.936   8.615   0.622
    1CAL  O01eT10641   2.933   8.458   0.782
    1CAL  O01eU10642   3.128   8.535   0.704
    1CAL  O01eV10643   2.933   9.261   0.782
    1CAL  O01eW10644   2.621   8.441   0.396
    1CAL  O01eX10645   3.063   9.017   0.622
    1CAL  O01eY10646   3.122   9.243   0.393
    1CAL  O01eZ10647   3.314   9.164   0.473
    1CAL  O01ea10648   3.315   9.321   0.315
    1CAL  O01eb10649   2.436   8.265   0.168
    1CAL  O01ec10650   2.435   8.422   0.010
    1CAL  O01ed10651   2.621   9.243   0.393
    1CAL  O01ee10652   2.814   9.164   0.473
    1CAL  O01ef10653   2.815   9.321   0.315
    1CAL  O01eg10654   2.314   8.520   0.317
    1CAL  O01eh10655   2.814   8.362   0.475
    1CAL  O01ei10656   2.936   9.227   0.009
    1CAL  O01ej10657   3.129   9.148   0.089
    1CAL  O01ek10658   2.314   8.362   0.476
    1CAL  O01el10659   2.121   8.441   0.396
    1CAL  O01em10660   2.814   8.520   0.317
    1CAL  O01en10661   2.936   8.423   0.009
    1CAL  O01eo10662   2.936   8.265   0.168
    1CAL  O01ep10663   3.129   8.344   0.089
    1CAL  O01eq10664   2.870   8.937   0.703
    1CAL  O01er10665   3.066   8.860   0.781
    1CAL  O01es10666   2.935   9.070   0.168
    1CAL  O01et10667   3.686   8.922   0.317
    1CAL  O01eu10668   3.685   8.765   0.475
    1CAL  O01ev10669   3.879   8.843   0.397
    1CAL  O01ew10670   3.934   9.260   0.782
    1CAL  O01ex10671   3.936   8.615   0.623
    1CAL  O01ey10672   3.934   8.457   0.782
    1CAL  O01ez10673   2.128   9.338   0.704
    1CAL  O01f010674   2.064   8.213   0.623
    1CAL  O01f110675   3.436   9.227   0.009
    1CAL  O01f210676   3.435   9.070   0.168
    1CAL  O01f310677   3.629   9.148   0.089
    1CAL  O01f410678   2.065   8.056   0.783
    1CAL  O01f510679   3.434   9.261   0.782
    1CAL  O01f610680   2.065   9.626   0.010
    1CAL  O01f710681   2.064   9.469   0.168
    1CAL  O01f810682   2.871   9.549   0.088
    1CAL  O01f910683   3.871   8.937   0.704
    1CAL  O01fA10684   3.936   8.265   0.168
    1CAL  O01fB10685   3.064   8.213   0.623
    1CAL  O01fC10686   2.436   9.227   0.009
    1CAL  O01fD10687   2.435   9.070   0.168
    1CAL  O01fE10688   2.629   9.148   0.089
    1CAL  O01fF10689   3.065   8.055   0.782
    1CAL  O01fG10690   2.433   9.261   0.782
    1CAL  O01fH10691   2.871   8.134   0.703
    1CAL  O01fI10692   3.872   8.746   0.089
    1CAL  O01fJ10693   3.065   9.626   0.010
    1CAL  O01fK10694   3.064   9.469   0.168
    1CAL  O01fL10695   3.622   9.243   0.393
    1CAL  O01fM10696   3.814   9.164   0.473
    1CAL  O01fN10697   3.815   9.321   0.314
    1CAL  O01fO10698   3.937   9.227   0.009
    1CAL  O01fP10699   3.935   9.070   0.168
    1CAL  O01fQ10700   3.936   8.423   0.009
    1CAL  O01fR10701   2.629   8.344   0.088
    1CAL  O01fS10702   2.379   8.843   0.397
    1CAL  O01fT10703   2.370   8.937   0.706
    1CAL  O01fU10704   3.065   8.668   0.168
    1CAL  O01fV10705   3.564   9.469   0.168
    1CAL  O01fW10706   3.565   9.626   0.010
    1CAL  O01fX10707   3.622   8.441   0.396
    1CAL  O01fY10708   3.815   8.362   0.475
    1CAL  O01fZ10709   3.372   9.549   0.088
    1CAL  O01fa10710   3.121   8.441   0.396
    1CAL  O01fb10711   3.314   8.520   0.317
    1CAL  O01fc10712   2.628   9.338   0.703
    1CAL  O01fd10713   3.436   8.422   0.010
    1CAL  O01fe10714   3.436   8.265   0.168
    1CAL  O01ff10715   3.629   8.344   0.088
    1CAL  O01fg10716   3.371   8.937   0.705
    1CAL  O01fh10717   3.566   8.860   0.781
    1CAL  O01fi10718   3.315   8.362   0.475
    1CAL  O01fj10719   3.563   9.018   0.622
    1CAL  O01fk10720   2.065   8.668   0.168
    1CAL  O01fl10721   3.565   8.668   0.168
    1CAL  O01fm10722   2.186   8.922   0.317
    1CAL  O01fn10723   2.063   9.018   0.622
    1CAL  O01fo10724   2.065   8.860   0.782
    1CAL  O01fp10725   2.128   8.535   0.704
    1CAL  O01fq10726   2.129   8.344   0.089
    1CAL  O01fr10727   2.128   9.148   0.089
    1CAL  O01fs10728   3.564   8.825   0.010
    1CAL  O01ft10729   2.315   9.321   0.315
    1CAL  O01fu10730   3.872   9.549   0.088
    1CAL  O01fv10731   3.871   8.134   0.704
    1CAL  O01fw10732   2.121   9.243   0.393
    1CAL  O01fx10733   3.935   9.417   0.622
    1CAL  O01fy10734   2.064   8.825   0.010
    1CAL  O01fz10735   3.372   8.746   0.089
    1CAL  O01g010736   2.314   9.164   0.473
    1CAL  O01g110737   2.434   9.418   0.622
    1CAL  O01g210738   2.628   8.535   0.703
    1CAL  O01g310739   3.371   8.133   0.705
    1CAL  O01g410740   3.436   8.615   0.622
    1CAL  O01g510741   3.434   8.458   0.782
    1CAL  O01g610742   3.629   8.535   0.703
    1CAL  O01g710743   2.879   8.038   0.396
    1CAL  O01g810744   2.686   9.566   0.475
    1CAL  O01g910745   3.434   9.417   0.622
    1CAL  O01gA10746   3.628   9.338   0.702
    1CAL  O01gB10747   2.686   8.117   0.317
    1CAL  O01gC10748   2.563   8.213   0.623
    1CAL  O01gD10749   2.566   8.056   0.782
    1CAL  O01gE10750   2.370   8.134   0.705
    1CAL  O01gF10751   2.562   9.018   0.622
    1CAL  O01gG10752   2.567   8.860   0.782
    1CAL  O01gH10753   2.871   8.746   0.089
    1CAL  O01gI10754   3.566   8.055   0.782
    1CAL  O01gJ10755   3.564   8.213   0.623
    1CAL  O01gK10756   2.433   8.458   0.782
    1CAL  O01gL10757   2.435   8.616   0.623
    1CAL  O01gM10758   3.686   8.117   0.317
    1CAL  O01gN10759   3.686   9.566   0.475
    1CAL  O01gO10760   3.879   8.038   0.396
    1CAL  O01gP10761   2.379   8.039   0.396
    1CAL  O01gQ10762   2.186   9.566   0.475
    1CAL  O01gR10763   2.185   8.117   0.317
    1CAL  O01gS10764   3.186   8.117   0.317
    1CAL  O01gT10765   3.186   9.566   0.475
    1CAL  O01gU10766   3.379   8.039   0.396
    1CAL  O01gV10767   3.064   8.825   0.010
    1CAL  O01gW10768   3.815   8.520   0.317
    1CAL  O01gX10769   2.820   9.511   0.931
    1CAL  O01gY10770   2.811   9.359   1.097
    1CAL  O01gZ10771   2.621   9.443   1.011
    1CAL  O01ga10772   2.678   9.110   0.930
    1CAL  O01gb10773   2.687   8.959   1.096
    1CAL  O01gc10774   2.877   9.041   1.009
    1CAL  O01gd10775   2.877   8.238   1.010
    1CAL  O01ge10776   2.687   8.155   1.097
    1CAL  O01gf10777   2.678   8.306   0.931
    1CAL  O01gg10778   2.621   8.640   1.010
    1CAL  O01gh10779   2.811   8.556   1.096
    1CAL  O01gi10780   2.820   8.708   0.931
    1CAL  O01gj10781   3.679   9.110   0.930
    1CAL  O01gk10782   3.877   9.041   1.010
    1CAL  O01gl10783   3.687   8.958   1.096
    1CAL  O01gm10784   3.622   9.442   1.010
    1CAL  O01gn10785   3.811   9.359   1.096
    1CAL  O01go10786   3.820   9.511   0.931
    1CAL  O01gp10787   3.678   8.306   0.931
    1CAL  O01gq10788   3.877   8.238   1.010
    1CAL  O01gr10789   3.687   8.155   1.097
    1CAL  O01gs10790   3.621   8.639   1.010
    1CAL  O01gt10791   3.811   8.556   1.096
    1CAL  O01gu10792   3.820   8.708   0.931
    1CAL  O01gv10793   3.311   9.359   1.097
    1CAL  O01gw10794   3.121   9.442   1.011
    1CAL  O01gx10795   3.320   9.510   0.931
    1CAL  O01gy10796   3.179   9.109   0.931
    1CAL  O01gz10797   3.188   8.957   1.097
    1CAL  O01h010798   3.378   9.041   1.011
    1CAL  O01h110799   3.311   8.556   1.097
    1CAL  O01h210800   3.320   8.707   0.931
    1CAL  O01h310801   3.121   8.640   1.010
    1CAL  O01h410802   3.179   8.306   0.932
    1CAL  O01h510803   3.187   8.154   1.097
    1CAL  O01h610804   3.377   8.238   1.012
    1CAL  O01h710805   2.310   9.359   1.098
    1CAL  O01h810806   2.121   9.443   1.011
    1CAL  O01h910807   2.320   9.510   0.932
    1CAL  O01hA10808   2.179   9.109   0.932
    1CAL  O01hB10809   2.188   8.957   1.097
    1CAL  O01hC10810   2.378   9.041   1.013
    1CAL  O01hD10811   2.310   8.557   1.098
    1CAL  O01hE10812   2.121   8.640   1.010
    1CAL  O01hF10813   2.320   8.708   0.931
    1CAL  O01hG10814   2.377   8.238   1.013
    1CAL  O01hH10815   2.187   8.154   1.098
    1CAL  O01hI10816   2.179   8.306   0.933
    1CAL  Ca0Y510817   3.002   8.841   1.008
    1CAL  Ca0Y610818   3.750   8.545   0.089
    1CAL  Ca0Y710819   3.496   9.242   1.009
    1CAL  Ca0Y810820   2.002   8.841   1.009
    1CAL  Ca0Y910821   2.750   9.538   0.704
    1CAL  Ca0YA10822   3.750   8.947   0.089
    1CAL  Ca0YB10823   3.500   8.642   0.396
    1CAL  Ca0YC10824   3.500   9.444   0.396
    1CAL  Ca0YD10825   2.249   9.137   0.703
    1CAL  Ca0YE10826   3.000   9.444   0.396
    1CAL  Ca0YF10827   2.502   8.038   1.009
    1CAL  Ca0YG10828   2.250   8.545   0.089
    1CAL  Ca0YH10829   2.250   8.736   0.704
    1CAL  Ca0YI10830   3.997   8.439   1.009
    1CAL  Ca0YJ10831   3.997   9.242   1.009
    1CAL  Ca0YK10832   3.749   9.137   0.702
    1CAL  Ca0YL10833   3.250   8.143   0.089
    1CAL  Ca0YM10834   4.000   9.444   0.396
    1CAL  Ca0YN10835   3.750   8.143   0.089
    1CAL  Ca0YO10836   2.495   8.440   1.009
    1CAL  Ca0YP10837   2.002   8.038   1.010
    1CAL  Ca0YQ10838   3.751   8.736   0.704
    1CAL  Ca0YR10839   2.250   8.947   0.089
    1CAL  Ca0YS10840   4.000   8.642   0.396
    1CAL  Ca0YT10841   3.500   9.043   0.395
    1CAL  Ca0YU10842   2.250   9.539   0.704
    1CAL  Ca0YV10843   3.750   9.348   0.090
    1CAL  Ca0YW10844   2.500   9.043   0.395
    1CAL  Ca0YX10845   2.496   9.243   1.009
    1CAL  Ca0YY10846   4.000   8.240   0.396
    1CAL  Ca0YZ10847   2.500   9.444   0.396
    1CAL  Ca0Ya10848   3.496   8.439   1.009
    1CAL  Ca0Yb10849   3.250   8.947   0.089
    1CAL  Ca0Yc10850   2.750   8.947   0.089
    1CAL  Ca0Yd10851   3.000   8.240   0.396
    1CAL  Ca0Ye10852   3.000   9.043   0.395
    1CAL  Ca0Yf10853   2.500   8.642   0.396
    1CAL  Ca0Yg10854   3.000   8.642   0.396
    1CAL  Ca0Yh10855   2.749   9.137   0.703
    1CAL  Ca0Yi10856   2.250   8.143   0.089
    1CAL  Ca0Yj10857   2.750   8.545   0.089
    1CAL  Ca0Yk10858   3.250   8.545   0.089
    1CAL  Ca0Yl10859   3.249   9.137   0.703
    1CAL  Ca0Ym10860   3.250   9.538   0.704
    1CAL  Ca0Yn10861   3.749   8.334   0.704
    1CAL  Ca0Yo10862   3.002   8.038   1.009
    1CAL  Ca0Yp10863   2.748   8.334   0.704
    1CAL  Ca0Yq10864   2.503   8.841   1.008
    1CAL  Ca0Yr10865   2.500   8.240   0.396
    1CAL  Ca0Ys10866   2.750   8.143   0.089
    1CAL  Ca0Yt10867   3.250   9.348   0.090
    1CAL  Ca0Yu10868   3.249   8.334   0.704
    1CAL  Ca0Yv10869   2.996   8.439   1.009
    1CAL  Ca0Yw10870   2.750   9.348   0.090
    1CAL  Ca0Yx10871   2.996   9.242   1.009
    1CAL  Ca0Yy10872   2.250   9.348   0.090
    1CAL  Ca0Yz10873   3.500   8.240   0.396
    1CAL  Ca0Z010874   3.503   8.841   1.008
    1CAL  Ca0Z110875   3.502   8.037   1.009
    1CAL  Ca0Z210876   2.750   8.736   0.704
    1CAL  Ca0Z310877   3.750   9.539   0.704
    1CAL  Ca0Z410878   3.250   8.736   0.704
    1CAL  Ca0Z510879   2.249   8.334   0.704
    1CAL  Ca0Z610880   4.000   9.043   0.395
    1CAL  C00Z710881   4.000   9.548   1.317
    1CAL  C00Z810882   3.250   8.038   1.624
    1CAL  C00Z910883   2.250   8.038   1.624
    1CAL  C00ZA10884   3.499   8.536   1.930
    1CAL  C00ZB10885   3.499   9.339   1.930
    1CAL  C00ZC10886   2.750   8.038   1.624
    1CAL  C00ZD10887   3.000   8.746   1.317
    1CAL  C00ZE10888   3.250   9.243   1.621
    1CAL  C00ZF10889   2.750   9.243   1.622
    1CAL  C00ZG10890   2.500   8.938   1.931
    1CAL  C00ZH10891   2.500   8.344   1.317
    1CAL  C00ZI10892   3.000   9.148   1.317
    1CAL  C00ZJ10893   3.000   8.344   1.317
    1CAL  C00ZK10894   2.250   8.441   1.624
    1CAL  C00ZL10895   2.500   8.134   1.931
    1CAL  C00ZM10896   3.000   8.938   1.930
    1CAL  C00ZN10897   3.750   8.038   1.624
    1CAL  C00ZO10898   3.500   8.134   1.931
    1CAL  C00ZP10899   2.250   8.843   1.624
    1CAL  C00ZQ10900   3.999   8.536   1.931
    1CAL  C00ZR10901   4.000   8.938   1.930
    1CAL  C00ZS10902   4.000   8.344   1.317
    1CAL  C00ZT10903   4.000   9.148   1.317
    1CAL  C00ZU10904   2.250   9.243   1.622
    1CAL  C00ZV10905   2.499   8.536   1.930
    1CAL  C00ZW10906   3.500   8.746   1.317
    1CAL  C00ZX10907   4.000   8.746   1.317
    1CAL  C00ZY10908   3.750   8.441   1.624
    1CAL  C00ZZ10909   3.250   8.441   1.624
    1CAL  C00Za10910   3.500   8.344   1.317
    1CAL  C00Zb10911   3.500   8.938   1.930
    1CAL  C00Zc10912   2.498   9.339   1.930
    1CAL  C00Zd10913   3.500   9.548   1.317
    1CAL  C00Ze10914   2.750   8.441   1.624
    1CAL  C00Zf10915   3.250   8.843   1.624
    1CAL  C00Zg10916   2.500   9.148   1.317
    1CAL  C00Zh10917   3.750   9.243   1.621
    1CAL  C00Zi10918   3.000   9.548   1.317
    1CAL  C00Zj10919   3.999   9.339   1.931
    1CAL  C00Zk10920   3.000   8.134   1.930
    1CAL  C00Zl10921   2.999   9.339   1.930
    1CAL  C00Zm10922   2.999   8.536   1.931
    1CAL  C00Zn10923   3.750   8.843   1.624
    1CAL  C00Zo10924   2.500   9.548   1.317
    1CAL  C00Zp10925   3.500   9.148   1.317
    1CAL  C00Zq10926   2.500   8.746   1.317
    1CAL  C00Zr10927   2.750   8.843   1.624
    1CAL  C00Zs10928   4.000   8.134   1.931
    1CAL  C00Zt10929   2.751   8.634   2.241
    1CAL  C00Zu10930   2.747   8.233   2.241
    1CAL  C00Zv10931   2.747   9.036   2.240
    1CAL  C00Zw10932   2.751   9.437   2.241
    1CAL  C00Zx10933   3.751   8.634   2.241
    1CAL  C00Zy10934   3.747   8.233   2.241
    1CAL  C00Zz10935   3.751   9.437   2.241
    1CAL  C00a010936   3.748   9.036   2.240
    1CAL  C00a110937   3.251   9.437   2.241
    1CAL  C00a210938   3.248   9.035   2.241
    1CAL  C00a310939   3.251   8.634   2.241
    1CAL  C00a410940   3.247   8.232   2.242
    1CAL  C00a510941   2.251   9.437   2.242
    1CAL  C00a610942   2.248   9.035   2.242
    1CAL  C00a710943   2.251   8.635   2.241
    1CAL  C00a810944   2.247   8.232   2.243
    1CAL  O01hJ10945   2.185   8.765   1.703
    1CAL  O01hK10946   3.186   8.922   1.545
    1CAL  O01hL10947   3.185   8.765   1.703
    1CAL  O01hM10948   3.379   8.843   1.625
    1CAL  O01hN10949   2.564   9.469   1.396
    1CAL  O01hO10950   2.371   9.549   1.316
    1CAL  O01hP10951   2.564   8.825   1.238
    1CAL  O01hQ10952   2.686   8.922   1.545
    1CAL  O01hR10953   2.685   8.765   1.703
    1CAL  O01hS10954   2.879   8.843   1.625
    1CAL  O01hT10955   2.565   9.626   1.238
    1CAL  O01hU10956   2.564   8.668   1.396
    1CAL  O01hV10957   2.371   8.746   1.317
    1CAL  O01hW10958   3.128   9.338   1.931
    1CAL  O01hX10959   2.935   9.417   1.850
    1CAL  O01hY10960   2.936   8.615   1.850
    1CAL  O01hZ10961   2.933   8.458   2.010
    1CAL  O01ha10962   3.128   8.535   1.932
    1CAL  O01hb10963   2.933   9.261   2.010
    1CAL  O01hc10964   2.621   8.441   1.624
    1CAL  O01hd10965   3.063   9.017   1.850
    1CAL  O01he10966   3.122   9.243   1.621
    1CAL  O01hf10967   3.314   9.164   1.701
    1CAL  O01hg10968   3.315   9.321   1.543
    1CAL  O01hh10969   2.436   8.265   1.396
    1CAL  O01hi10970   2.435   8.422   1.238
    1CAL  O01hj10971   2.621   9.243   1.621
    1CAL  O01hk10972   2.814   9.164   1.701
    1CAL  O01hl10973   2.815   9.321   1.543
    1CAL  O01hm10974   2.314   8.520   1.545
    1CAL  O01hn10975   2.814   8.362   1.703
    1CAL  O01ho10976   2.936   9.227   1.237
    1CAL  O01hp10977   3.129   9.148   1.317
    1CAL  O01hq10978   2.314   8.362   1.704
    1CAL  O01hr10979   2.121   8.441   1.624
    1CAL  O01hs10980   2.814   8.520   1.545
    1CAL  O01ht10981   2.936   8.423   1.237
    1CAL  O01hu10982   2.936   8.265   1.396
    1CAL  O01hv10983   3.129   8.344   1.317
    1CAL  O01hw10984   2.870   8.937   1.931
    1CAL  O01hx10985   3.066   8.860   2.009
    1CAL  O01hy10986   2.935   9.070   1.396
    1CAL  O01hz10987   3.686   8.922   1.545
    1CAL  O01i010988   3.685   8.765   1.703
    1CAL  O01i110989   3.879   8.843   1.625
    1CAL  O01i210990   3.934   9.260   2.010
    1CAL  O01i310991   3.936   8.615   1.851
    1CAL  O01i410992   3.934   8.457   2.010
    1CAL  O01i510993   2.128   9.338   1.932
    1CAL  O01i610994   2.064   8.213   1.851
    1CAL  O01i710995   3.436   9.227   1.237
    1CAL  O01i810996   3.435   9.070   1.396
    1CAL  O01i910997   3.629   9.148   1.317
    1CAL  O01iA10998   2.065   8.056   2.011
    1CAL  O01iB10999   3.434   9.261   2.010
    1CAL  O01iC11000   2.065   9.626   1.238
    1CAL  O01iD11001   2.064   9.469   1.396
    1CAL  O01iE11002   2.871   9.549   1.316
    1CAL  O01iF11003   3.871   8.937   1.932
    1CAL  O01iG11004   3.936   8.265   1.396
    1CAL  O01iH11005   3.064   8.213   1.851
    1CAL  O01iI11006   2.436   9.227   1.237
    1CAL  O01iJ11007   2.435   9.070   1.396
    1CAL  O01iK11008   2.629   9.148   1.317
    1CAL  O01iL11009   3.065   8.055   2.010
    1CAL  O01iM11010   2.433   9.261   2.010
    1CAL  O01iN11011   2.871   8.134   1.931
    1CAL  O01iO11012   3.872   8.746   1.317
    1CAL  O01iP11013   3.065   9.626   1.238
    1CAL  O01iQ11014   3.064   9.469   1.396
    1CAL  O01iR11015   3.622   9.243   1.621
    1CAL  O01iS11016   3.814   9.164   1.701
    1CAL  O01iT11017   3.815   9.321   1.542
    1CAL  O01iU11018   3.937   9.227   1.237
    1CAL  O01iV11019   3.935   9.070   1.396
    1CAL  O01iW11020   3.936   8.423   1.237
    1CAL  O01iX11021   2.629   8.344   1.316
    1CAL  O01iY11022   2.379   8.843   1.625
    1CAL  O01iZ11023   2.370   8.937   1.934
    1CAL  O01ia11024   3.065   8.668   1.396
    1CAL  O01ib11025   3.564   9.469   1.396
    1CAL  O01ic11026   3.565   9.626   1.238
    1CAL  O01id11027   3.622   8.441   1.624
    1CAL  O01ie11028   3.815   8.362   1.703
    1CAL  O01if11029   3.372   9.549   1.316
    1CAL  O01ig11030   3.121   8.441   1.624
    1CAL  O01ih11031   3.314   8.520   1.545
    1CAL  O01ii11032   2.628   9.338   1.931
    1CAL  O01ij11033   3.436   8.422   1.238
    1CAL  O01ik11034   3.436   8.265   1.396
    1CAL  O01il11035   3.629   8.344   1.316
    1CAL  O01im11036   3.371   8.937   1.933
    1CAL  O01in11037   3.566   8.860   2.009
    1CAL  O01io11038   3.315   8.362   1.703
    1CAL  O01ip11039   3.563   9.018   1.850
    1CAL  O01iq11040   2.065   8.668   1.396
    1CAL  O01ir11041   3.565   8.668   1.396
    1CAL  O01is11042   2.186   8.922   1.545
    1CAL  O01it11043   2.063   9.018   1.850
    1CAL  O01iu11044   2.065   8.860   2.010
    1CAL  O01iv11045   2.128   8.535   1.932
    1CAL  O01iw11046   2.129   8.344   1.317
    1CAL  O01ix11047   2.128   9.148   1.317
    1CAL  O01iy11048   3.564   8.825   1.238
    1CAL  O01iz11049   2.315   9.321   1.543
    1CAL  O01j011050   3.872   9.549   1.316
    1CAL  O01j111051   3.871   8.134   1.932
    1CAL  O01j211052   2.121   9.243   1.621
    1CAL  O01j311053   3.935   9.417   1.850
    1CAL  O01j411054   2.064   8.825   1.238
    1CAL  O01j511055   3.372   8.746   1.317
    1CAL  O01j611056   2.314   9.164   1.701
    1CAL  O01j711057   2.434   9.418   1.850
    1CAL  O01j811058   2.628   8.535   1.931
    1CAL  O01j911059   3.371   8.133   1.933
    1CAL  O01jA11060   3.436   8.615   1.850
    1CAL  O01jB11061   3.434   8.458   2.010
    1CAL  O01jC11062   3.629   8.535   1.931
    1CAL  O01jD11063   2.879   8.038   1.624
    1CAL  O01jE11064   2.686   9.566   1.703
    1CAL  O01jF11065   3.434   9.417   1.850
    1CAL  O01jG11066   3.628   9.338   1.930
    1CAL  O01jH11067   2.686   8.117   1.545
    1CAL  O01jI11068   2.563   8.213   1.851
    1CAL  O01jJ11069   2.566   8.056   2.010
    1CAL  O01jK11070   2.370   8.134   1.933
    1CAL  O01jL11071   2.562   9.018   1.850
    1CAL  O01jM11072   2.567   8.860   2.010
    1CAL  O01jN11073   2.871   8.746   1.317
    1CAL  O01jO11074   3.566   8.055   2.010
    1CAL  O01jP11075   3.564   8.213   1.851
    1CAL  O01jQ11076   2.433   8.458   2.010
    1CAL  O01jR11077   2.435   8.616   1.851
    1CAL  O01jS11078   3.686   8.117   1.545
    1CAL  O01jT11079   3.686   9.566   1.703
    1CAL  O01jU11080   3.879   8.038   1.624
    1CAL  O01jV11081   2.379   8.039   1.624
    1CAL  O01jW11082   2.186   9.566   1.703
    1CAL  O01jX11083   2.185   8.117   1.545
    1CAL  O01jY11084   3.186   8.117   1.545
    1CAL  O01jZ11085   3.186   9.566   1.703
    1CAL  O01ja11086   3.379   8.039   1.624
    1CAL  O01jb11087   3.064   8.825   1.238
    1CAL  O01jc11088   3.815   8.520   1.545
    1CAL  O01jd11089   2.820   9.511   2.159
    1CAL  O01je11090   2.811   9.359   2.325
    1CAL  O01jf11091   2.621   9.443   2.239
    1CAL  O01jg11092   2.678   9.110   2.158
    1CAL  O01jh11093   2.687   8.959   2.324
    1CAL  O01ji11094   2.877   9.041   2.237
    1CAL  O01jj11095   2.877   8.238   2.238
    1CAL  O01jk11096   2.687   8.155   2.325
    1CAL  O01jl11097   2.678   8.306   2.159
    1CAL  O01jm11098   2.621   8.640   2.238
    1CAL  O01jn11099   2.811   8.556   2.324
    1CAL  O01jo11100   2.820   8.708   2.159
    1CAL  O01jp11101   3.679   9.110   2.158
    1CAL  O01jq11102   3.877   9.041   2.238
    1CAL  O01jr11103   3.687   8.958   2.324
    1CAL  O01js11104   3.622   9.442   2.238
    1CAL  O01jt11105   3.811   9.359   2.324
    1CAL  O01ju11106   3.820   9.511   2.159
    1CAL  O01jv11107   3.678   8.306   2.159
    1CAL  O01jw11108   3.877   8.238   2.238
    1CAL  O01jx11109   3.687   8.155   2.325
    1CAL  O01jy11110   3.621   8.639   2.238
    1CAL  O01jz11111   3.811   8.556   2.324
    1CAL  O01k011112   3.820   8.708   2.159
    1CAL  O01k111113   3.311   9.359   2.325
    1CAL  O01k211114   3.121   9.442   2.239
    1CAL  O01k311115   3.320   9.510   2.159
    1CAL  O01k411116   3.179   9.109   2.159
    1CAL  O01k511117   3.188   8.957   2.325
    1CAL  O01k611118   3.378   9.041   2.239
    1CAL  O01k711119   3.311   8.556   2.325
    1CAL  O01k811120   3.320   8.707   2.159
    1CAL  O01k911121   3.121   8.640   2.238
    1CAL  O01kA11122   3.179   8.306   2.160
    1CAL  O01kB11123   3.187   8.154   2.325
    1CAL  O01kC11124   3.377   8.238   2.240
    1CAL  O01kD11125   2.310   9.359   2.326
    1CAL  O01kE11126   2.121   9.443   2.239
    1CAL  O01kF11127   2.320   9.510   2.160
    1CAL  O01kG11128   2.179   9.109   2.160
    1CAL  O01kH11129   2.188   8.957   2.325
    1CAL  O01kI11130   2.378   9.041   2.241
    1CAL  O01kJ11131   2.310   8.557   2.326
    1CAL  O01kK11132   2.121   8.640   2.238
    1CAL  O01kL11133   2.320   8.708   2.159
    1CAL  O01kM11134   2.377   8.238   2.241
    1CAL  O01kN11135   2.187   8.154   2.326
    1CAL  O01kO11136   2.179   8.306   2.161
    1CAL  Ca0Z711137   3.002   8.841   2.236
    1CAL  Ca0Z811138   3.750   8.545   1.317
    1CAL  Ca0Z911139   3.496   9.242   2.237
    1CAL  Ca0ZA11140   2.002   8.841   2.237
    1CAL  Ca0ZB11141   2.750   9.538   1.932
    1CAL  Ca0ZC11142   3.750   8.947   1.317
    1CAL  Ca0ZD11143   3.500   8.642   1.624
    1CAL  Ca0ZE11144   3.500   9.444   1.624
    1CAL  Ca0ZF11145   2.249   9.137   1.931
    1CAL  Ca0ZG11146   3.000   9.444   1.624
    1CAL  Ca0ZH11147   2.502   8.038   2.237
    1CAL  Ca0ZI11148   2.250   8.545   1.317
    1CAL  Ca0ZJ11149   2.250   8.736   1.932
    1CAL  Ca0ZK11150   3.997   8.439   2.237
    1CAL  Ca0ZL11151   3.997   9.242   2.237
    1CAL  Ca0ZM11152   3.749   9.137   1.930
    1CAL  Ca0ZN11153   3.250   8.143   1.317
    1CAL  Ca0ZO11154   4.000   9.444   1.624
    1CAL  Ca0ZP11155   3.750   8.143   1.317
    1CAL  Ca0ZQ11156   2.495   8.440   2.237
    1CAL  Ca0ZR11157   2.002   8.038   2.238
    1CAL  Ca0ZS11158   3.751   8.736   1.932
    1CAL  Ca0ZT11159   2.250   8.947   1.317
    1CAL  Ca0ZU11160   4.000   8.642   1.624
    1CAL  Ca0ZV11161   3.500   9.043   1.623
    1CAL  Ca0ZW11162   2.250   9.539   1.932
    1CAL  Ca0ZX11163   3.750   9.348   1.318
    1CAL  Ca0ZY11164   2.500   9.043   1.623
    1CAL  Ca0ZZ11165   2.496   9.243   2.237
    1CAL  Ca0Za11166   4.000   8.240   1.624
    1CAL  Ca0Zb11167   2.500   9.444   1.624
    1CAL  Ca0Zc11168   3.496   8.439   2.237
    1CAL  Ca0Zd11169   3.250   8.947   1.317
    1CAL  Ca0Ze11170   2.750   8.947   1.317
    1CAL  Ca0Zf11171   3.000   8.240   1.624
    1CAL  Ca0Zg11172   3.000   9.043   1.623
    1CAL  Ca0Zh11173   2.500   8.642   1.624
    1CAL  Ca0Zi11174   3.000   8.642   1.624
    1CAL  Ca0Zj11175   2.749   9.137   1.931
    1CAL  Ca0Zk11176   2.250   8.143   1.317
    1CAL  Ca0Zl11177   2.750   8.545   1.317
    1CAL  Ca0Zm11178   3.250   8.545   1.317
    1CAL  Ca0Zn11179   3.249   9.137   1.931
    1CAL  Ca0Zo11180   3.250   9.538   1.932
    1CAL  Ca0Zp11181   3.749   8.334   1.932
    1CAL  Ca0Zq11182   3.002   8.038   2.237
    1CAL  Ca0Zr11183   2.748   8.334   1.932
    1CAL  Ca0Zs11184   2.503   8.841   2.236
    1CAL  Ca0Zt11185   2.500   8.240   1.624
    1CAL  Ca0Zu11186   2.750   8.143   1.317
    1CAL  Ca0Zv11187   3.250   9.348   1.318
    1CAL  Ca0Zw11188   3.249   8.334   1.932
    1CAL  Ca0Zx11189   2.996   8.439   2.237
    1CAL  Ca0Zy11190   2.750   9.348   1.318
    1CAL  Ca0Zz11191   2.996   9.242   2.237
    1CAL  Ca0a011192   2.250   9.348   1.318
    1CAL  Ca0a111193   3.500   8.240   1.624
    1CAL  Ca0a211194   3.503   8.841   2.236
    1CAL  Ca0a311195   3.502   8.037   2.237
    1CAL  Ca0a411196   2.750   8.736   1.932
    1CAL  Ca0a511197   3.750   9.539   1.932
    1CAL  Ca0a611198   3.250   8.736   1.932
    1CAL  Ca0a711199   2.249   8.334   1.932
    1CAL  Ca0a811200   4.000   9.043   1.623
    1CAL  C00a911201   4.000   9.548   2.545
    1CAL  C00aA11202   3.250   8.038   2.852
    1CAL  C00aB11203   2.250   8.038   2.852
    1CAL  C00aC11204   3.499   8.536   3.158
    1CAL  C00aD11205   3.499   9.339   3.158
    1CAL  C00aE11206   2.750   8.038   2.852
    1CAL  C00aF11207   3.000   8.746   2.545
    1CAL  C00aG11208   3.250   9.243   2.849
    1CAL  C00aH11209   2.750   9.243   2.850
    1CAL  C00aI11210   2.500   8.938   3.159
    1CAL  C00aJ11211   2.500   8.344   2.545
    1CAL  C00aK11212   3.000   9.148   2.545
    1CAL  C00aL11213   3.000   8.344   2.545
    1CAL  C00aM11214   2.250   8.441   2.852
    1CAL  C00aN11215   2.500   8.134   3.159
    1CAL  C00aO11216   3.000   8.938   3.158
    1CAL  C00aP11217   3.750   8.038   2.852
    1CAL  C00aQ11218   3.500   8.134   3.159
    1CAL  C00aR11219   2.250   8.843   2.852
    1CAL  C00aS11220   3.999   8.536   3.159
    1CAL  C00aT11221   4.000   8.938   3.158
    1CAL  C00aU11222   4.000   8.344   2.545
    1CAL  C00aV11223   4.000   9.148   2.545
    1CAL  C00aW11224   2.250   9.243   2.850
    1CAL  C00aX11225   2.499   8.536   3.158
    1CAL  C00aY11226   3.500   8.746   2.545
    1CAL  C00aZ11227   4.000   8.746   2.545
    1CAL  C00aa11228   3.750   8.441   2.852
    1CAL  C00ab11229   3.250   8.441   2.852
    1CAL  C00ac11230   3.500   8.344   2.545
    1CAL  C00ad11231   3.500   8.938   3.158
    1CAL  C00ae11232   2.498   9.339   3.158
    1CAL  C00af11233   3.500   9.548   2.545
    1CAL  C00ag11234   2.750   8.441   2.852
    1CAL  C00ah11235   3.250   8.843   2.852
    1CAL  C00ai11236   2.500   9.148   2.545
    1CAL  C00aj11237   3.750   9.243   2.849
    1CAL  C00ak11238   3.000   9.548   2.545
    1CAL  C00al11239   3.999   9.339   3.159
    1CAL  C00am11240   3.000   8.134   3.158
    1CAL  C00an11241   2.999   9.339   3.158
    1CAL  C00ao11242   2.999   8.536   3.159
    1CAL  C00ap11243   3.750   8.843   2.852
    1CAL  C00aq11244   2.500   9.548   2.545
    1CAL  C00ar11245   3.500   9.148   2.545
    1CAL  C00as11246   2.500   8.746   2.545
    1CAL  C00at11247   2.750   8.843   2.852
    1CAL  C00au11248   4.000   8.134   3.159
    1CAL  C00av11249   2.751   8.634   3.469
    1CAL  C00aw11250   2.747   8.233   3.469
    1CAL  C00ax11251   2.747   9.036   3.468
    1CAL  C00ay11252   2.751   9.437   3.469
    1CAL  C00az11253   3.751   8.634   3.469
    1CAL  C00b011254   3.747   8.233   3.469
    1CAL  C00b111255   3.751   9.437   3.469
    1CAL  C00b211256   3.748   9.036   3.468
    1CAL  C00b311257   3.251   9.437   3.469
    1CAL  C00b411258   3.248   9.035   3.469
    1CAL  C00b511259   3.251   8.634   3.469
    1CAL  C00b611260   3.247   8.232   3.470
    1CAL  C00b711261   2.251   9.437   3.470
    1CAL  C00b811262   2.248   9.035   3.470
    1CAL  C00b911263   2.251   8.635   3.469
    1CAL  C00bA11264   2.247   8.232   3.471
    1CAL  O01kP11265   2.185   8.765   2.931
    1CAL  O01kQ11266   3.186   8.922   2.773
    1CAL  O01kR11267   3.185   8.765   2.931
    1CAL  O01kS11268   3.379   8.843   2.853
    1CAL  O01kT11269   2.564   9.469   2.624
    1CAL  O01kU11270   2.371   9.549   2.544
    1CAL  O01kV11271   2.564   8.825   2.466
    1CAL  O01kW11272   2.686   8.922   2.773
    1CAL  O01kX11273   2.685   8.765   2.931
    1CAL  O01kY11274   2.879   8.843   2.853
    1CAL  O01kZ11275   2.565   9.626   2.466
    1CAL  O01ka11276   2.564   8.668   2.624
    1CAL  O01kb11277   2.371   8.746   2.545
    1CAL  O01kc11278   3.128   9.338   3.159
    1CAL  O01kd11279   2.935   9.417   3.078
    1CAL  O01ke11280   2.936   8.615   3.078
    1CAL  O01kf11281   2.933   8.458   3.238
    1CAL  O01kg11282   3.128   8.535   3.160
    1CAL  O01kh11283   2.933   9.261   3.238
    1CAL  O01ki11284   2.621   8.441   2.852
    1CAL  O01kj11285   3.063   9.017   3.078
    1CAL  O01kk11286   3.122   9.243   2.849
    1CAL  O01kl11287   3.314   9.164   2.929
    1CAL  O01km11288   3.315   9.321   2.771
    1CAL  O01kn11289   2.436   8.265   2.624
    1CAL  O01ko11290   2.435   8.422   2.466
    1CAL  O01kp11291   2.621   9.243   2.849
    1CAL  O01kq11292   2.814   9.164   2.929
    1CAL  O01kr11293   2.815   9.321   2.771
    1CAL  O01ks11294   2.314   8.520   2.773
    1CAL  O01kt11295   2.814   8.362   2.931
    1CAL  O01ku11296   2.936   9.227   2.465
    1CAL  O01kv11297   3.129   9.148   2.545
    1CAL  O01kw11298   2.314   8.362   2.932
    1CAL  O01kx11299   2.121   8.441   2.852
    1CAL  O01ky11300   2.814   8.520   2.773
    1CAL  O01kz11301   2.936   8.423   2.465
    1CAL  O01l011302   2.936   8.265   2.624
    1CAL  O01l111303   3.129   8.344   2.545
    1CAL  O01l211304   2.870   8.937   3.159
    1CAL  O01l311305   3.066   8.860   3.237
    1CAL  O01l411306   2.935   9.070   2.624
    1CAL  O01l511307   3.686   8.922   2.773
    1CAL  O01l611308   3.685   8.765   2.931
    1CAL  O01l711309   3.879   8.843   2.853
    1CAL  O01l811310   3.934   9.260   3.238
    1CAL  O01l911311   3.936   8.615   3.079
    1CAL  O01lA11312   3.934   8.457   3.238
    1CAL  O01lB11313   2.128   9.338   3.160
    1CAL  O01lC11314   2.064   8.213   3.079
    1CAL  O01lD11315   3.436   9.227   2.465
    1CAL  O01lE11316   3.435   9.070   2.624
    1CAL  O01lF11317   3.629   9.148   2.545
    1CAL  O01lG11318   2.065   8.056   3.239
    1CAL  O01lH11319   3.434   9.261   3.238
    1CAL  O01lI11320   2.065   9.626   2.466
    1CAL  O01lJ11321   2.064   9.469   2.624
    1CAL  O01lK11322   2.871   9.549   2.544
    1CAL  O01lL11323   3.871   8.937   3.160
    1CAL  O01lM11324   3.936   8.265   2.624
    1CAL  O01lN11325   3.064   8.213   3.079
    1CAL  O01lO11326   2.436   9.227   2.465
    1CAL  O01lP11327   2.435   9.070   2.624
    1CAL  O01lQ11328   2.629   9.148   2.545
    1CAL  O01lR11329   3.065   8.055   3.238
    1CAL  O01lS11330   2.433   9.261   3.238
    1CAL  O01lT11331   2.871   8.134   3.159
    1CAL  O01lU11332   3.872   8.746   2.545
    1CAL  O01lV11333   3.065   9.626   2.466
    1CAL  O01lW11334   3.064   9.469   2.624
    1CAL  O01lX11335   3.622   9.243   2.849
    1CAL  O01lY11336   3.814   9.164   2.929
    1CAL  O01lZ11337   3.815   9.321   2.770
    1CAL  O01la11338   3.937   9.227   2.465
    1CAL  O01lb11339   3.935   9.070   2.624
    1CAL  O01lc11340   3.936   8.423   2.465
    1CAL  O01ld11341   2.629   8.344   2.544
    1CAL  O01le11342   2.379   8.843   2.853
    1CAL  O01lf11343   2.370   8.937   3.162
    1CAL  O01lg11344   3.065   8.668   2.624
    1CAL  O01lh11345   3.564   9.469   2.624
    1CAL  O01li11346   3.565   9.626   2.466
    1CAL  O01lj11347   3.622   8.441   2.852
    1CAL  O01lk11348   3.815   8.362   2.931
    1CAL  O01ll11349   3.372   9.549   2.544
    1CAL  O01lm11350   3.121   8.441   2.852
    1CAL  O01ln11351   3.314   8.520   2.773
    1CAL  O01lo11352   2.628   9.338   3.159
    1CAL  O01lp11353   3.436   8.422   2.466
    1CAL  O01lq11354   3.436   8.265   2.624
    1CAL  O01lr11355   3.629   8.344   2.544
    1CAL  O01ls11356   3.371   8.937   3.161
    1CAL  O01lt11357   3.566   8.860   3.237
    1CAL  O01lu11358   3.315   8.362   2.931
    1CAL  O01lv11359   3.563   9.018   3.078
    1CAL  O01lw11360   2.065   8.668   2.624
    1CAL  O01lx11361   3.565   8.668   2.624
    1CAL  O01ly11362   2.186   8.922   2.773
    1CAL  O01lz11363   2.063   9.018   3.078
    1CAL  O01m011364   2.065   8.860   3.238
    1CAL  O01m111365   2.128   8.535   3.160
    1CAL  O01m211366   2.129   8.344   2.545
    1CAL  O01m311367   2.128   9.148   2.545
    1CAL  O01m411368   3.564   8.825   2.466
    1CAL  O01m511369   2.315   9.321   2.771
    1CAL  O01m611370   3.872   9.549   2.544
    1CAL  O01m711371   3.871   8.134   3.160
    1CAL  O01m811372   2.121   9.243   2.849
    1CAL  O01m911373   3.935   9.417   3.078
    1CAL  O01mA11374   2.064   8.825   2.466
    1CAL  O01mB11375   3.372   8.746   2.545
    1CAL  O01mC11376   2.314   9.164   2.929
    1CAL  O01mD11377   2.434   9.418   3.078
    1CAL  O01mE11378   2.628   8.535   3.159
    1CAL  O01mF11379   3.371   8.133   3.161
    1CAL  O01mG11380   3.436   8.615   3.078
    1CAL  O01mH11381   3.434   8.458   3.238
    1CAL  O01mI11382   3.629   8.535   3.159
    1CAL  O01mJ11383   2.879   8.038   2.852
    1CAL  O01mK11384   2.686   9.566   2.931
    1CAL  O01mL11385   3.434   9.417   3.078
    1CAL  O01mM11386   3.628   9.338   3.158
    1CAL  O01mN11387   2.686   8.117   2.773
    1CAL  O01mO11388   2.563   8.213   3.079
    1CAL  O01mP11389   2.566   8.056   3.238
    1CAL  O01mQ11390   2.370   8.134   3.161
    1CAL  O01mR11391   2.562   9.018   3.078
    1CAL  O01mS11392   2.567   8.860   3.238
    1CAL  O01mT11393   2.871   8.746   2.545
    1CAL  O01mU11394   3.566   8.055   3.238
    1CAL  O01mV11395   3.564   8.213   3.079
    1CAL  O01mW11396   2.433   8.458   3.238
    1CAL  O01mX11397   2.435   8.616   3.079
    1CAL  O01mY11398   3.686   8.117   2.773
    1CAL  O01mZ11399   3.686   9.566   2.931
    1CAL  O01ma11400   3.879   8.038   2.852
    1CAL  O01mb11401   2.379   8.039   2.852
    1CAL  O01mc11402   2.186   9.566   2.931
    1CAL  O01md11403   2.185   8.117   2.773
    1CAL  O01me11404   3.186   8.117   2.773
    1CAL  O01mf11405   3.186   9.566   2.931
    1CAL  O01mg11406   3.379   8.039   2.852
    1CAL  O01mh11407   3.064   8.825   2.466
    1CAL  O01mi11408   3.815   8.520   2.773
    1CAL  O01mj11409   2.820   9.511   3.387
    1CAL  O01mk11410   2.811   9.359   3.553
    1CAL  O01ml11411   2.621   9.443   3.467
    1CAL  O01mm11412   2.678   9.110   3.386
    1CAL  O01mn11413   2.687   8.959   3.552
    1CAL  O01mo11414   2.877   9.041   3.465
    1CAL  O01mp11415   2.877   8.238   3.466
    1CAL  O01mq11416   2.687   8.155   3.553
    1CAL  O01mr11417   2.678   8.306   3.387
    1CAL  O01ms11418   2.621   8.640   3.466
    1CAL  O01mt11419   2.811   8.556   3.552
    1CAL  O01mu11420   2.820   8.708   3.387
    1CAL  O01mv11421   3.679   9.110   3.386
    1CAL  O01mw11422   3.877   9.041   3.466
    1CAL  O01mx11423   3.687   8.958   3.552
    1CAL  O01my11424   3.622   9.442   3.466
    1CAL  O01mz11425   3.811   9.359   3.552
    1CAL  O01n011426   3.820   9.511   3.387
    1CAL  O01n111427   3.678   8.306   3.387
    1CAL  O01n211428   3.877   8.238   3.466
    1CAL  O01n311429   3.687   8.155   3.553
    1CAL  O01n411430   3.621   8.639   3.466
    1CAL  O01n511431   3.811   8.556   3.552
    1CAL  O01n611432   3.820   8.708   3.387
    1CAL  O01n711433   3.311   9.359   3.553
    1CAL  O01n811434   3.121   9.442   3.467
    1CAL  O01n911435   3.320   9.510   3.387
    1CAL  O01nA11436   3.179   9.109   3.387
    1CAL  O01nB11437   3.188   8.957   3.553
    1CAL  O01nC11438   3.378   9.041   3.467
    1CAL  O01nD11439   3.311   8.556   3.553
    1CAL  O01nE11440   3.320   8.707   3.387
    1CAL  O01nF11441   3.121   8.640   3.466
    1CAL  O01nG11442   3.179   8.306   3.388
    1CAL  O01nH11443   3.187   8.154   3.553
    1CAL  O01nI11444   3.377   8.238   3.468
    1CAL  O01nJ11445   2.310   9.359   3.554
    1CAL  O01nK11446   2.121   9.443   3.467
    1CAL  O01nL11447   2.320   9.510   3.388
    1CAL  O01nM11448   2.179   9.109   3.388
    1CAL  O01nN11449   2.188   8.957   3.553
    1CAL  O01nO11450   2.378   9.041   3.469
    1CAL  O01nP11451   2.310   8.557   3.554
    1CAL  O01nQ11452   2.121   8.640   3.466
    1CAL  O01nR11453   2.320   8.708   3.387
    1CAL  O01nS11454   2.377   8.238   3.469
    1CAL  O01nT11455   2.187   8.154   3.554
    1CAL  O01nU11456   2.179   8.306   3.389
    1CAL  Ca0a911457   3.002   8.841   3.464
    1CAL  Ca0aA11458   3.750   8.545   2.545
    1CAL  Ca0aB11459   3.496   9.242   3.465
    1CAL  Ca0aC11460   2.002   8.841   3.465
    1CAL  Ca0aD11461   2.750   9.538   3.160
    1CAL  Ca0aE11462   3.750   8.947   2.545
    1CAL  Ca0aF11463   3.500   8.642   2.852
    1CAL  Ca0aG11464   3.500   9.444   2.852
    1CAL  Ca0aH11465   2.249   9.137   3.159
    1CAL  Ca0aI11466   3.000   9.444   2.852
    1CAL  Ca0aJ11467   2.502   8.038   3.465
    1CAL  Ca0aK11468   2.250   8.545   2.545
    1CAL  Ca0aL11469   2.250   8.736   3.160
    1CAL  Ca0aM11470   3.997   8.439   3.465
    1CAL  Ca0aN11471   3.997   9.242   3.465
    1CAL  Ca0aO11472   3.749   9.137   3.158
    1CAL  Ca0aP11473   3.250   8.143   2.545
    1CAL  Ca0aQ11474   4.000   9.444   2.852
    1CAL  Ca0aR11475   3.750   8.143   2.545
    1CAL  Ca0aS11476   2.495   8.440   3.465
    1CAL  Ca0aT11477   2.002   8.038   3.466
    1CAL  Ca0aU11478   3.751   8.736   3.160
    1CAL  Ca0aV11479   2.250   8.947   2.545
    1CAL  Ca0aW11480   4.000   8.642   2.852
    1CAL  Ca0aX11481   3.500   9.043   2.851
    1CAL  Ca0aY11482   2.250   9.539   3.160
    1CAL  Ca0aZ11483   3.750   9.348   2.546
    1CAL  Ca0aa11484   2.500   9.043   2.851
    1CAL  Ca0ab11485   2.496   9.243   3.465
    1CAL  Ca0ac11486   4.000   8.240   2.852
    1CAL  Ca0ad11487   2.500   9.444   2.852
    1CAL  Ca0ae11488   3.496   8.439   3.465
    1CAL  Ca0af11489   3.250   8.947   2.545
    1CAL  Ca0ag11490   2.750   8.947   2.545
    1CAL  Ca0ah11491   3.000   8.240   2.852
    1CAL  Ca0ai11492   3.000   9.043   2.851
    1CAL  Ca0aj11493   2.500   8.642   2.852
    1CAL  Ca0ak11494   3.000   8.642   2.852
    1CAL  Ca0al11495   2.749   9.137   3.159
    1CAL  Ca0am11496   2.250   8.143   2.545
    1CAL  Ca0an11497   2.750   8.545   2.545
    1CAL  Ca0ao11498   3.250   8.545   2.545
    1CAL  Ca0ap11499   3.249   9.137   3.159
    1CAL  Ca0aq11500   3.250   9.538   3.160
    1CAL  Ca0ar11501   3.749   8.334   3.160
    1CAL  Ca0as11502   3.002   8.038   3.465
    1CAL  Ca0at11503   2.748   8.334   3.160
    1CAL  Ca0au11504   2.503   8.841   3.464
    1CAL  Ca0av11505   2.500   8.240   2.852
    1CAL  Ca0aw11506   2.750   8.143   2.545
    1CAL  Ca0ax11507   3.250   9.348   2.546
    1CAL  Ca0ay11508   3.249   8.334   3.160
    1CAL  Ca0az11509   2.996   8.439   3.465
    1CAL  Ca0b011510   2.750   9.348   2.546
    1CAL  Ca0b111511   2.996   9.242   3.465
    1CAL  Ca0b211512   2.250   9.348   2.546
    1CAL  Ca0b311513   3.500   8.240   2.852
    1CAL  Ca0b411514   3.503   8.841   3.464
    1CAL  Ca0b511515   3.502   8.037   3.465
    1CAL  Ca0b611516   2.750   8.736   3.160
    1CAL  Ca0b711517   3.750   9.539   3.160
    1CAL  Ca0b811518   3.250   8.736   3.160
    1CAL  Ca0b911519   2.249   8.334   3.160
    1CAL  Ca0bA11520   4.000   9.043   2.851
    1CAL  C00bB11521   6.001   1.517   0.089
    1CAL  C00bC11522   5.251   0.007   0.396
    1CAL  C00bD11523   4.251   0.007   0.396
    1CAL  C00bE11524   5.500   0.505   0.702
    1CAL  C00bF11525   5.500   1.308   0.702
    1CAL  C00bG11526   4.751   0.007   0.396
    1CAL  C00bH11527   5.001   0.715   0.089
    1CAL  C00bI11528   5.251   1.212   0.393
    1CAL  C00bJ11529   4.751   1.212   0.394
    1CAL  C00bK11530   4.501   0.907   0.703
    1CAL  C00bL11531   4.501   0.313   0.089
    1CAL  C00bM11532   5.001   1.117   0.089
    1CAL  C00bN11533   5.001   0.313   0.089
    1CAL  C00bO11534   4.251   0.410   0.396
    1CAL  C00bP11535   4.501   0.103   0.703
    1CAL  C00bQ11536   5.001   0.907   0.702
    1CAL  C00bR11537   5.751   0.007   0.396
    1CAL  C00bS11538   5.501   0.103   0.703
    1CAL  C00bT11539   4.251   0.812   0.396
    1CAL  C00bU11540   6.000   0.505   0.703
    1CAL  C00bV11541   6.001   0.907   0.702
    1CAL  C00bW11542   6.001   0.313   0.089
    1CAL  C00bX11543   6.001   1.117   0.089
    1CAL  C00bY11544   4.251   1.212   0.394
    1CAL  C00bZ11545   4.500   0.505   0.702
    1CAL  C00ba11546   5.501   0.715   0.089
    1CAL  C00bb11547   6.001   0.715   0.089
    1CAL  C00bc11548   5.751   0.410   0.396
    1CAL  C00bd11549   5.251   0.410   0.396
    1CAL  C00be11550   5.501   0.313   0.089
    1CAL  C00bf11551   5.501   0.907   0.702
    1CAL  C00bg11552   4.499   1.308   0.702
    1CAL  C00bh11553   5.501   1.517   0.089
    1CAL  C00bi11554   4.751   0.410   0.396
    1CAL  C00bj11555   5.251   0.812   0.396
    1CAL  C00bk11556   4.501   1.117   0.089
    1CAL  C00bl11557   5.751   1.212   0.393
    1CAL  C00bm11558   5.001   1.517   0.089
    1CAL  C00bn11559   6.000   1.308   0.703
    1CAL  C00bo11560   5.001   0.103   0.702
    1CAL  C00bp11561   5.000   1.308   0.702
    1CAL  C00bq11562   5.000   0.505   0.703
    1CAL  C00br11563   5.751   0.812   0.396
    1CAL  C00bs11564   4.501   1.517   0.089
    1CAL  C00bt11565   5.501   1.117   0.089
    1CAL  C00bu11566   4.501   0.715   0.089
    1CAL  C00bv11567   4.751   0.812   0.396
    1CAL  C00bw11568   6.001   0.103   0.703
    1CAL  C00bx11569   4.752   0.603   1.013
    1CAL  C00by11570   4.748   0.202   1.013
    1CAL  C00bz11571   4.748   1.005   1.012
    1CAL  C00c011572   4.752   1.406   1.013
    1CAL  C00c111573   5.752   0.603   1.013
    1CAL  C00c211574   5.748   0.202   1.013
    1CAL  C00c311575   5.752   1.406   1.013
    1CAL  C00c411576   5.749   1.005   1.012
    1CAL  C00c511577   5.252   1.406   1.013
    1CAL  C00c611578   5.249   1.004   1.013
    1CAL  C00c711579   5.252   0.603   1.013
    1CAL  C00c811580   5.248   0.201   1.014
    1CAL  C00c911581   4.252   1.406   1.014
    1CAL  C00cA11582   4.249   1.004   1.014
    1CAL  C00cB11583   4.252   0.604   1.013
    1CAL  C00cC11584   4.248   0.201   1.015
    1CAL  O01nV11585   4.186   0.734   0.475
    1CAL  O01nW11586   5.187   0.891   0.317
    1CAL  O01nX11587   5.186   0.734   0.475
    1CAL  O01nY11588   5.380   0.812   0.397
    1CAL  O01nZ11589   4.565   1.438   0.168
    1CAL  O01na11590   4.372   1.518   0.088
    1CAL  O01nb11591   4.565   0.794   0.010
    1CAL  O01nc11592   4.687   0.891   0.317
    1CAL  O01nd11593   4.686   0.734   0.475
    1CAL  O01ne11594   4.880   0.812   0.397
    1CAL  O01nf11595   4.566   1.595   0.010
    1CAL  O01ng11596   4.565   0.637   0.168
    1CAL  O01nh11597   4.372   0.715   0.089
    1CAL  O01ni11598   5.129   1.307   0.703
    1CAL  O01nj11599   4.936   1.386   0.622
    1CAL  O01nk11600   4.937   0.584   0.622
    1CAL  O01nl11601   4.934   0.427   0.782
    1CAL  O01nm11602   5.129   0.504   0.704
    1CAL  O01nn11603   4.934   1.230   0.782
    1CAL  O01no11604   4.622   0.410   0.396
    1CAL  O01np11605   5.064   0.986   0.622
    1CAL  O01nq11606   5.123   1.212   0.393
    1CAL  O01nr11607   5.315   1.133   0.473
    1CAL  O01ns11608   5.316   1.290   0.315
    1CAL  O01nt11609   4.437   0.234   0.168
    1CAL  O01nu11610   4.436   0.391   0.010
    1CAL  O01nv11611   4.622   1.212   0.393
    1CAL  O01nw11612   4.815   1.133   0.473
    1CAL  O01nx11613   4.816   1.290   0.315
    1CAL  O01ny11614   4.315   0.489   0.317
    1CAL  O01nz11615   4.815   0.331   0.475
    1CAL  O01o011616   4.937   1.196   0.009
    1CAL  O01o111617   5.130   1.117   0.089
    1CAL  O01o211618   4.315   0.331   0.476
    1CAL  O01o311619   4.122   0.410   0.396
    1CAL  O01o411620   4.815   0.489   0.317
    1CAL  O01o511621   4.937   0.392   0.009
    1CAL  O01o611622   4.937   0.234   0.168
    1CAL  O01o711623   5.130   0.313   0.089
    1CAL  O01o811624   4.871   0.906   0.703
    1CAL  O01o911625   5.067   0.829   0.781
    1CAL  O01oA11626   4.936   1.039   0.168
    1CAL  O01oB11627   5.687   0.891   0.317
    1CAL  O01oC11628   5.686   0.734   0.475
    1CAL  O01oD11629   5.880   0.812   0.397
    1CAL  O01oE11630   5.935   1.229   0.782
    1CAL  O01oF11631   5.937   0.584   0.623
    1CAL  O01oG11632   5.935   0.426   0.782
    1CAL  O01oH11633   4.129   1.307   0.704
    1CAL  O01oI11634   4.065   0.182   0.623
    1CAL  O01oJ11635   5.437   1.196   0.009
    1CAL  O01oK11636   5.436   1.039   0.168
    1CAL  O01oL11637   5.630   1.117   0.089
    1CAL  O01oM11638   4.066   0.025   0.783
    1CAL  O01oN11639   5.435   1.230   0.782
    1CAL  O01oO11640   4.066   1.595   0.010
    1CAL  O01oP11641   4.065   1.438   0.168
    1CAL  O01oQ11642   4.872   1.518   0.088
    1CAL  O01oR11643   5.872   0.906   0.704
    1CAL  O01oS11644   5.937   0.234   0.168
    1CAL  O01oT11645   5.065   0.182   0.623
    1CAL  O01oU11646   4.437   1.196   0.009
    1CAL  O01oV11647   4.436   1.039   0.168
    1CAL  O01oW11648   4.630   1.117   0.089
    1CAL  O01oX11649   5.066   0.024   0.782
    1CAL  O01oY11650   4.434   1.230   0.782
    1CAL  O01oZ11651   4.872   0.103   0.703
    1CAL  O01oa11652   5.873   0.715   0.089
    1CAL  O01ob11653   5.066   1.595   0.010
    1CAL  O01oc11654   5.065   1.438   0.168
    1CAL  O01od11655   5.623   1.212   0.393
    1CAL  O01oe11656   5.815   1.133   0.473
    1CAL  O01of11657   5.816   1.290   0.314
    1CAL  O01og11658   5.938   1.196   0.009
    1CAL  O01oh11659   5.936   1.039   0.168
    1CAL  O01oi11660   5.937   0.392   0.009
    1CAL  O01oj11661   4.630   0.313   0.088
    1CAL  O01ok11662   4.380   0.812   0.397
    1CAL  O01ol11663   4.371   0.906   0.706
    1CAL  O01om11664   5.066   0.637   0.168
    1CAL  O01on11665   5.565   1.438   0.168
    1CAL  O01oo11666   5.566   1.595   0.010
    1CAL  O01op11667   5.623   0.410   0.396
    1CAL  O01oq11668   5.816   0.331   0.475
    1CAL  O01or11669   5.373   1.518   0.088
    1CAL  O01os11670   5.122   0.410   0.396
    1CAL  O01ot11671   5.315   0.489   0.317
    1CAL  O01ou11672   4.629   1.307   0.703
    1CAL  O01ov11673   5.437   0.391   0.010
    1CAL  O01ow11674   5.437   0.234   0.168
    1CAL  O01ox11675   5.630   0.313   0.088
    1CAL  O01oy11676   5.372   0.906   0.705
    1CAL  O01oz11677   5.567   0.829   0.781
    1CAL  O01p011678   5.316   0.331   0.475
    1CAL  O01p111679   5.564   0.987   0.622
    1CAL  O01p211680   4.066   0.637   0.168
    1CAL  O01p311681   5.566   0.637   0.168
    1CAL  O01p411682   4.187   0.891   0.317
    1CAL  O01p511683   4.064   0.987   0.622
    1CAL  O01p611684   4.066   0.829   0.782
    1CAL  O01p711685   4.129   0.504   0.704
    1CAL  O01p811686   4.130   0.313   0.089
    1CAL  O01p911687   4.129   1.117   0.089
    1CAL  O01pA11688   5.565   0.794   0.010
    1CAL  O01pB11689   4.316   1.290   0.315
    1CAL  O01pC11690   5.873   1.518   0.088
    1CAL  O01pD11691   5.872   0.103   0.704
    1CAL  O01pE11692   4.122   1.212   0.393
    1CAL  O01pF11693   5.936   1.386   0.622
    1CAL  O01pG11694   4.065   0.794   0.010
    1CAL  O01pH11695   5.373   0.715   0.089
    1CAL  O01pI11696   4.315   1.133   0.473
    1CAL  O01pJ11697   4.435   1.387   0.622
    1CAL  O01pK11698   4.629   0.504   0.703
    1CAL  O01pL11699   5.372   0.102   0.705
    1CAL  O01pM11700   5.437   0.584   0.622
    1CAL  O01pN11701   5.435   0.427   0.782
    1CAL  O01pO11702   5.630   0.504   0.703
    1CAL  O01pP11703   4.880   0.007   0.396
    1CAL  O01pQ11704   4.687   1.535   0.475
    1CAL  O01pR11705   5.435   1.386   0.622
    1CAL  O01pS11706   5.629   1.307   0.702
    1CAL  O01pT11707   4.687   0.086   0.317
    1CAL  O01pU11708   4.564   0.182   0.623
    1CAL  O01pV11709   4.567   0.025   0.782
    1CAL  O01pW11710   4.371   0.103   0.705
    1CAL  O01pX11711   4.563   0.987   0.622
    1CAL  O01pY11712   4.568   0.829   0.782
    1CAL  O01pZ11713   4.872   0.715   0.089
    1CAL  O01pa11714   5.567   0.024   0.782
    1CAL  O01pb11715   5.565   0.182   0.623
    1CAL  O01pc11716   4.434   0.427   0.782
    1CAL  O01pd11717   4.436   0.585   0.623
    1CAL  O01pe11718   5.687   0.086   0.317
    1CAL  O01pf11719   5.687   1.535   0.475
    1CAL  O01pg11720   5.880   0.007   0.396
    1CAL  O01ph11721   4.380   0.008   0.396
    1CAL  O01pi11722   4.187   1.535   0.475
    1CAL  O01pj11723   4.186   0.086   0.317
    1CAL  O01pk11724   5.187   0.086   0.317
    1CAL  O01pl11725   5.187   1.535   0.475
    1CAL  O01pm11726   5.380   0.008   0.396
    1CAL  O01pn11727   5.065   0.794   0.010
    1CAL  O01po11728   5.816   0.489   0.317
    1CAL  O01pp11729   4.821   1.480   0.931
    1CAL  O01pq11730   4.812   1.328   1.097
    1CAL  O01pr11731   4.622   1.412   1.011
    1CAL  O01ps11732   4.679   1.079   0.930
    1CAL  O01pt11733   4.688   0.928   1.096
    1CAL  O01pu11734   4.878   1.010   1.009
    1CAL  O01pv11735   4.878   0.207   1.010
    1CAL  O01pw11736   4.688   0.124   1.097
    1CAL  O01px11737   4.679   0.275   0.931
    1CAL  O01py11738   4.622   0.609   1.010
    1CAL  O01pz11739   4.812   0.525   1.096
    1CAL  O01q011740   4.821   0.677   0.931
    1CAL  O01q111741   5.680   1.079   0.930
    1CAL  O01q211742   5.878   1.010   1.010
    1CAL  O01q311743   5.688   0.927   1.096
    1CAL  O01q411744   5.623   1.411   1.010
    1CAL  O01q511745   5.812   1.328   1.096
    1CAL  O01q611746   5.821   1.480   0.931
    1CAL  O01q711747   5.679   0.275   0.931
    1CAL  O01q811748   5.878   0.207   1.010
    1CAL  O01q911749   5.688   0.124   1.097
    1CAL  O01qA11750   5.622   0.608   1.010
    1CAL  O01qB11751   5.812   0.525   1.096
    1CAL  O01qC11752   5.821   0.677   0.931
    1CAL  O01qD11753   5.312   1.328   1.097
    1CAL  O01qE11754   5.122   1.411   1.011
    1CAL  O01qF11755   5.321   1.479   0.931
    1CAL  O01qG11756   5.180   1.078   0.931
    1CAL  O01qH11757   5.189   0.926   1.097
    1CAL  O01qI11758   5.379   1.010   1.011
    1CAL  O01qJ11759   5.312   0.525   1.097
    1CAL  O01qK11760   5.321   0.676   0.931
    1CAL  O01qL11761   5.122   0.609   1.010
    1CAL  O01qM11762   5.180   0.275   0.932
    1CAL  O01qN11763   5.188   0.123   1.097
    1CAL  O01qO11764   5.378   0.207   1.012
    1CAL  O01qP11765   4.311   1.328   1.098
    1CAL  O01qQ11766   4.122   1.412   1.011
    1CAL  O01qR11767   4.321   1.479   0.932
    1CAL  O01qS11768   4.180   1.078   0.932
    1CAL  O01qT11769   4.189   0.926   1.097
    1CAL  O01qU11770   4.379   1.010   1.013
    1CAL  O01qV11771   4.311   0.526   1.098
    1CAL  O01qW11772   4.122   0.609   1.010
    1CAL  O01qX11773   4.321   0.677   0.931
    1CAL  O01qY11774   4.378   0.207   1.013
    1CAL  O01qZ11775   4.188   0.123   1.098
    1CAL  O01qa11776   4.180   0.275   0.933
    1CAL  Ca0bB11777   5.003   0.810   1.008
    1CAL  Ca0bC11778   5.751   0.514   0.089
    1CAL  Ca0bD11779   5.497   1.211   1.009
    1CAL  Ca0bE11780   4.003   0.810   1.009
    1CAL  Ca0bF11781   4.751   1.507   0.704
    1CAL  Ca0bG11782   5.751   0.916   0.089
    1CAL  Ca0bH11783   5.501   0.611   0.396
    1CAL  Ca0bI11784   5.501   1.413   0.396
    1CAL  Ca0bJ11785   4.250   1.106   0.703
    1CAL  Ca0bK11786   5.001   1.413   0.396
    1CAL  Ca0bL11787   4.503   0.007   1.009
    1CAL  Ca0bM11788   4.251   0.514   0.089
    1CAL  Ca0bN11789   4.251   0.705   0.704
    1CAL  Ca0bO11790   5.998   0.408   1.009
    1CAL  Ca0bP11791   5.998   1.211   1.009
    1CAL  Ca0bQ11792   5.750   1.106   0.702
    1CAL  Ca0bR11793   5.251   0.112   0.089
    1CAL  Ca0bS11794   6.001   1.413   0.396
    1CAL  Ca0bT11795   5.751   0.112   0.089
    1CAL  Ca0bU11796   4.496   0.409   1.009
    1CAL  Ca0bV11797   4.003   0.007   1.010
    1CAL  Ca0bW11798   5.752   0.705   0.704
    1CAL  Ca0bX11799   4.251   0.916   0.089
    1CAL  Ca0bY11800   6.001   0.611   0.396
    1CAL  Ca0bZ11801   5.501   1.012   0.395
    1CAL  Ca0ba11802   4.251   1.508   0.704
    1CAL  Ca0bb11803   5.751   1.317   0.090
    1CAL  Ca0bc11804   4.501   1.012   0.395
    1CAL  Ca0bd11805   4.497   1.212   1.009
    1CAL  Ca0be11806   6.001   0.209   0.396
    1CAL  Ca0bf11807   4.501   1.413   0.396
    1CAL  Ca0bg11808   5.497   0.408   1.009
    1CAL  Ca0bh11809   5.251   0.916   0.089
    1CAL  Ca0bi11810   4.751   0.916   0.089
    1CAL  Ca0bj11811   5.001   0.209   0.396
    1CAL  Ca0bk11812   5.001   1.012   0.395
    1CAL  Ca0bl11813   4.501   0.611   0.396
    1CAL  Ca0bm11814   5.001   0.611   0.396
    1CAL  Ca0bn11815   4.750   1.106   0.703
    1CAL  Ca0bo11816   4.251   0.112   0.089
    1CAL  Ca0bp11817   4.751   0.514   0.089
    1CAL  Ca0bq11818   5.251   0.514   0.089
    1CAL  Ca0br11819   5.250   1.106   0.703
    1CAL  Ca0bs11820   5.251   1.507   0.704
    1CAL  Ca0bt11821   5.750   0.303   0.704
    1CAL  Ca0bu11822   5.003   0.007   1.009
    1CAL  Ca0bv11823   4.749   0.303   0.704
    1CAL  Ca0bw11824   4.504   0.810   1.008
    1CAL  Ca0bx11825   4.501   0.209   0.396
    1CAL  Ca0by11826   4.751   0.112   0.089
    1CAL  Ca0bz11827   5.251   1.317   0.090
    1CAL  Ca0c011828   5.250   0.303   0.704
    1CAL  Ca0c111829   4.997   0.408   1.009
    1CAL  Ca0c211830   4.751   1.317   0.090
    1CAL  Ca0c311831   4.997   1.211   1.009
    1CAL  Ca0c411832   4.251   1.317   0.090
    1CAL  Ca0c511833   5.501   0.209   0.396
    1CAL  Ca0c611834   5.504   0.810   1.008
    1CAL  Ca0c711835   5.503   0.006   1.009
    1CAL  Ca0c811836   4.751   0.705   0.704
    1CAL  Ca0c911837   5.751   1.508   0.704
    1CAL  Ca0cA11838   5.251   0.705   0.704
    1CAL  Ca0cB11839   4.250   0.303   0.704
    1CAL  Ca0cC11840   6.001   1.012   0.395
    1CAL  C00cD11841   6.001   1.517   1.317
    1CAL  C00cE11842   5.251   0.007   1.624
    1CAL  C00cF11843   4.251   0.007   1.624
    1CAL  C00cG11844   5.500   0.505   1.930
    1CAL  C00cH11845   5.500   1.308   1.930
    1CAL  C00cI11846   4.751   0.007   1.624
    1CAL  C00cJ11847   5.001   0.715   1.317
    1CAL  C00cK11848   5.251   1.212   1.621
    1CAL  C00cL11849   4.751   1.212   1.622
    1CAL  C00cM11850   4.501   0.907   1.931
    1CAL  C00cN11851   4.501   0.313   1.317
    1CAL  C00cO11852   5.001   1.117   1.317
    1CAL  C00cP11853   5.001   0.313   1.317
    1CAL  C00cQ11854   4.251   0.410   1.624
    1CAL  C00cR11855   4.501   0.103   1.931
    1CAL  C00cS11856   5.001   0.907   1.930
    1CAL  C00cT11857   5.751   0.007   1.624
    1CAL  C00cU11858   5.501   0.103   1.931
    1CAL  C00cV11859   4.251   0.812   1.624
    1CAL  C00cW11860   6.000   0.505   1.931
    1CAL  C00cX11861   6.001   0.907   1.930
    1CAL  C00cY11862   6.001   0.313   1.317
    1CAL  C00cZ11863   6.001   1.117   1.317
    1CAL  C00ca11864   4.251   1.212   1.622
    1CAL  C00cb11865   4.500   0.505   1.930
    1CAL  C00cc11866   5.501   0.715   1.317
    1CAL  C00cd11867   6.001   0.715   1.317
    1CAL  C00ce11868   5.751   0.410   1.624
    1CAL  C00cf11869   5.251   0.410   1.624
    1CAL  C00cg11870   5.501   0.313   1.317
    1CAL  C00ch11871   5.501   0.907   1.930
    1CAL  C00ci11872   4.499   1.308   1.930
    1CAL  C00cj11873   5.501   1.517   1.317
    1CAL  C00ck11874   4.751   0.410   1.624
    1CAL  C00cl11875   5.251   0.812   1.624
    1CAL  C00cm11876   4.501   1.117   1.317
    1CAL  C00cn11877   5.751   1.212   1.621
    1CAL  C00co11878   5.001   1.517   1.317
    1CAL  C00cp11879   6.000   1.308   1.931
    1CAL  C00cq11880   5.001   0.103   1.930
    1CAL  C00cr11881   5.000   1.308   1.930
    1CAL  C00cs11882   5.000   0.505   1.931
    1CAL  C00ct11883   5.751   0.812   1.624
    1CAL  C00cu11884   4.501   1.517   1.317
    1CAL  C00cv11885   5.501   1.117   1.317
    1CAL  C00cw11886   4.501   0.715   1.317
    1CAL  C00cx11887   4.751   0.812   1.624
    1CAL  C00cy11888   6.001   0.103   1.931
    1CAL  C00cz11889   4.752   0.603   2.241
    1CAL  C00d011890   4.748   0.202   2.241
    1CAL  C00d111891   4.748   1.005   2.240
    1CAL  C00d211892   4.752   1.406   2.241
    1CAL  C00d311893   5.752   0.603   2.241
    1CAL  C00d411894   5.748   0.202   2.241
    1CAL  C00d511895   5.752   1.406   2.241
    1CAL  C00d611896   5.749   1.005   2.240
    1CAL  C00d711897   5.252   1.406   2.241
    1CAL  C00d811898   5.249   1.004   2.241
    1CAL  C00d911899   5.252   0.603   2.241
    1CAL  C00dA11900   5.248   0.201   2.242
    1CAL  C00dB11901   4.252   1.406   2.242
    1CAL  C00dC11902   4.249   1.004   2.242
    1CAL  C00dD11903   4.252   0.604   2.241
    1CAL  C00dE11904   4.248   0.201   2.243
    1CAL  O01qb11905   4.186   0.734   1.703
    1CAL  O01qc11906   5.187   0.891   1.545
    1CAL  O01qd11907   5.186   0.734   1.703
    1CAL  O01qe11908   5.380   0.812   1.625
    1CAL  O01qf11909   4.565   1.438   1.396
    1CAL  O01qg11910   4.372   1.518   1.316
    1CAL  O01qh11911   4.565   0.794   1.238
    1CAL  O01qi11912   4.687   0.891   1.545
    1CAL  O01qj11913   4.686   0.734   1.703
    1CAL  O01qk11914   4.880   0.812   1.625
    1CAL  O01ql11915   4.566   1.595   1.238
    1CAL  O01qm11916   4.565   0.637   1.396
    1CAL  O01qn11917   4.372   0.715   1.317
    1CAL  O01qo11918   5.129   1.307   1.931
    1CAL  O01qp11919   4.936   1.386   1.850
    1CAL  O01qq11920   4.937   0.584   1.850
    1CAL  O01qr11921   4.934   0.427   2.010
    1CAL  O01qs11922   5.129   0.504   1.932
    1CAL  O01qt11923   4.934   1.230   2.010
    1CAL  O01qu11924   4.622   0.410   1.624
    1CAL  O01qv11925   5.064   0.986   1.850
    1CAL  O01qw11926   5.123   1.212   1.621
    1CAL  O01qx11927   5.315   1.133   1.701
    1CAL  O01qy11928   5.316   1.290   1.543
    1CAL  O01qz11929   4.437   0.234   1.396
    1CAL  O01r011930   4.436   0.391   1.238
    1CAL  O01r111931   4.622   1.212   1.621
    1CAL  O01r211932   4.815   1.133   1.701
    1CAL  O01r311933   4.816   1.290   1.543
    1CAL  O01r411934   4.315   0.489   1.545
    1CAL  O01r511935   4.815   0.331   1.703
    1CAL  O01r611936   4.937   1.196   1.237
    1CAL  O01r711937   5.130   1.117   1.317
    1CAL  O01r811938   4.315   0.331   1.704
    1CAL  O01r911939   4.122   0.410   1.624
    1CAL  O01rA11940   4.815   0.489   1.545
    1CAL  O01rB11941   4.937   0.392   1.237
    1CAL  O01rC11942   4.937   0.234   1.396
    1CAL  O01rD11943   5.130   0.313   1.317
    1CAL  O01rE11944   4.871   0.906   1.931
    1CAL  O01rF11945   5.067   0.829   2.009
    1CAL  O01rG11946   4.936   1.039   1.396
    1CAL  O01rH11947   5.687   0.891   1.545
    1CAL  O01rI11948   5.686   0.734   1.703
    1CAL  O01rJ11949   5.880   0.812   1.625
    1CAL  O01rK11950   5.935   1.229   2.010
    1CAL  O01rL11951   5.937   0.584   1.851
    1CAL  O01rM11952   5.935   0.426   2.010
    1CAL  O01rN11953   4.129   1.307   1.932
    1CAL  O01rO11954   4.065   0.182   1.851
    1CAL  O01rP11955   5.437   1.196   1.237
    1CAL  O01rQ11956   5.436   1.039   1.396
    1CAL  O01rR11957   5.630   1.117   1.317
    1CAL  O01rS11958   4.066   0.025   2.011
    1CAL  O01rT11959   5.435   1.230   2.010
    1CAL  O01rU11960   4.066   1.595   1.238
    1CAL  O01rV11961   4.065   1.438   1.396
    1CAL  O01rW11962   4.872   1.518   1.316
    1CAL  O01rX11963   5.872   0.906   1.932
    1CAL  O01rY11964   5.937   0.234   1.396
    1CAL  O01rZ11965   5.065   0.182   1.851
    1CAL  O01ra11966   4.437   1.196   1.237
    1CAL  O01rb11967   4.436   1.039   1.396
    1CAL  O01rc11968   4.630   1.117   1.317
    1CAL  O01rd11969   5.066   0.024   2.010
    1CAL  O01re11970   4.434   1.230   2.010
    1CAL  O01rf11971   4.872   0.103   1.931
    1CAL  O01rg11972   5.873   0.715   1.317
    1CAL  O01rh11973   5.066   1.595   1.238
    1CAL  O01ri11974   5.065   1.438   1.396
    1CAL  O01rj11975   5.623   1.212   1.621
    1CAL  O01rk11976   5.815   1.133   1.701
    1CAL  O01rl11977   5.816   1.290   1.542
    1CAL  O01rm11978   5.938   1.196   1.237
    1CAL  O01rn11979   5.936   1.039   1.396
    1CAL  O01ro11980   5.937   0.392   1.237
    1CAL  O01rp11981   4.630   0.313   1.316
    1CAL  O01rq11982   4.380   0.812   1.625
    1CAL  O01rr11983   4.371   0.906   1.934
    1CAL  O01rs11984   5.066   0.637   1.396
    1CAL  O01rt11985   5.565   1.438   1.396
    1CAL  O01ru11986   5.566   1.595   1.238
    1CAL  O01rv11987   5.623   0.410   1.624
    1CAL  O01rw11988   5.816   0.331   1.703
    1CAL  O01rx11989   5.373   1.518   1.316
    1CAL  O01ry11990   5.122   0.410   1.624
    1CAL  O01rz11991   5.315   0.489   1.545
    1CAL  O01s011992   4.629   1.307   1.931
    1CAL  O01s111993   5.437   0.391   1.238
    1CAL  O01s211994   5.437   0.234   1.396
    1CAL  O01s311995   5.630   0.313   1.316
    1CAL  O01s411996   5.372   0.906   1.933
    1CAL  O01s511997   5.567   0.829   2.009
    1CAL  O01s611998   5.316   0.331   1.703
    1CAL  O01s711999   5.564   0.987   1.850
    1CAL  O01s812000   4.066   0.637   1.396
    1CAL  O01s912001   5.566   0.637   1.396
    1CAL  O01sA12002   4.187   0.891   1.545
    1CAL  O01sB12003   4.064   0.987   1.850
    1CAL  O01sC12004   4.066   0.829   2.010
    1CAL  O01sD12005   4.129   0.504   1.932
    1CAL  O01sE12006   4.130   0.313   1.317
    1CAL  O01sF12007   4.129   1.117   1.317
    1CAL  O01sG12008   5.565   0.794   1.238
    1CAL  O01sH12009   4.316   1.290   1.543
    1CAL  O01sI12010   5.873   1.518   1.316
    1CAL  O01sJ12011   5.872   0.103   1.932
    1CAL  O01sK12012   4.122   1.212   1.621
    1CAL  O01sL12013   5.936   1.386   1.850
    1CAL  O01sM12014   4.065   0.794   1.238
    1CAL  O01sN12015   5.373   0.715   1.317
    1CAL  O01sO12016   4.315   1.133   1.701
    1CAL  O01sP12017   4.435   1.387   1.850
    1CAL  O01sQ12018   4.629   0.504   1.931
    1CAL  O01sR12019   5.372   0.102   1.933
    1CAL  O01sS12020   5.437   0.584   1.850
    1CAL  O01sT12021   5.435   0.427   2.010
    1CAL  O01sU12022   5.630   0.504   1.931
    1CAL  O01sV12023   4.880   0.007   1.624
    1CAL  O01sW12024   4.687   1.535   1.703
    1CAL  O01sX12025   5.435   1.386   1.850
    1CAL  O01sY12026   5.629   1.307   1.930
    1CAL  O01sZ12027   4.687   0.086   1.545
    1CAL  O01sa12028   4.564   0.182   1.851
    1CAL  O01sb12029   4.567   0.025   2.010
    1CAL  O01sc12030   4.371   0.103   1.933
    1CAL  O01sd12031   4.563   0.987   1.850
    1CAL  O01se12032   4.568   0.829   2.010
    1CAL  O01sf12033   4.872   0.715   1.317
    1CAL  O01sg12034   5.567   0.024   2.010
    1CAL  O01sh12035   5.565   0.182   1.851
    1CAL  O01si12036   4.434   0.427   2.010
    1CAL  O01sj12037   4.436   0.585   1.851
    1CAL  O01sk12038   5.687   0.086   1.545
    1CAL  O01sl12039   5.687   1.535   1.703
    1CAL  O01sm12040   5.880   0.007   1.624
    1CAL  O01sn12041   4.380   0.008   1.624
    1CAL  O01so12042   4.187   1.535   1.703
    1CAL  O01sp12043   4.186   0.086   1.545
    1CAL  O01sq12044   5.187   0.086   1.545
    1CAL  O01sr12045   5.187   1.535   1.703
    1CAL  O01ss12046   5.380   0.008   1.624
    1CAL  O01st12047   5.065   0.794   1.238
    1CAL  O01su12048   5.816   0.489   1.545
    1CAL  O01sv12049   4.821   1.480   2.159
    1CAL  O01sw12050   4.812   1.328   2.325
    1CAL  O01sx12051   4.622   1.412   2.239
    1CAL  O01sy12052   4.679   1.079   2.158
    1CAL  O01sz12053   4.688   0.928   2.324
    1CAL  O01t012054   4.878   1.010   2.237
    1CAL  O01t112055   4.878   0.207   2.238
    1CAL  O01t212056   4.688   0.124   2.325
    1CAL  O01t312057   4.679   0.275   2.159
    1CAL  O01t412058   4.622   0.609   2.238
    1CAL  O01t512059   4.812   0.525   2.324
    1CAL  O01t612060   4.821   0.677   2.159
    1CAL  O01t712061   5.680   1.079   2.158
    1CAL  O01t812062   5.878   1.010   2.238
    1CAL  O01t912063   5.688   0.927   2.324
    1CAL  O01tA12064   5.623   1.411   2.238
    1CAL  O01tB12065   5.812   1.328   2.324
    1CAL  O01tC12066   5.821   1.480   2.159
    1CAL  O01tD12067   5.679   0.275   2.159
    1CAL  O01tE12068   5.878   0.207   2.238
    1CAL  O01tF12069   5.688   0.124   2.325
    1CAL  O01tG12070   5.622   0.608   2.238
    1CAL  O01tH12071   5.812   0.525   2.324
    1CAL  O01tI12072   5.821   0.677   2.159
    1CAL  O01tJ12073   5.312   1.328   2.325
    1CAL  O01tK12074   5.122   1.411   2.239
    1CAL  O01tL12075   5.321   1.479   2.159
    1CAL  O01tM12076   5.180   1.078   2.159
    1CAL  O01tN12077   5.189   0.926   2.325
    1CAL  O01tO12078   5.379   1.010   2.239
    1CAL  O01tP12079   5.312   0.525   2.325
    1CAL  O01tQ12080   5.321   0.676   2.159
    1CAL  O01tR12081   5.122   0.609   2.238
    1CAL  O01tS12082   5.180   0.275   2.160
    1CAL  O01tT12083   5.188   0.123   2.325
    1CAL  O01tU12084   5.378   0.207   2.240
    1CAL  O01tV12085   4.311   1.328   2.326
    1CAL  O01tW12086   4.122   1.412   2.239
    1CAL  O01tX12087   4.321   1.479   2.160
    1CAL  O01tY12088   4.180   1.078   2.160
    1CAL  O01tZ12089   4.189   0.926   2.325
    1CAL  O01ta12090   4.379   1.010   2.241
    1CAL  O01tb12091   4.311   0.526   2.326
    1CAL  O01tc12092   4.122   0.609   2.238
    1CAL  O01td12093   4.321   0.677   2.159
    1CAL  O01te12094   4.378   0.207   2.241
    1CAL  O01tf12095   4.188   0.123   2.326
    1CAL  O01tg12096   4.180   0.275   2.161
    1CAL  Ca0cD12097   5.003   0.810   2.236
    1CAL  Ca0cE12098   5.751   0.514   1.317
    1CAL  Ca0cF12099   5.497   1.211   2.237
    1CAL  Ca0cG12100   4.003   0.810   2.237
    1CAL  Ca0cH12101   4.751   1.507   1.932
    1CAL  Ca0cI12102   5.751   0.916   1.317
    1CAL  Ca0cJ12103   5.501   0.611   1.624
    1CAL  Ca0cK12104   5.501   1.413   1.624
    1CAL  Ca0cL12105   4.250   1.106   1.931
    1CAL  Ca0cM12106   5.001   1.413   1.624
    1CAL  Ca0cN12107   4.503   0.007   2.237
    1CAL  Ca0cO12108   4.251   0.514   1.317
    1CAL  Ca0cP12109   4.251   0.705   1.932
    1CAL  Ca0cQ12110   5.998   0.408   2.237
    1CAL  Ca0cR12111   5.998   1.211   2.237
    1CAL  Ca0cS12112   5.750   1.106   1.930
    1CAL  Ca0cT12113   5.251   0.112   1.317
    1CAL  Ca0cU12114   6.001   1.413   1.624
    1CAL  Ca0cV12115   5.751   0.112   1.317
    1CAL  Ca0cW12116   4.496   0.409   2.237
    1CAL  Ca0cX12117   4.003   0.007   2.238
    1CAL  Ca0cY12118   5.752   0.705   1.932
    1CAL  Ca0cZ12119   4.251   0.916   1.317
    1CAL  Ca0ca12120   6.001   0.611   1.624
    1CAL  Ca0cb12121   5.501   1.012   1.623
    1CAL  Ca0cc12122   4.251   1.508   1.932
    1CAL  Ca0cd12123   5.751   1.317   1.318
    1CAL  Ca0ce12124   4.501   1.012   1.623
    1CAL  Ca0cf12125   4.497   1.212   2.237
    1CAL  Ca0cg12126   6.001   0.209   1.624
    1CAL  Ca0ch12127   4.501   1.413   1.624
    1CAL  Ca0ci12128   5.497   0.408   2.237
    1CAL  Ca0cj12129   5.251   0.916   1.317
    1CAL  Ca0ck12130   4.751   0.916   1.317
    1CAL  Ca0cl12131   5.001   0.209   1.624
    1CAL  Ca0cm12132   5.001   1.012   1.623
    1CAL  Ca0cn12133   4.501   0.611   1.624
    1CAL  Ca0co12134   5.001   0.611   1.624
    1CAL  Ca0cp12135   4.750   1.106   1.931
    1CAL  Ca0cq12136   4.251   0.112   1.317
    1CAL  Ca0cr12137   4.751   0.514   1.317
    1CAL  Ca0cs12138   5.251   0.514   1.317
    1CAL  Ca0ct12139   5.250   1.106   1.931
    1CAL  Ca0cu12140   5.251   1.507   1.932
    1CAL  Ca0cv12141   5.750   0.303   1.932
    1CAL  Ca0cw12142   5.003   0.007   2.237
    1CAL  Ca0cx12143   4.749   0.303   1.932
    1CAL  Ca0cy12144   4.504   0.810   2.236
    1CAL  Ca0cz12145   4.501   0.209   1.624
    1CAL  Ca0d012146   4.751   0.112   1.317
    1CAL  Ca0d112147   5.251   1.317   1.318
    1CAL  Ca0d212148   5.250   0.303   1.932
    1CAL  Ca0d312149   4.997   0.408   2.237
    1CAL  Ca0d412150   4.751   1.317   1.318
    1CAL  Ca0d512151   4.997   1.211   2.237
    1CAL  Ca0d612152   4.251   1.317   1.318
    1CAL  Ca0d712153   5.501   0.209   1.624
    1CAL  Ca0d812154   5.504   0.810   2.236
    1CAL  Ca0d912155   5.503   0.006   2.237
    1CAL  Ca0dA12156   4.751   0.705   1.932
    1CAL  Ca0dB12157   5.751   1.508   1.932
    1CAL  Ca0dC12158   5.251   0.705   1.932
    1CAL  Ca0dD12159   4.250   0.303   1.932
    1CAL  Ca0dE12160   6.001   1.012   1.623
    1CAL  C00dF12161   6.001   1.517   2.545
    1CAL  C00dG12162   5.251   0.007   2.852
    1CAL  C00dH12163   4.251   0.007   2.852
    1CAL  C00dI12164   5.500   0.505   3.158
    1CAL  C00dJ12165   5.500   1.308   3.158
    1CAL  C00dK12166   4.751   0.007   2.852
    1CAL  C00dL12167   5.001   0.715   2.545
    1CAL  C00dM12168   5.251   1.212   2.849
    1CAL  C00dN12169   4.751   1.212   2.850
    1CAL  C00dO12170   4.501   0.907   3.159
    1CAL  C00dP12171   4.501   0.313   2.545
    1CAL  C00dQ12172   5.001   1.117   2.545
    1CAL  C00dR12173   5.001   0.313   2.545
    1CAL  C00dS12174   4.251   0.410   2.852
    1CAL  C00dT12175   4.501   0.103   3.159
    1CAL  C00dU12176   5.001   0.907   3.158
    1CAL  C00dV12177   5.751   0.007   2.852
    1CAL  C00dW12178   5.501   0.103   3.159
    1CAL  C00dX12179   4.251   0.812   2.852
    1CAL  C00dY12180   6.000   0.505   3.159
    1CAL  C00dZ12181   6.001   0.907   3.158
    1CAL  C00da12182   6.001   0.313   2.545
    1CAL  C00db12183   6.001   1.117   2.545
    1CAL  C00dc12184   4.251   1.212   2.850
    1CAL  C00dd12185   4.500   0.505   3.158
    1CAL  C00de12186   5.501   0.715   2.545
    1CAL  C00df12187   6.001   0.715   2.545
    1CAL  C00dg12188   5.751   0.410   2.852
    1CAL  C00dh12189   5.251   0.410   2.852
    1CAL  C00di12190   5.501   0.313   2.545
    1CAL  C00dj12191   5.501   0.907   3.158
    1CAL  C00dk12192   4.499   1.308   3.158
    1CAL  C00dl12193   5.501   1.517   2.545
    1CAL  C00dm12194   4.751   0.410   2.852
    1CAL  C00dn12195   5.251   0.812   2.852
    1CAL  C00do12196   4.501   1.117   2.545
    1CAL  C00dp12197   5.751   1.212   2.849
    1CAL  C00dq12198   5.001   1.517   2.545
    1CAL  C00dr12199   6.000   1.308   3.159
    1CAL  C00ds12200   5.001   0.103   3.158
    1CAL  C00dt12201   5.000   1.308   3.158
    1CAL  C00du12202   5.000   0.505   3.159
    1CAL  C00dv12203   5.751   0.812   2.852
    1CAL  C00dw12204   4.501   1.517   2.545
    1CAL  C00dx12205   5.501   1.117   2.545
    1CAL  C00dy12206   4.501   0.715   2.545
    1CAL  C00dz12207   4.751   0.812   2.852
    1CAL  C00e012208   6.001   0.103   3.159
    1CAL  C00e112209   4.752   0.603   3.469
    1CAL  C00e212210   4.748   0.202   3.469
    1CAL  C00e312211   4.748   1.005   3.468
    1CAL  C00e412212   4.752   1.406   3.469
    1CAL  C00e512213   5.752   0.603   3.469
    1CAL  C00e612214   5.748   0.202   3.469
    1CAL  C00e712215   5.752   1.406   3.469
    1CAL  C00e812216   5.749   1.005   3.468
    1CAL  C00e912217   5.252   1.406   3.469
    1CAL  C00eA12218   5.249   1.004   3.469
    1CAL  C00eB12219   5.252   0.603   3.469
    1CAL  C00eC12220   5.248   0.201   3.470
    1CAL  C00eD12221   4.252   1.406   3.470
    1CAL  C00eE12222   4.249   1.004   3.470
    1CAL  C00eF12223   4.252   0.604   3.469
    1CAL  C00eG12224   4.248   0.201   3.471
    1CAL  O01th12225   4.186   0.734   2.931
    1CAL  O01ti12226   5.187   0.891   2.773
    1CAL  O01tj12227   5.186   0.734   2.931
    1CAL  O01tk12228   5.380   0.812   2.853
    1CAL  O01tl12229   4.565   1.438   2.624
    1CAL  O01tm12230   4.372   1.518   2.544
    1CAL  O01tn12231   4.565   0.794   2.466
    1CAL  O01to12232   4.687   0.891   2.773
    1CAL  O01tp12233   4.686   0.734   2.931
    1CAL  O01tq12234   4.880   0.812   2.853
    1CAL  O01tr12235   4.566   1.595   2.466
    1CAL  O01ts12236   4.565   0.637   2.624
    1CAL  O01tt12237   4.372   0.715   2.545
    1CAL  O01tu12238   5.129   1.307   3.159
    1CAL  O01tv12239   4.936   1.386   3.078
    1CAL  O01tw12240   4.937   0.584   3.078
    1CAL  O01tx12241   4.934   0.427   3.238
    1CAL  O01ty12242   5.129   0.504   3.160
    1CAL  O01tz12243   4.934   1.230   3.238
    1CAL  O01u012244   4.622   0.410   2.852
    1CAL  O01u112245   5.064   0.986   3.078
    1CAL  O01u212246   5.123   1.212   2.849
    1CAL  O01u312247   5.315   1.133   2.929
    1CAL  O01u412248   5.316   1.290   2.771
    1CAL  O01u512249   4.437   0.234   2.624
    1CAL  O01u612250   4.436   0.391   2.466
    1CAL  O01u712251   4.622   1.212   2.849
    1CAL  O01u812252   4.815   1.133   2.929
    1CAL  O01u912253   4.816   1.290   2.771
    1CAL  O01uA12254   4.315   0.489   2.773
    1CAL  O01uB12255   4.815   0.331   2.931
    1CAL  O01uC12256   4.937   1.196   2.465
    1CAL  O01uD12257   5.130   1.117   2.545
    1CAL  O01uE12258   4.315   0.331   2.932
    1CAL  O01uF12259   4.122   0.410   2.852
    1CAL  O01uG12260   4.815   0.489   2.773
    1CAL  O01uH12261   4.937   0.392   2.465
    1CAL  O01uI12262   4.937   0.234   2.624
    1CAL  O01uJ12263   5.130   0.313   2.545
    1CAL  O01uK12264   4.871   0.906   3.159
    1CAL  O01uL12265   5.067   0.829   3.237
    1CAL  O01uM12266   4.936   1.039   2.624
    1CAL  O01uN12267   5.687   0.891   2.773
    1CAL  O01uO12268   5.686   0.734   2.931
    1CAL  O01uP12269   5.880   0.812   2.853
    1CAL  O01uQ12270   5.935   1.229   3.238
    1CAL  O01uR12271   5.937   0.584   3.079
    1CAL  O01uS12272   5.935   0.426   3.238
    1CAL  O01uT12273   4.129   1.307   3.160
    1CAL  O01uU12274   4.065   0.182   3.079
    1CAL  O01uV12275   5.437   1.196   2.465
    1CAL  O01uW12276   5.436   1.039   2.624
    1CAL  O01uX12277   5.630   1.117   2.545
    1CAL  O01uY12278   4.066   0.025   3.239
    1CAL  O01uZ12279   5.435   1.230   3.238
    1CAL  O01ua12280   4.066   1.595   2.466
    1CAL  O01ub12281   4.065   1.438   2.624
    1CAL  O01uc12282   4.872   1.518   2.544
    1CAL  O01ud12283   5.872   0.906   3.160
    1CAL  O01ue12284   5.937   0.234   2.624
    1CAL  O01uf12285   5.065   0.182   3.079
    1CAL  O01ug12286   4.437   1.196   2.465
    1CAL  O01uh12287   4.436   1.039   2.624
    1CAL  O01ui12288   4.630   1.117   2.545
    1CAL  O01uj12289   5.066   0.024   3.238
    1CAL  O01uk12290   4.434   1.230   3.238
    1CAL  O01ul12291   4.872   0.103   3.159
    1CAL  O01um12292   5.873   0.715   2.545
    1CAL  O01un12293   5.066   1.595   2.466
    1CAL  O01uo12294   5.065   1.438   2.624
    1CAL  O01up12295   5.623   1.212   2.849
    1CAL  O01uq12296   5.815   1.133   2.929
    1CAL  O01ur12297   5.816   1.290   2.770
    1CAL  O01us12298   5.938   1.196   2.465
    1CAL  O01ut12299   5.936   1.039   2.624
    1CAL  O01uu12300   5.937   0.392   2.465
    1CAL  O01uv12301   4.630   0.313   2.544
    1CAL  O01uw12302   4.380   0.812   2.853
    1CAL  O01ux12303   4.371   0.906   3.162
    1CAL  O01uy12304   5.066   0.637   2.624
    1CAL  O01uz12305   5.565   1.438   2.624
    1CAL  O01v012306   5.566   1.595   2.466
    1CAL  O01v112307   5.623   0.410   2.852
    1CAL  O01v212308   5.816   0.331   2.931
    1CAL  O01v312309   5.373   1.518   2.544
    1CAL  O01v412310   5.122   0.410   2.852
    1CAL  O01v512311   5.315   0.489   2.773
    1CAL  O01v612312   4.629   1.307   3.159
    1CAL  O01v712313   5.437   0.391   2.466
    1CAL  O01v812314   5.437   0.234   2.624
    1CAL  O01v912315   5.630   0.313   2.544
    1CAL  O01vA12316   5.372   0.906   3.161
    1CAL  O01vB12317   5.567   0.829   3.237
    1CAL  O01vC12318   5.316   0.331   2.931
    1CAL  O01vD12319   5.564   0.987   3.078
    1CAL  O01vE12320   4.066   0.637   2.624
    1CAL  O01vF12321   5.566   0.637   2.624
    1CAL  O01vG12322   4.187   0.891   2.773
    1CAL  O01vH12323   4.064   0.987   3.078
    1CAL  O01vI12324   4.066   0.829   3.238
    1CAL  O01vJ12325   4.129   0.504   3.160
    1CAL  O01vK12326   4.130   0.313   2.545
    1CAL  O01vL12327   4.129   1.117   2.545
    1CAL  O01vM12328   5.565   0.794   2.466
    1CAL  O01vN12329   4.316   1.290   2.771
    1CAL  O01vO12330   5.873   1.518   2.544
    1CAL  O01vP12331   5.872   0.103   3.160
    1CAL  O01vQ12332   4.122   1.212   2.849
    1CAL  O01vR12333   5.936   1.386   3.078
    1CAL  O01vS12334   4.065   0.794   2.466
    1CAL  O01vT12335   5.373   0.715   2.545
    1CAL  O01vU12336   4.315   1.133   2.929
    1CAL  O01vV12337   4.435   1.387   3.078
    1CAL  O01vW12338   4.629   0.504   3.159
    1CAL  O01vX12339   5.372   0.102   3.161
    1CAL  O01vY12340   5.437   0.584   3.078
    1CAL  O01vZ12341   5.435   0.427   3.238
    1CAL  O01va12342   5.630   0.504   3.159
    1CAL  O01vb12343   4.880   0.007   2.852
    1CAL  O01vc12344   4.687   1.535   2.931
    1CAL  O01vd12345   5.435   1.386   3.078
    1CAL  O01ve12346   5.629   1.307   3.158
    1CAL  O01vf12347   4.687   0.086   2.773
    1CAL  O01vg12348   4.564   0.182   3.079
    1CAL  O01vh12349   4.567   0.025   3.238
    1CAL  O01vi12350   4.371   0.103   3.161
    1CAL  O01vj12351   4.563   0.987   3.078
    1CAL  O01vk12352   4.568   0.829   3.238
    1CAL  O01vl12353   4.872   0.715   2.545
    1CAL  O01vm12354   5.567   0.024   3.238
    1CAL  O01vn12355   5.565   0.182   3.079
    1CAL  O01vo12356   4.434   0.427   3.238
    1CAL  O01vp12357   4.436   0.585   3.079
    1CAL  O01vq12358   5.687   0.086   2.773
    1CAL  O01vr12359   5.687   1.535   2.931
    1CAL  O01vs12360   5.880   0.007   2.852
    1CAL  O01vt12361   4.380   0.008   2.852
    1CAL  O01vu12362   4.187   1.535   2.931
    1CAL  O01vv12363   4.186   0.086   2.773
    1CAL  O01vw12364   5.187   0.086   2.773
    1CAL  O01vx12365   5.187   1.535   2.931
    1CAL  O01vy12366   5.380   0.008   2.852
    1CAL  O01vz12367   5.065   0.794   2.466
    1CAL  O01w012368   5.816   0.489   2.773
    1CAL  O01w112369   4.821   1.480   3.387
    1CAL  O01w212370   4.812   1.328   3.553
    1CAL  O01w312371   4.622   1.412   3.467
    1CAL  O01w412372   4.679   1.079   3.386
    1CAL  O01w512373   4.688   0.928   3.552
    1CAL  O01w612374   4.878   1.010   3.465
    1CAL  O01w712375   4.878   0.207   3.466
    1CAL  O01w812376   4.688   0.124   3.553
    1CAL  O01w912377   4.679   0.275   3.387
    1CAL  O01wA12378   4.622   0.609   3.466
    1CAL  O01wB12379   4.812   0.525   3.552
    1CAL  O01wC12380   4.821   0.677   3.387
    1CAL  O01wD12381   5.680   1.079   3.386
    1CAL  O01wE12382   5.878   1.010   3.466
    1CAL  O01wF12383   5.688   0.927   3.552
    1CAL  O01wG12384   5.623   1.411   3.466
    1CAL  O01wH12385   5.812   1.328   3.552
    1CAL  O01wI12386   5.821   1.480   3.387
    1CAL  O01wJ12387   5.679   0.275   3.387
    1CAL  O01wK12388   5.878   0.207   3.466
    1CAL  O01wL12389   5.688   0.124   3.553
    1CAL  O01wM12390   5.622   0.608   3.466
    1CAL  O01wN12391   5.812   0.525   3.552
    1CAL  O01wO12392   5.821   0.677   3.387
    1CAL  O01wP12393   5.312   1.328   3.553
    1CAL  O01wQ12394   5.122   1.411   3.467
    1CAL  O01wR12395   5.321   1.479   3.387
    1CAL  O01wS12396   5.180   1.078   3.387
    1CAL  O01wT12397   5.189   0.926   3.553
    1CAL  O01wU12398   5.379   1.010   3.467
    1CAL  O01wV12399   5.312   0.525   3.553
    1CAL  O01wW12400   5.321   0.676   3.387
    1CAL  O01wX12401   5.122   0.609   3.466
    1CAL  O01wY12402   5.180   0.275   3.388
    1CAL  O01wZ12403   5.188   0.123   3.553
    1CAL  O01wa12404   5.378   0.207   3.468
    1CAL  O01wb12405   4.311   1.328   3.554
    1CAL  O01wc12406   4.122   1.412   3.467
    1CAL  O01wd12407   4.321   1.479   3.388
    1CAL  O01we12408   4.180   1.078   3.388
    1CAL  O01wf12409   4.189   0.926   3.553
    1CAL  O01wg12410   4.379   1.010   3.469
    1CAL  O01wh12411   4.311   0.526   3.554
    1CAL  O01wi12412   4.122   0.609   3.466
    1CAL  O01wj12413   4.321   0.677   3.387
    1CAL  O01wk12414   4.378   0.207   3.469
    1CAL  O01wl12415   4.188   0.123   3.554
    1CAL  O01wm12416   4.180   0.275   3.389
    1CAL  Ca0dF12417   5.003   0.810   3.464
    1CAL  Ca0dG12418   5.751   0.514   2.545
    1CAL  Ca0dH12419   5.497   1.211   3.465
    1CAL  Ca0dI12420   4.003   0.810   3.465
    1CAL  Ca0dJ12421   4.751   1.507   3.160
    1CAL  Ca0dK12422   5.751   0.916   2.545
    1CAL  Ca0dL12423   5.501   0.611   2.852
    1CAL  Ca0dM12424   5.501   1.413   2.852
    1CAL  Ca0dN12425   4.250   1.106   3.159
    1CAL  Ca0dO12426   5.001   1.413   2.852
    1CAL  Ca0dP12427   4.503   0.007   3.465
    1CAL  Ca0dQ12428   4.251   0.514   2.545
    1CAL  Ca0dR12429   4.251   0.705   3.160
    1CAL  Ca0dS12430   5.998   0.408   3.465
    1CAL  Ca0dT12431   5.998   1.211   3.465
    1CAL  Ca0dU12432   5.750   1.106   3.158
    1CAL  Ca0dV12433   5.251   0.112   2.545
    1CAL  Ca0dW12434   6.001   1.413   2.852
    1CAL  Ca0dX12435   5.751   0.112   2.545
    1CAL  Ca0dY12436   4.496   0.409   3.465
    1CAL  Ca0dZ12437   4.003   0.007   3.466
    1CAL  Ca0da12438   5.752   0.705   3.160
    1CAL  Ca0db12439   4.251   0.916   2.545
    1CAL  Ca0dc12440   6.001   0.611   2.852
    1CAL  Ca0dd12441   5.501   1.012   2.851
    1CAL  Ca0de12442   4.251   1.508   3.160
    1CAL  Ca0df12443   5.751   1.317   2.546
    1CAL  Ca0dg12444   4.501   1.012   2.851
    1CAL  Ca0dh12445   4.497   1.212   3.465
    1CAL  Ca0di12446   6.001   0.209   2.852
    1CAL  Ca0dj12447   4.501   1.413   2.852
    1CAL  Ca0dk12448   5.497   0.408   3.465
    1CAL  Ca0dl12449   5.251   0.916   2.545
    1CAL  Ca0dm12450   4.751   0.916   2.545
    1CAL  Ca0dn12451   5.001   0.209   2.852
    1CAL  Ca0do12452   5.001   1.012   2.851
    1CAL  Ca0dp12453   4.501   0.611   2.852
    1CAL  Ca0dq12454   5.001   0.611   2.852
    1CAL  Ca0dr12455   4.750   1.106   3.159
    1CAL  Ca0ds12456   4.251   0.112   2.545
    1CAL  Ca0dt12457   4.751   0.514   2.545
    1CAL  Ca0du12458   5.251   0.514   2.545
    1CAL  Ca0dv12459   5.250   1.106   3.159
    1CAL  Ca0dw12460   5.251   1.507   3.160
    1CAL  Ca0dx12461   5.750   0.303   3.160
    1CAL  Ca0dy12462   5.003   0.007   3.465
    1CAL  Ca0dz12463   4.749   0.303   3.160
    1CAL  Ca0e012464   4.504   0.810   3.464
    1CAL  Ca0e112465   4.501   0.209   2.852
    1CAL  Ca0e212466   4.751   0.112   2.545
    1CAL  Ca0e312467   5.251   1.317   2.546
    1CAL  Ca0e412468   5.250   0.303   3.160
    1CAL  Ca0e512469   4.997   0.408   3.465
    1CAL  Ca0e612470   4.751   1.317   2.546
    1CAL  Ca0e712471   4.997   1.211   3.465
    1CAL  Ca0e812472   4.251   1.317   2.546
    1CAL  Ca0e912473   5.501   0.209   2.852
    1CAL  Ca0eA12474   5.504   0.810   3.464
    1CAL  Ca0eB12475   5.503   0.006   3.465
    1CAL  Ca0eC12476   4.751   0.705   3.160
    1CAL  Ca0eD12477   5.751   1.508   3.160
    1CAL  Ca0eE12478   5.251   0.705   3.160
    1CAL  Ca0eF12479   4.250   0.303   3.160
    1CAL  Ca0eG12480   6.001   1.012   2.851
    1CAL  C00eH12481   6.001   3.123   0.089
    1CAL  C00eI12482   5.251   1.613   0.396
    1CAL  C00eJ12483   4.251   1.613   0.396
    1CAL  C00eK12484   5.500   2.111   0.702
    1CAL  C00eL12485   5.500   2.914   0.702
    1CAL  C00eM12486   4.751   1.613   0.396
    1CAL  C00eN12487   5.001   2.321   0.089
    1CAL  C00eO12488   5.251   2.818   0.393
    1CAL  C00eP12489   4.751   2.818   0.394
    1CAL  C00eQ12490   4.501   2.513   0.703
    1CAL  C00eR12491   4.501   1.919   0.089
    1CAL  C00eS12492   5.001   2.723   0.089
    1CAL  C00eT12493   5.001   1.919   0.089
    1CAL  C00eU12494   4.251   2.016   0.396
    1CAL  C00eV12495   4.501   1.709   0.703
    1CAL  C00eW12496   5.001   2.513   0.702
    1CAL  C00eX12497   5.751   1.613   0.396
    1CAL  C00eY12498   5.501   1.709   0.703
    1CAL  C00eZ12499   4.251   2.418   0.396
    1CAL  C00ea12500   6.000   2.111   0.703
    1CAL  C00eb12501   6.001   2.513   0.702
    1CAL  C00ec12502   6.001   1.919   0.089
    1CAL  C00ed12503   6.001   2.723   0.089
    1CAL  C00ee12504   4.251   2.818   0.394
    1CAL  C00ef12505   4.500   2.111   0.702
    1CAL  C00eg12506   5.501   2.321   0.089
    1CAL  C00eh12507   6.001   2.321   0.089
    1CAL  C00ei12508   5.751   2.016   0.396
    1CAL  C00ej12509   5.251   2.016   0.396
    1CAL  C00ek12510   5.501   1.919   0.089
    1CAL  C00el12511   5.501   2.513   0.702
    1CAL  C00em12512   4.499   2.914   0.702
    1CAL  C00en12513   5.501   3.123   0.089
    1CAL  C00eo12514   4.751   2.016   0.396
    1CAL  C00ep12515   5.251   2.418   0.396
    1CAL  C00eq12516   4.501   2.723   0.089
    1CAL  C00er12517   5.751   2.818   0.393
    1CAL  C00es12518   5.001   3.123   0.089
    1CAL  C00et12519   6.000   2.914   0.703
    1CAL  C00eu12520   5.001   1.709   0.702
    1CAL  C00ev12521   5.000   2.914   0.702
    1CAL  C00ew12522   5.000   2.111   0.703
    1CAL  C00ex12523   5.751   2.418   0.396
    1CAL  C00ey12524   4.501   3.123   0.089
    1CAL  C00ez12525   5.501   2.723   0.089
    1CAL  C00f012526   4.501   2.321   0.089
    1CAL  C00f112527   4.751   2.418   0.396
    1CAL  C00f212528   6.001   1.709   0.703
    1CAL  C00f312529   4.752   2.209   1.013
    1CAL  C00f412530   4.748   1.808   1.013
    1CAL  C00f512531   4.748   2.611   1.012
    1CAL  C00f612532   4.752   3.012   1.013
    1CAL  C00f712533   5.752   2.209   1.013
    1CAL  C00f812534   5.748   1.808   1.013
    1CAL  C00f912535   5.752   3.012   1.013
    1CAL  C00fA12536   5.749   2.611   1.012
    1CAL  C00fB12537   5.252   3.012   1.013
    1CAL  C00fC12538   5.249   2.610   1.013
    1CAL  C00fD12539   5.252   2.209   1.013
    1CAL  C00fE12540   5.248   1.807   1.014
    1CAL  C00fF12541   4.252   3.012   1.014
    1CAL  C00fG12542   4.249   2.610   1.014
    1CAL  C00fH12543   4.252   2.210   1.013
    1CAL  C00fI12544   4.248   1.807   1.015
    1CAL  O01wn12545   4.186   2.340   0.475
    1CAL  O01wo12546   5.187   2.497   0.317
    1CAL  O01wp12547   5.186   2.340   0.475
    1CAL  O01wq12548   5.380   2.418   0.397
    1CAL  O01wr12549   4.565   3.044   0.168
    1CAL  O01ws12550   4.372   3.124   0.088
    1CAL  O01wt12551   4.565   2.400   0.010
    1CAL  O01wu12552   4.687   2.497   0.317
    1CAL  O01wv12553   4.686   2.340   0.475
    1CAL  O01ww12554   4.880   2.418   0.397
    1CAL  O01wx12555   4.566   3.201   0.010
    1CAL  O01wy12556   4.565   2.243   0.168
    1CAL  O01wz12557   4.372   2.321   0.089
    1CAL  O01x012558   5.129   2.913   0.703
    1CAL  O01x112559   4.936   2.992   0.622
    1CAL  O01x212560   4.937   2.190   0.622
    1CAL  O01x312561   4.934   2.033   0.782
    1CAL  O01x412562   5.129   2.110   0.704
    1CAL  O01x512563   4.934   2.836   0.782
    1CAL  O01x612564   4.622   2.016   0.396
    1CAL  O01x712565   5.064   2.592   0.622
    1CAL  O01x812566   5.123   2.818   0.393
    1CAL  O01x912567   5.315   2.739   0.473
    1CAL  O01xA12568   5.316   2.896   0.315
    1CAL  O01xB12569   4.437   1.840   0.168
    1CAL  O01xC12570   4.436   1.997   0.010
    1CAL  O01xD12571   4.622   2.818   0.393
    1CAL  O01xE12572   4.815   2.739   0.473
    1CAL  O01xF12573   4.816   2.896   0.315
    1CAL  O01xG12574   4.315   2.095   0.317
    1CAL  O01xH12575   4.815   1.937   0.475
    1CAL  O01xI12576   4.937   2.802   0.009
    1CAL  O01xJ12577   5.130   2.723   0.089
    1CAL  O01xK12578   4.315   1.937   0.476
    1CAL  O01xL12579   4.122   2.016   0.396
    1CAL  O01xM12580   4.815   2.095   0.317
    1CAL  O01xN12581   4.937   1.998   0.009
    1CAL  O01xO12582   4.937   1.840   0.168
    1CAL  O01xP12583   5.130   1.919   0.089
    1CAL  O01xQ12584   4.871   2.512   0.703
    1CAL  O01xR12585   5.067   2.435   0.781
    1CAL  O01xS12586   4.936   2.645   0.168
    1CAL  O01xT12587   5.687   2.497   0.317
    1CAL  O01xU12588   5.686   2.340   0.475
    1CAL  O01xV12589   5.880   2.418   0.397
    1CAL  O01xW12590   5.935   2.835   0.782
    1CAL  O01xX12591   5.937   2.190   0.623
    1CAL  O01xY12592   5.935   2.032   0.782
    1CAL  O01xZ12593   4.129   2.913   0.704
    1CAL  O01xa12594   4.065   1.788   0.623
    1CAL  O01xb12595   5.437   2.802   0.009
    1CAL  O01xc12596   5.436   2.645   0.168
    1CAL  O01xd12597   5.630   2.723   0.089
    1CAL  O01xe12598   4.066   1.631   0.783
    1CAL  O01xf12599   5.435   2.836   0.782
    1CAL  O01xg12600   4.066   3.201   0.010
    1CAL  O01xh12601   4.065   3.044   0.168
    1CAL  O01xi12602   4.872   3.124   0.088
    1CAL  O01xj12603   5.872   2.512   0.704
    1CAL  O01xk12604   5.937   1.840   0.168
    1CAL  O01xl12605   5.065   1.788   0.623
    1CAL  O01xm12606   4.437   2.802   0.009
    1CAL  O01xn12607   4.436   2.645   0.168
    1CAL  O01xo12608   4.630   2.723   0.089
    1CAL  O01xp12609   5.066   1.630   0.782
    1CAL  O01xq12610   4.434   2.836   0.782
    1CAL  O01xr12611   4.872   1.709   0.703
    1CAL  O01xs12612   5.873   2.321   0.089
    1CAL  O01xt12613   5.066   3.201   0.010
    1CAL  O01xu12614   5.065   3.044   0.168
    1CAL  O01xv12615   5.623   2.818   0.393
    1CAL  O01xw12616   5.815   2.739   0.473
    1CAL  O01xx12617   5.816   2.896   0.314
    1CAL  O01xy12618   5.938   2.802   0.009
    1CAL  O01xz12619   5.936   2.645   0.168
    1CAL  O01y012620   5.937   1.998   0.009
    1CAL  O01y112621   4.630   1.919   0.088
    1CAL  O01y212622   4.380   2.418   0.397
    1CAL  O01y312623   4.371   2.512   0.706
    1CAL  O01y412624   5.066   2.243   0.168
    1CAL  O01y512625   5.565   3.044   0.168
    1CAL  O01y612626   5.566   3.201   0.010
    1CAL  O01y712627   5.623   2.016   0.396
    1CAL  O01y812628   5.816   1.937   0.475
    1CAL  O01y912629   5.373   3.124   0.088
    1CAL  O01yA12630   5.122   2.016   0.396
    1CAL  O01yB12631   5.315   2.095   0.317
    1CAL  O01yC12632   4.629   2.913   0.703
    1CAL  O01yD12633   5.437   1.997   0.010
    1CAL  O01yE12634   5.437   1.840   0.168
    1CAL  O01yF12635   5.630   1.919   0.088
    1CAL  O01yG12636   5.372   2.512   0.705
    1CAL  O01yH12637   5.567   2.435   0.781
    1CAL  O01yI12638   5.316   1.937   0.475
    1CAL  O01yJ12639   5.564   2.593   0.622
    1CAL  O01yK12640   4.066   2.243   0.168
    1CAL  O01yL12641   5.566   2.243   0.168
    1CAL  O01yM12642   4.187   2.497   0.317
    1CAL  O01yN12643   4.064   2.593   0.622
    1CAL  O01yO12644   4.066   2.435   0.782
    1CAL  O01yP12645   4.129   2.110   0.704
    1CAL  O01yQ12646   4.130   1.919   0.089
    1CAL  O01yR12647   4.129   2.723   0.089
    1CAL  O01yS12648   5.565   2.400   0.010
    1CAL  O01yT12649   4.316   2.896   0.315
    1CAL  O01yU12650   5.873   3.124   0.088
    1CAL  O01yV12651   5.872   1.709   0.704
    1CAL  O01yW12652   4.122   2.818   0.393
    1CAL  O01yX12653   5.936   2.992   0.622
    1CAL  O01yY12654   4.065   2.400   0.010
    1CAL  O01yZ12655   5.373   2.321   0.089
    1CAL  O01ya12656   4.315   2.739   0.473
    1CAL  O01yb12657   4.435   2.993   0.622
    1CAL  O01yc12658   4.629   2.110   0.703
    1CAL  O01yd12659   5.372   1.708   0.705
    1CAL  O01ye12660   5.437   2.190   0.622
    1CAL  O01yf12661   5.435   2.033   0.782
    1CAL  O01yg12662   5.630   2.110   0.703
    1CAL  O01yh12663   4.880   1.613   0.396
    1CAL  O01yi12664   4.687   3.141   0.475
    1CAL  O01yj12665   5.435   2.992   0.622
    1CAL  O01yk12666   5.629   2.913   0.702
    1CAL  O01yl12667   4.687   1.692   0.317
    1CAL  O01ym12668   4.564   1.788   0.623
    1CAL  O01yn12669   4.567   1.631   0.782
    1CAL  O01yo12670   4.371   1.709   0.705
    1CAL  O01yp12671   4.563   2.593   0.622
    1CAL  O01yq12672   4.568   2.435   0.782
    1CAL  O01yr12673   4.872   2.321   0.089
    1CAL  O01ys12674   5.567   1.630   0.782
    1CAL  O01yt12675   5.565   1.788   0.623
    1CAL  O01yu12676   4.434   2.033   0.782
    1CAL  O01yv12677   4.436   2.191   0.623
    1CAL  O01yw12678   5.687   1.692   0.317
    1CAL  O01yx12679   5.687   3.141   0.475
    1CAL  O01yy12680   5.880   1.613   0.396
    1CAL  O01yz12681   4.380   1.614   0.396
    1CAL  O01z012682   4.187   3.141   0.475
    1CAL  O01z112683   4.186   1.692   0.317
    1CAL  O01z212684   5.187   1.692   0.317
    1CAL  O01z312685   5.187   3.141   0.475
    1CAL  O01z412686   5.380   1.614   0.396
    1CAL  O01z512687   5.065   2.400   0.010
    1CAL  O01z612688   5.816   2.095   0.317
    1CAL  O01z712689   4.821   3.086   0.931
    1CAL  O01z812690   4.812   2.934   1.097
    1CAL  O01z912691   4.622   3.018   1.011
    1CAL  O01zA12692   4.679   2.685   0.930
    1CAL  O01zB12693   4.688   2.534   1.096
    1CAL  O01zC12694   4.878   2.616   1.009
    1CAL  O01zD12695   4.878   1.813   1.010
    1CAL  O01zE12696   4.688   1.730   1.097
    1CAL  O01zF12697   4.679   1.881   0.931
    1CAL  O01zG12698   4.622   2.215   1.010
    1CAL  O01zH12699   4.812   2.131   1.096
    1CAL  O01zI12700   4.821   2.283   0.931
    1CAL  O01zJ12701   5.680   2.685   0.930
    1CAL  O01zK12702   5.878   2.616   1.010
    1CAL  O01zL12703   5.688   2.533   1.096
    1CAL  O01zM12704   5.623   3.017   1.010
    1CAL  O01zN12705   5.812   2.934   1.096
    1CAL  O01zO12706   5.821   3.086   0.931
    1CAL  O01zP12707   5.679   1.881   0.931
    1CAL  O01zQ12708   5.878   1.813   1.010
    1CAL  O01zR12709   5.688   1.730   1.097
    1CAL  O01zS12710   5.622   2.214   1.010
    1CAL  O01zT12711   5.812   2.131   1.096
    1CAL  O01zU12712   5.821   2.283   0.931
    1CAL  O01zV12713   5.312   2.934   1.097
    1CAL  O01zW12714   5.122   3.017   1.011
    1CAL  O01zX12715   5.321   3.085   0.931
    1CAL  O01zY12716   5.180   2.684   0.931
    1CAL  O01zZ12717   5.189   2.532   1.097
    1CAL  O01za12718   5.379   2.616   1.011
    1CAL  O01zb12719   5.312   2.131   1.097
    1CAL  O01zc12720   5.321   2.282   0.931
    1CAL  O01zd12721   5.122   2.215   1.010
    1CAL  O01ze12722   5.180   1.881   0.932
    1CAL  O01zf12723   5.188   1.729   1.097
    1CAL  O01zg12724   5.378   1.813   1.012
    1CAL  O01zh12725   4.311   2.934   1.098
    1CAL  O01zi12726   4.122   3.018   1.011
    1CAL  O01zj12727   4.321   3.085   0.932
    1CAL  O01zk12728   4.180   2.684   0.932
    1CAL  O01zl12729   4.189   2.532   1.097
    1CAL  O01zm12730   4.379   2.616   1.013
    1CAL  O01zn12731   4.311   2.132   1.098
    1CAL  O01zo12732   4.122   2.215   1.010
    1CAL  O01zp12733   4.321   2.283   0.931
    1CAL  O01zq12734   4.378   1.813   1.013
    1CAL  O01zr12735   4.188   1.729   1.098
    1CAL  O01zs12736   4.180   1.881   0.933
    1CAL  Ca0eH12737   5.003   2.416   1.008
    1CAL  Ca0eI12738   5.751   2.120   0.089
    1CAL  Ca0eJ12739   5.497   2.817   1.009
    1CAL  Ca0eK12740   4.003   2.416   1.009
    1CAL  Ca0eL12741   4.751   3.113   0.704
    1CAL  Ca0eM12742   5.751   2.522   0.089
    1CAL  Ca0eN12743   5.501   2.217   0.396
    1CAL  Ca0eO12744   5.501   3.019   0.396
    1CAL  Ca0eP12745   4.250   2.712   0.703
    1CAL  Ca0eQ12746   5.001   3.019   0.396
    1CAL  Ca0eR12747   4.503   1.613   1.009
    1CAL  Ca0eS12748   4.251   2.120   0.089
    1CAL  Ca0eT12749   4.251   2.311   0.704
    1CAL  Ca0eU12750   5.998   2.014   1.009
    1CAL  Ca0eV12751   5.998   2.817   1.009
    1CAL  Ca0eW12752   5.750   2.712   0.702
    1CAL  Ca0eX12753   5.251   1.718   0.089
    1CAL  Ca0eY12754   6.001   3.019   0.396
    1CAL  Ca0eZ12755   5.751   1.718   0.089
    1CAL  Ca0ea12756   4.496   2.015   1.009
    1CAL  Ca0eb12757   4.003   1.613   1.010
    1CAL  Ca0ec12758   5.752   2.311   0.704
    1CAL  Ca0ed12759   4.251   2.522   0.089
    1CAL  Ca0ee12760   6.001   2.217   0.396
    1CAL  Ca0ef12761   5.501   2.618   0.395
    1CAL  Ca0eg12762   4.251   3.114   0.704
    1CAL  Ca0eh12763   5.751   2.923   0.090
    1CAL  Ca0ei12764   4.501   2.618   0.395
    1CAL  Ca0ej12765   4.497   2.818   1.009
    1CAL  Ca0ek12766   6.001   1.815   0.396
    1CAL  Ca0el12767   4.501   3.019   0.396
    1CAL  Ca0em12768   5.497   2.014   1.009
    1CAL  Ca0en12769   5.251   2.522   0.089
    1CAL  Ca0eo12770   4.751   2.522   0.089
    1CAL  Ca0ep12771   5.001   1.815   0.396
    1CAL  Ca0eq12772   5.001   2.618   0.395
    1CAL  Ca0er12773   4.501   2.217   0.396
    1CAL  Ca0es12774   5.001   2.217   0.396
    1CAL  Ca0et12775   4.750   2.712   0.703
    1CAL  Ca0eu12776   4.251   1.718   0.089
    1CAL  Ca0ev12777   4.751   2.120   0.089
    1CAL  Ca0ew12778   5.251   2.120   0.089
    1CAL  Ca0ex12779   5.250   2.712   0.703
    1CAL  Ca0ey12780   5.251   3.113   0.704
    1CAL  Ca0ez12781   5.750   1.909   0.704
    1CAL  Ca0f012782   5.003   1.613   1.009
    1CAL  Ca0f112783   4.749   1.909   0.704
    1CAL  Ca0f212784   4.504   2.416   1.008
    1CAL  Ca0f312785   4.501   1.815   0.396
    1CAL  Ca0f412786   4.751   1.718   0.089
    1CAL  Ca0f512787   5.251   2.923   0.090
    1CAL  Ca0f612788   5.250   1.909   0.704
    1CAL  Ca0f712789   4.997   2.014   1.009
    1CAL  Ca0f812790   4.751   2.923   0.090
    1CAL  Ca0f912791   4.997   2.817   1.009
    1CAL  Ca0fA12792   4.251   2.923   0.090
    1CAL  Ca0fB12793   5.501   1.815   0.396
    1CAL  Ca0fC12794   5.504   2.416   1.008
    1CAL  Ca0fD12795   5.503   1.612   1.009
    1CAL  Ca0fE12796   4.751   2.311   0.704
    1CAL  Ca0fF12797   5.751   3.114   0.704
    1CAL  Ca0fG12798   5.251   2.311   0.704
    1CAL  Ca0fH12799   4.250   1.909   0.704
    1CAL  Ca0fI12800   6.001   2.618   0.395
    1CAL  C00fJ12801   6.001   3.123   1.317
    1CAL  C00fK12802   5.251   1.613   1.624
    1CAL  C00fL12803   4.251   1.613   1.624
    1CAL  C00fM12804   5.500   2.111   1.930
    1CAL  C00fN12805   5.500   2.914   1.930
    1CAL  C00fO12806   4.751   1.613   1.624
    1CAL  C00fP12807   5.001   2.321   1.317
    1CAL  C00fQ12808   5.251   2.818   1.621
    1CAL  C00fR12809   4.751   2.818   1.622
    1CAL  C00fS12810   4.501   2.513   1.931
    1CAL  C00fT12811   4.501   1.919   1.317
    1CAL  C00fU12812   5.001   2.723   1.317
    1CAL  C00fV12813   5.001   1.919   1.317
    1CAL  C00fW12814   4.251   2.016   1.624
    1CAL  C00fX12815   4.501   1.709   1.931
    1CAL  C00fY12816   5.001   2.513   1.930
    1CAL  C00fZ12817   5.751   1.613   1.624
    1CAL  C00fa12818   5.501   1.709   1.931
    1CAL  C00fb12819   4.251   2.418   1.624
    1CAL  C00fc12820   6.000   2.111   1.931
    1CAL  C00fd12821   6.001   2.513   1.930
    1CAL  C00fe12822   6.001   1.919   1.317
    1CAL  C00ff12823   6.001   2.723   1.317
    1CAL  C00fg12824   4.251   2.818   1.622
    1CAL  C00fh12825   4.500   2.111   1.930
    1CAL  C00fi12826   5.501   2.321   1.317
    1CAL  C00fj12827   6.001   2.321   1.317
    1CAL  C00fk12828   5.751   2.016   1.624
    1CAL  C00fl12829   5.251   2.016   1.624
    1CAL  C00fm12830   5.501   1.919   1.317
    1CAL  C00fn12831   5.501   2.513   1.930
    1CAL  C00fo12832   4.499   2.914   1.930
    1CAL  C00fp12833   5.501   3.123   1.317
    1CAL  C00fq12834   4.751   2.016   1.624
    1CAL  C00fr12835   5.251   2.418   1.624
    1CAL  C00fs12836   4.501   2.723   1.317
    1CAL  C00ft12837   5.751   2.818   1.621
    1CAL  C00fu12838   5.001   3.123   1.317
    1CAL  C00fv12839   6.000   2.914   1.931
    1CAL  C00fw12840   5.001   1.709   1.930
    1CAL  C00fx12841   5.000   2.914   1.930
    1CAL  C00fy12842   5.000   2.111   1.931
    1CAL  C00fz12843   5.751   2.418   1.624
    1CAL  C00g012844   4.501   3.123   1.317
    1CAL  C00g112845   5.501   2.723   1.317
    1CAL  C00g212846   4.501   2.321   1.317
    1CAL  C00g312847   4.751   2.418   1.624
    1CAL  C00g412848   6.001   1.709   1.931
    1CAL  C00g512849   4.752   2.209   2.241
    1CAL  C00g612850   4.748   1.808   2.241
    1CAL  C00g712851   4.748   2.611   2.240
    1CAL  C00g812852   4.752   3.012   2.241
    1CAL  C00g912853   5.752   2.209   2.241
    1CAL  C00gA12854   5.748   1.808   2.241
    1CAL  C00gB12855   5.752   3.012   2.241
    1CAL  C00gC12856   5.749   2.611   2.240
    1CAL  C00gD12857   5.252   3.012   2.241
    1CAL  C00gE12858   5.249   2.610   2.241
    1CAL  C00gF12859   5.252   2.209   2.241
    1CAL  C00gG12860   5.248   1.807   2.242
    1CAL  C00gH12861   4.252   3.012   2.242
    1CAL  C00gI12862   4.249   2.610   2.242
    1CAL  C00gJ12863   4.252   2.210   2.241
    1CAL  C00gK12864   4.248   1.807   2.243
    1CAL  O01zt12865   4.186   2.340   1.703
    1CAL  O01zu12866   5.187   2.497   1.545
    1CAL  O01zv12867   5.186   2.340   1.703
    1CAL  O01zw12868   5.380   2.418   1.625
    1CAL  O01zx12869   4.565   3.044   1.396
    1CAL  O01zy12870   4.372   3.124   1.316
    1CAL  O01zz12871   4.565   2.400   1.238
    1CAL  O020012872   4.687   2.497   1.545
    1CAL  O020112873   4.686   2.340   1.703
    1CAL  O020212874   4.880   2.418   1.625
    1CAL  O020312875   4.566   3.201   1.238
    1CAL  O020412876   4.565   2.243   1.396
    1CAL  O020512877   4.372   2.321   1.317
    1CAL  O020612878   5.129   2.913   1.931
    1CAL  O020712879   4.936   2.992   1.850
    1CAL  O020812880   4.937   2.190   1.850
    1CAL  O020912881   4.934   2.033   2.010
    1CAL  O020A12882   5.129   2.110   1.932
    1CAL  O020B12883   4.934   2.836   2.010
    1CAL  O020C12884   4.622   2.016   1.624
    1CAL  O020D12885   5.064   2.592   1.850
    1CAL  O020E12886   5.123   2.818   1.621
    1CAL  O020F12887   5.315   2.739   1.701
    1CAL  O020G12888   5.316   2.896   1.543
    1CAL  O020H12889   4.437   1.840   1.396
    1CAL  O020I12890   4.436   1.997   1.238
    1CAL  O020J12891   4.622   2.818   1.621
    1CAL  O020K12892   4.815   2.739   1.701
    1CAL  O020L12893   4.816   2.896   1.543
    1CAL  O020M12894   4.315   2.095   1.545
    1CAL  O020N12895   4.815   1.937   1.703
    1CAL  O020O12896   4.937   2.802   1.237
    1CAL  O020P12897   5.130   2.723   1.317
    1CAL  O020Q12898   4.315   1.937   1.704
    1CAL  O020R12899   4.122   2.016   1.624
    1CAL  O020S12900   4.815   2.095   1.545
    1CAL  O020T12901   4.937   1.998   1.237
    1CAL  O020U12902   4.937   1.840   1.396
    1CAL  O020V12903   5.130   1.919   1.317
    1CAL  O020W12904   4.871   2.512   1.931
    1CAL  O020X12905   5.067   2.435   2.009
    1CAL  O020Y12906   4.936   2.645   1.396
    1CAL  O020Z12907   5.687   2.497   1.545
    1CAL  O020a12908   5.686   2.340   1.703
    1CAL  O020b12909   5.880   2.418   1.625
    1CAL  O020c12910   5.935   2.835   2.010
    1CAL  O020d12911   5.937   2.190   1.851
    1CAL  O020e12912   5.935   2.032   2.010
    1CAL  O020f12913   4.129   2.913   1.932
    1CAL  O020g12914   4.065   1.788   1.851
    1CAL  O020h12915   5.437   2.802   1.237
    1CAL  O020i12916   5.436   2.645   1.396
    1CAL  O020j12917   5.630   2.723   1.317
    1CAL  O020k12918   4.066   1.631   2.011
    1CAL  O020l12919   5.435   2.836   2.010
    1CAL  O020m12920   4.066   3.201   1.238
    1CAL  O020n12921   4.065   3.044   1.396
    1CAL  O020o12922   4.872   3.124   1.316
    1CAL  O020p12923   5.872   2.512   1.932
    1CAL  O020q12924   5.937   1.840   1.396
    1CAL  O020r12925   5.065   1.788   1.851
    1CAL  O020s12926   4.437   2.802   1.237
    1CAL  O020t12927   4.436   2.645   1.396
    1CAL  O020u12928   4.630   2.723   1.317
    1CAL  O020v12929   5.066   1.630   2.010
    1CAL  O020w12930   4.434   2.836   2.010
    1CAL  O020x12931   4.872   1.709   1.931
    1CAL  O020y12932   5.873   2.321   1.317
    1CAL  O020z12933   5.066   3.201   1.238
    1CAL  O021012934   5.065   3.044   1.396
    1CAL  O021112935   5.623   2.818   1.621
    1CAL  O021212936   5.815   2.739   1.701
    1CAL  O021312937   5.816   2.896   1.542
    1CAL  O021412938   5.938   2.802   1.237
    1CAL  O021512939   5.936   2.645   1.396
    1CAL  O021612940   5.937   1.998   1.237
    1CAL  O021712941   4.630   1.919   1.316
    1CAL  O021812942   4.380   2.418   1.625
    1CAL  O021912943   4.371   2.512   1.934
    1CAL  O021A12944   5.066   2.243   1.396
    1CAL  O021B12945   5.565   3.044   1.396
    1CAL  O021C12946   5.566   3.201   1.238
    1CAL  O021D12947   5.623   2.016   1.624
    1CAL  O021E12948   5.816   1.937   1.703
    1CAL  O021F12949   5.373   3.124   1.316
    1CAL  O021G12950   5.122   2.016   1.624
    1CAL  O021H12951   5.315   2.095   1.545
    1CAL  O021I12952   4.629   2.913   1.931
    1CAL  O021J12953   5.437   1.997   1.238
    1CAL  O021K12954   5.437   1.840   1.396
    1CAL  O021L12955   5.630   1.919   1.316
    1CAL  O021M12956   5.372   2.512   1.933
    1CAL  O021N12957   5.567   2.435   2.009
    1CAL  O021O12958   5.316   1.937   1.703
    1CAL  O021P12959   5.564   2.593   1.850
    1CAL  O021Q12960   4.066   2.243   1.396
    1CAL  O021R12961   5.566   2.243   1.396
    1CAL  O021S12962   4.187   2.497   1.545
    1CAL  O021T12963   4.064   2.593   1.850
    1CAL  O021U12964   4.066   2.435   2.010
    1CAL  O021V12965   4.129   2.110   1.932
    1CAL  O021W12966   4.130   1.919   1.317
    1CAL  O021X12967   4.129   2.723   1.317
    1CAL  O021Y12968   5.565   2.400   1.238
    1CAL  O021Z12969   4.316   2.896   1.543
    1CAL  O021a12970   5.873   3.124   1.316
    1CAL  O021b12971   5.872   1.709   1.932
    1CAL  O021c12972   4.122   2.818   1.621
    1CAL  O021d12973   5.936   2.992   1.850
    1CAL  O021e12974   4.065   2.400   1.238
    1CAL  O021f12975   5.373   2.321   1.317
    1CAL  O021g12976   4.315   2.739   1.701
    1CAL  O021h12977   4.435   2.993   1.850
    1CAL  O021i12978   4.629   2.110   1.931
    1CAL  O021j12979   5.372   1.708   1.933
    1CAL  O021k12980   5.437   2.190   1.850
    1CAL  O021l12981   5.435   2.033   2.010
    1CAL  O021m12982   5.630   2.110   1.931
    1CAL  O021n12983   4.880   1.613   1.624
    1CAL  O021o12984   4.687   3.141   1.703
    1CAL  O021p12985   5.435   2.992   1.850
    1CAL  O021q12986   5.629   2.913   1.930
    1CAL  O021r12987   4.687   1.692   1.545
    1CAL  O021s12988   4.564   1.788   1.851
    1CAL  O021t12989   4.567   1.631   2.010
    1CAL  O021u12990   4.371   1.709   1.933
    1CAL  O021v12991   4.563   2.593   1.850
    1CAL  O021w12992   4.568   2.435   2.010
    1CAL  O021x12993   4.872   2.321   1.317
    1CAL  O021y12994   5.567   1.630   2.010
    1CAL  O021z12995   5.565   1.788   1.851
    1CAL  O022012996   4.434   2.033   2.010
    1CAL  O022112997   4.436   2.191   1.851
    1CAL  O022212998   5.687   1.692   1.545
    1CAL  O022312999   5.687   3.141   1.703
    1CAL  O022413000   5.880   1.613   1.624
    1CAL  O022513001   4.380   1.614   1.624
    1CAL  O022613002   4.187   3.141   1.703
    1CAL  O022713003   4.186   1.692   1.545
    1CAL  O022813004   5.187   1.692   1.545
    1CAL  O022913005   5.187   3.141   1.703
    1CAL  O022A13006   5.380   1.614   1.624
    1CAL  O022B13007   5.065   2.400   1.238
    1CAL  O022C13008   5.816   2.095   1.545
    1CAL  O022D13009   4.821   3.086   2.159
    1CAL  O022E13010   4.812   2.934   2.325
    1CAL  O022F13011   4.622   3.018   2.239
    1CAL  O022G13012   4.679   2.685   2.158
    1CAL  O022H13013   4.688   2.534   2.324
    1CAL  O022I13014   4.878   2.616   2.237
    1CAL  O022J13015   4.878   1.813   2.238
    1CAL  O022K13016   4.688   1.730   2.325
    1CAL  O022L13017   4.679   1.881   2.159
    1CAL  O022M13018   4.622   2.215   2.238
    1CAL  O022N13019   4.812   2.131   2.324
    1CAL  O022O13020   4.821   2.283   2.159
    1CAL  O022P13021   5.680   2.685   2.158
    1CAL  O022Q13022   5.878   2.616   2.238
    1CAL  O022R13023   5.688   2.533   2.324
    1CAL  O022S13024   5.623   3.017   2.238
    1CAL  O022T13025   5.812   2.934   2.324
    1CAL  O022U13026   5.821   3.086   2.159
    1CAL  O022V13027   5.679   1.881   2.159
    1CAL  O022W13028   5.878   1.813   2.238
    1CAL  O022X13029   5.688   1.730   2.325
    1CAL  O022Y13030   5.622   2.214   2.238
    1CAL  O022Z13031   5.812   2.131   2.324
    1CAL  O022a13032   5.821   2.283   2.159
    1CAL  O022b13033   5.312   2.934   2.325
    1CAL  O022c13034   5.122   3.017   2.239
    1CAL  O022d13035   5.321   3.085   2.159
    1CAL  O022e13036   5.180   2.684   2.159
    1CAL  O022f13037   5.189   2.532   2.325
    1CAL  O022g13038   5.379   2.616   2.239
    1CAL  O022h13039   5.312   2.131   2.325
    1CAL  O022i13040   5.321   2.282   2.159
    1CAL  O022j13041   5.122   2.215   2.238
    1CAL  O022k13042   5.180   1.881   2.160
    1CAL  O022l13043   5.188   1.729   2.325
    1CAL  O022m13044   5.378   1.813   2.240
    1CAL  O022n13045   4.311   2.934   2.326
    1CAL  O022o13046   4.122   3.018   2.239
    1CAL  O022p13047   4.321   3.085   2.160
    1CAL  O022q13048   4.180   2.684   2.160
    1CAL  O022r13049   4.189   2.532   2.325
    1CAL  O022s13050   4.379   2.616   2.241
    1CAL  O022t13051   4.311   2.132   2.326
    1CAL  O022u13052   4.122   2.215   2.238
    1CAL  O022v13053   4.321   2.283   2.159
    1CAL  O022w13054   4.378   1.813   2.241
    1CAL  O022x13055   4.188   1.729   2.326
    1CAL  O022y13056   4.180   1.881   2.161
    1CAL  Ca0fJ13057   5.003   2.416   2.236
    1CAL  Ca0fK13058   5.751   2.120   1.317
    1CAL  Ca0fL13059   5.497   2.817   2.237
    1CAL  Ca0fM13060   4.003   2.416   2.237
    1CAL  Ca0fN13061   4.751   3.113   1.932
    1CAL  Ca0fO13062   5.751   2.522   1.317
    1CAL  Ca0fP13063   5.501   2.217   1.624
    1CAL  Ca0fQ13064   5.501   3.019   1.624
    1CAL  Ca0fR13065   4.250   2.712   1.931
    1CAL  Ca0fS13066   5.001   3.019   1.624
    1CAL  Ca0fT13067   4.503   1.613   2.237
    1CAL  Ca0fU13068   4.251   2.120   1.317
    1CAL  Ca0fV13069   4.251   2.311   1.932
    1CAL  Ca0fW13070   5.998   2.014   2.237
    1CAL  Ca0fX13071   5.998   2.817   2.237
    1CAL  Ca0fY13072   5.750   2.712   1.930
    1CAL  Ca0fZ13073   5.251   1.718   1.317
    1CAL  Ca0fa13074   6.001   3.019   1.624
    1CAL  Ca0fb13075   5.751   1.718   1.317
    1CAL  Ca0fc13076   4.496   2.015   2.237
    1CAL  Ca0fd13077   4.003   1.613   2.238
    1CAL  Ca0fe13078   5.752   2.311   1.932
    1CAL  Ca0ff13079   4.251   2.522   1.317
    1CAL  Ca0fg13080   6.001   2.217   1.624
    1CAL  Ca0fh13081   5.501   2.618   1.623
    1CAL  Ca0fi13082   4.251   3.114   1.932
    1CAL  Ca0fj13083   5.751   2.923   1.318
    1CAL  Ca0fk13084   4.501   2.618   1.623
    1CAL  Ca0fl13085   4.497   2.818   2.237
    1CAL  Ca0fm13086   6.001   1.815   1.624
    1CAL  Ca0fn13087   4.501   3.019   1.624
    1CAL  Ca0fo13088   5.497   2.014   2.237
    1CAL  Ca0fp13089   5.251   2.522   1.317
    1CAL  Ca0fq13090   4.751   2.522   1.317
    1CAL  Ca0fr13091   5.001   1.815   1.624
    1CAL  Ca0fs13092   5.001   2.618   1.623
    1CAL  Ca0ft13093   4.501   2.217   1.624
    1CAL  Ca0fu13094   5.001   2.217   1.624
    1CAL  Ca0fv13095   4.750   2.712   1.931
    1CAL  Ca0fw13096   4.251   1.718   1.317
    1CAL  Ca0fx13097   4.751   2.120   1.317
    1CAL  Ca0fy13098   5.251   2.120   1.317
    1CAL  Ca0fz13099   5.250   2.712   1.931
    1CAL  Ca0g013100   5.251   3.113   1.932
    1CAL  Ca0g113101   5.750   1.909   1.932
    1CAL  Ca0g213102   5.003   1.613   2.237
    1CAL  Ca0g313103   4.749   1.909   1.932
    1CAL  Ca0g413104   4.504   2.416   2.236
    1CAL  Ca0g513105   4.501   1.815   1.624
    1CAL  Ca0g613106   4.751   1.718   1.317
    1CAL  Ca0g713107   5.251   2.923   1.318
    1CAL  Ca0g813108   5.250   1.909   1.932
    1CAL  Ca0g913109   4.997   2.014   2.237
    1CAL  Ca0gA13110   4.751   2.923   1.318
    1CAL  Ca0gB13111   4.997   2.817   2.237
    1CAL  Ca0gC13112   4.251   2.923   1.318
    1CAL  Ca0gD13113   5.501   1.815   1.624
    1CAL  Ca0gE13114   5.504   2.416   2.236
    1CAL  Ca0gF13115   5.503   1.612   2.237
    1CAL  Ca0gG13116   4.751   2.311   1.932
    1CAL  Ca0gH13117   5.751   3.114   1.932
    1CAL  Ca0gI13118   5.251   2.311   1.932
    1CAL  Ca0gJ13119   4.250   1.909   1.932
    1CAL  Ca0gK13120   6.001   2.618   1.623
    1CAL  C00gL13121   6.001   3.123   2.545
    1CAL  C00gM13122   5.251   1.613   2.852
    1CAL  C00gN13123   4.251   1.613   2.852
    1CAL  C00gO13124   5.500   2.111   3.158
    1CAL  C00gP13125   5.500   2.914   3.158
    1CAL  C00gQ13126   4.751   1.613   2.852
    1CAL  C00gR13127   5.001   2.321   2.545
    1CAL  C00gS13128   5.251   2.818   2.849
    1CAL  C00gT13129   4.751   2.818   2.850
    1CAL  C00gU13130   4.501   2.513   3.159
    1CAL  C00gV13131   4.501   1.919   2.545
    1CAL  C00gW13132   5.001   2.723   2.545
    1CAL  C00gX13133   5.001   1.919   2.545
    1CAL  C00gY13134   4.251   2.016   2.852
    1CAL  C00gZ13135   4.501   1.709   3.159
    1CAL  C00ga13136   5.001   2.513   3.158
    1CAL  C00gb13137   5.751   1.613   2.852
    1CAL  C00gc13138   5.501   1.709   3.159
    1CAL  C00gd13139   4.251   2.418   2.852
    1CAL  C00ge13140   6.000   2.111   3.159
    1CAL  C00gf13141   6.001   2.513   3.158
    1CAL  C00gg13142   6.001   1.919   2.545
    1CAL  C00gh13143   6.001   2.723   2.545
    1CAL  C00gi13144   4.251   2.818   2.850
    1CAL  C00gj13145   4.500   2.111   3.158
    1CAL  C00gk13146   5.501   2.321   2.545
    1CAL  C00gl13147   6.001   2.321   2.545
    1CAL  C00gm13148   5.751   2.016   2.852
    1CAL  C00gn13149   5.251   2.016   2.852
    1CAL  C00go13150   5.501   1.919   2.545
    1CAL  C00gp13151   5.501   2.513   3.158
    1CAL  C00gq13152   4.499   2.914   3.158
    1CAL  C00gr13153   5.501   3.123   2.545
    1CAL  C00gs13154   4.751   2.016   2.852
    1CAL  C00gt13155   5.251   2.418   2.852
    1CAL  C00gu13156   4.501   2.723   2.545
    1CAL  C00gv13157   5.751   2.818   2.849
    1CAL  C00gw13158   5.001   3.123   2.545
    1CAL  C00gx13159   6.000   2.914   3.159
    1CAL  C00gy13160   5.001   1.709   3.158
    1CAL  C00gz13161   5.000   2.914   3.158
    1CAL  C00h013162   5.000   2.111   3.159
    1CAL  C00h113163   5.751   2.418   2.852
    1CAL  C00h213164   4.501   3.123   2.545
    1CAL  C00h313165   5.501   2.723   2.545
    1CAL  C00h413166   4.501   2.321   2.545
    1CAL  C00h513167   4.751   2.418   2.852
    1CAL  C00h613168   6.001   1.709   3.159
    1CAL  C00h713169   4.752   2.209   3.469
    1CAL  C00h813170   4.748   1.808   3.469
    1CAL  C00h913171   4.748   2.611   3.468
    1CAL  C00hA13172   4.752   3.012   3.469
    1CAL  C00hB13173   5.752   2.209   3.469
    1CAL  C00hC13174   5.748   1.808   3.469
    1CAL  C00hD13175   5.752   3.012   3.469
    1CAL  C00hE13176   5.749   2.611   3.468
    1CAL  C00hF13177   5.252   3.012   3.469
    1CAL  C00hG13178   5.249   2.610   3.469
    1CAL  C00hH13179   5.252   2.209   3.469
    1CAL  C00hI13180   5.248   1.807   3.470
    1CAL  C00hJ13181   4.252   3.012   3.470
    1CAL  C00hK13182   4.249   2.610   3.470
    1CAL  C00hL13183   4.252   2.210   3.469
    1CAL  C00hM13184   4.248   1.807   3.471
    1CAL  O022z13185   4.186   2.340   2.931
    1CAL  O023013186   5.187   2.497   2.773
    1CAL  O023113187   5.186   2.340   2.931
    1CAL  O023213188   5.380   2.418   2.853
    1CAL  O023313189   4.565   3.044   2.624
    1CAL  O023413190   4.372   3.124   2.544
    1CAL  O023513191   4.565   2.400   2.466
    1CAL  O023613192   4.687   2.497   2.773
    1CAL  O023713193   4.686   2.340   2.931
    1CAL  O023813194   4.880   2.418   2.853
    1CAL  O023913195   4.566   3.201   2.466
    1CAL  O023A13196   4.565   2.243   2.624
    1CAL  O023B13197   4.372   2.321   2.545
    1CAL  O023C13198   5.129   2.913   3.159
    1CAL  O023D13199   4.936   2.992   3.078
    1CAL  O023E13200   4.937   2.190   3.078
    1CAL  O023F13201   4.934   2.033   3.238
    1CAL  O023G13202   5.129   2.110   3.160
    1CAL  O023H13203   4.934   2.836   3.238
    1CAL  O023I13204   4.622   2.016   2.852
    1CAL  O023J13205   5.064   2.592   3.078
    1CAL  O023K13206   5.123   2.818   2.849
    1CAL  O023L13207   5.315   2.739   2.929
    1CAL  O023M13208   5.316   2.896   2.771
    1CAL  O023N13209   4.437   1.840   2.624
    1CAL  O023O13210   4.436   1.997   2.466
    1CAL  O023P13211   4.622   2.818   2.849
    1CAL  O023Q13212   4.815   2.739   2.929
    1CAL  O023R13213   4.816   2.896   2.771
    1CAL  O023S13214   4.315   2.095   2.773
    1CAL  O023T13215   4.815   1.937   2.931
    1CAL  O023U13216   4.937   2.802   2.465
    1CAL  O023V13217   5.130   2.723   2.545
    1CAL  O023W13218   4.315   1.937   2.932
    1CAL  O023X13219   4.122   2.016   2.852
    1CAL  O023Y13220   4.815   2.095   2.773
    1CAL  O023Z13221   4.937   1.998   2.465
    1CAL  O023a13222   4.937   1.840   2.624
    1CAL  O023b13223   5.130   1.919   2.545
    1CAL  O023c13224   4.871   2.512   3.159
    1CAL  O023d13225   5.067   2.435   3.237
    1CAL  O023e13226   4.936   2.645   2.624
    1CAL  O023f13227   5.687   2.497   2.773
    1CAL  O023g13228   5.686   2.340   2.931
    1CAL  O023h13229   5.880   2.418   2.853
    1CAL  O023i13230   5.935   2.835   3.238
    1CAL  O023j13231   5.937   2.190   3.079
    1CAL  O023k13232   5.935   2.032   3.238
    1CAL  O023l13233   4.129   2.913   3.160
    1CAL  O023m13234   4.065   1.788   3.079
    1CAL  O023n13235   5.437   2.802   2.465
    1CAL  O023o13236   5.436   2.645   2.624
    1CAL  O023p13237   5.630   2.723   2.545
    1CAL  O023q13238   4.066   1.631   3.239
    1CAL  O023r13239   5.435   2.836   3.238
    1CAL  O023s13240   4.066   3.201   2.466
    1CAL  O023t13241   4.065   3.044   2.624
    1CAL  O023u13242   4.872   3.124   2.544
    1CAL  O023v13243   5.872   2.512   3.160
    1CAL  O023w13244   5.937   1.840   2.624
    1CAL  O023x13245   5.065   1.788   3.079
    1CAL  O023y13246   4.437   2.802   2.465
    1CAL  O023z13247   4.436   2.645   2.624
    1CAL  O024013248   4.630   2.723   2.545
    1CAL  O024113249   5.066   1.630   3.238
    1CAL  O024213250   4.434   2.836   3.238
    1CAL  O024313251   4.872   1.709   3.159
    1CAL  O024413252   5.873   2.321   2.545
    1CAL  O024513253   5.066   3.201   2.466
    1CAL  O024613254   5.065   3.044   2.624
    1CAL  O024713255   5.623   2.818   2.849
    1CAL  O024813256   5.815   2.739   2.929
    1CAL  O024913257   5.816   2.896   2.770
    1CAL  O024A13258   5.938   2.802   2.465
    1CAL  O024B13259   5.936   2.645   2.624
    1CAL  O024C13260   5.937   1.998   2.465
    1CAL  O024D13261   4.630   1.919   2.544
    1CAL  O024E13262   4.380   2.418   2.853
    1CAL  O024F13263   4.371   2.512   3.162
    1CAL  O024G13264   5.066   2.243   2.624
    1CAL  O024H13265   5.565   3.044   2.624
    1CAL  O024I13266   5.566   3.201   2.466
    1CAL  O024J13267   5.623   2.016   2.852
    1CAL  O024K13268   5.816   1.937   2.931
    1CAL  O024L13269   5.373   3.124   2.544
    1CAL  O024M13270   5.122   2.016   2.852
    1CAL  O024N13271   5.315   2.095   2.773
    1CAL  O024O13272   4.629   2.913   3.159
    1CAL  O024P13273   5.437   1.997   2.466
    1CAL  O024Q13274   5.437   1.840   2.624
    1CAL  O024R13275   5.630   1.919   2.544
    1CAL  O024S13276   5.372   2.512   3.161
    1CAL  O024T13277   5.567   2.435   3.237
    1CAL  O024U13278   5.316   1.937   2.931
    1CAL  O024V13279   5.564   2.593   3.078
    1CAL  O024W13280   4.066   2.243   2.624
    1CAL  O024X13281   5.566   2.243   2.624
    1CAL  O024Y13282   4.187   2.497   2.773
    1CAL  O024Z13283   4.064   2.593   3.078
    1CAL  O024a13284   4.066   2.435   3.238
    1CAL  O024b13285   4.129   2.110   3.160
    1CAL  O024c13286   4.130   1.919   2.545
    1CAL  O024d13287   4.129   2.723   2.545
    1CAL  O024e13288   5.565   2.400   2.466
    1CAL  O024f13289   4.316   2.896   2.771
    1CAL  O024g13290   5.873   3.124   2.544
    1CAL  O024h13291   5.872   1.709   3.160
    1CAL  O024i13292   4.122   2.818   2.849
    1CAL  O024j13293   5.936   2.992   3.078
    1CAL  O024k13294   4.065   2.400   2.466
    1CAL  O024l13295   5.373   2.321   2.545
    1CAL  O024m13296   4.315   2.739   2.929
    1CAL  O024n13297   4.435   2.993   3.078
    1CAL  O024o13298   4.629   2.110   3.159
    1CAL  O024p13299   5.372   1.708   3.161
    1CAL  O024q13300   5.437   2.190   3.078
    1CAL  O024r13301   5.435   2.033   3.238
    1CAL  O024s13302   5.630   2.110   3.159
    1CAL  O024t13303   4.880   1.613   2.852
    1CAL  O024u13304   4.687   3.141   2.931
    1CAL  O024v13305   5.435   2.992   3.078
    1CAL  O024w13306   5.629   2.913   3.158
    1CAL  O024x13307   4.687   1.692   2.773
    1CAL  O024y13308   4.564   1.788   3.079
    1CAL  O024z13309   4.567   1.631   3.238
    1CAL  O025013310   4.371   1.709   3.161
    1CAL  O025113311   4.563   2.593   3.078
    1CAL  O025213312   4.568   2.435   3.238
    1CAL  O025313313   4.872   2.321   2.545
    1CAL  O025413314   5.567   1.630   3.238
    1CAL  O025513315   5.565   1.788   3.079
    1CAL  O025613316   4.434   2.033   3.238
    1CAL  O025713317   4.436   2.191   3.079
    1CAL  O025813318   5.687   1.692   2.773
    1CAL  O025913319   5.687   3.141   2.931
    1CAL  O025A13320   5.880   1.613   2.852
    1CAL  O025B13321   4.380   1.614   2.852
    1CAL  O025C13322   4.187   3.141   2.931
    1CAL  O025D13323   4.186   1.692   2.773
    1CAL  O025E13324   5.187   1.692   2.773
    1CAL  O025F13325   5.187   3.141   2.931
    1CAL  O025G13326   5.380   1.614   2.852
    1CAL  O025H13327   5.065   2.400   2.466
    1CAL  O025I13328   5.816   2.095   2.773
    1CAL  O025J13329   4.821   3.086   3.387
    1CAL  O025K13330   4.812   2.934   3.553
    1CAL  O025L13331   4.622   3.018   3.467
    1CAL  O025M13332   4.679   2.685   3.386
    1CAL  O025N13333   4.688   2.534   3.552
    1CAL  O025O13334   4.878   2.616   3.465
    1CAL  O025P13335   4.878   1.813   3.466
    1CAL  O025Q13336   4.688   1.730   3.553
    1CAL  O025R13337   4.679   1.881   3.387
    1CAL  O025S13338   4.622   2.215   3.466
    1CAL  O025T13339   4.812   2.131   3.552
    1CAL  O025U13340   4.821   2.283   3.387
    1CAL  O025V13341   5.680   2.685   3.386
    1CAL  O025W13342   5.878   2.616   3.466
    1CAL  O025X13343   5.688   2.533   3.552
    1CAL  O025Y13344   5.623   3.017   3.466
    1CAL  O025Z13345   5.812   2.934   3.552
    1CAL  O025a13346   5.821   3.086   3.387
    1CAL  O025b13347   5.679   1.881   3.387
    1CAL  O025c13348   5.878   1.813   3.466
    1CAL  O025d13349   5.688   1.730   3.553
    1CAL  O025e13350   5.622   2.214   3.466
    1CAL  O025f13351   5.812   2.131   3.552
    1CAL  O025g13352   5.821   2.283   3.387
    1CAL  O025h13353   5.312   2.934   3.553
    1CAL  O025i13354   5.122   3.017   3.467
    1CAL  O025j13355   5.321   3.085   3.387
    1CAL  O025k13356   5.180   2.684   3.387
    1CAL  O025l13357   5.189   2.532   3.553
    1CAL  O025m13358   5.379   2.616   3.467
    1CAL  O025n13359   5.312   2.131   3.553
    1CAL  O025o13360   5.321   2.282   3.387
    1CAL  O025p13361   5.122   2.215   3.466
    1CAL  O025q13362   5.180   1.881   3.388
    1CAL  O025r13363   5.188   1.729   3.553
    1CAL  O025s13364   5.378   1.813   3.468
    1CAL  O025t13365   4.311   2.934   3.554
    1CAL  O025u13366   4.122   3.018   3.467
    1CAL  O025v13367   4.321   3.085   3.388
    1CAL  O025w13368   4.180   2.684   3.388
    1CAL  O025x13369   4.189   2.532   3.553
    1CAL  O025y13370   4.379   2.616   3.469
    1CAL  O025z13371   4.311   2.132   3.554
    1CAL  O026013372   4.122   2.215   3.466
    1CAL  O026113373   4.321   2.283   3.387
    1CAL  O026213374   4.378   1.813   3.469
    1CAL  O026313375   4.188   1.729   3.554
    1CAL  O026413376   4.180   1.881   3.389
    1CAL  Ca0gL13377   5.003   2.416   3.464
    1CAL  Ca0gM13378   5.751   2.120   2.545
    1CAL  Ca0gN13379   5.497   2.817   3.465
    1CAL  Ca0gO13380   4.003   2.416   3.465
    1CAL  Ca0gP13381   4.751   3.113   3.160
    1CAL  Ca0gQ13382   5.751   2.522   2.545
    1CAL  Ca0gR13383   5.501   2.217   2.852
    1CAL  Ca0gS13384   5.501   3.019   2.852
    1CAL  Ca0gT13385   4.250   2.712   3.159
    1CAL  Ca0gU13386   5.001   3.019   2.852
    1CAL  Ca0gV13387   4.503   1.613   3.465
    1CAL  Ca0gW13388   4.251   2.120   2.545
    1CAL  Ca0gX13389   4.251   2.311   3.160
    1CAL  Ca0gY13390   5.998   2.014   3.465
    1CAL  Ca0gZ13391   5.998   2.817   3.465
    1CAL  Ca0ga13392   5.750   2.712   3.158
    1CAL  Ca0gb13393   5.251   1.718   2.545
    1CAL  Ca0gc13394   6.001   3.019   2.852
    1CAL  Ca0gd13395   5.751   1.718   2.545
    1CAL  Ca0ge13396   4.496   2.015   3.465
    1CAL  Ca0gf13397   4.003   1.613   3.466
    1CAL  Ca0gg13398   5.752   2.311   3.160
    1CAL  Ca0gh13399   4.251   2.522   2.545
    1CAL  Ca0gi13400   6.001   2.217   2.852
    1CAL  Ca0gj13401   5.501   2.618   2.851
    1CAL  Ca0gk13402   4.251   3.114   3.160
    1CAL  Ca0gl13403   5.751   2.923   2.546
    1CAL  Ca0gm13404   4.501   2.618   2.851
    1CAL  Ca0gn13405   4.497   2.818   3.465
    1CAL  Ca0go13406   6.001   1.815   2.852
    1CAL  Ca0gp13407   4.501   3.019   2.852
    1CAL  Ca0gq13408   5.497   2.014   3.465
    1CAL  Ca0gr13409   5.251   2.522   2.545
    1CAL  Ca0gs13410   4.751   2.522   2.545
    1CAL  Ca0gt13411   5.001   1.815   2.852
    1CAL  Ca0gu13412   5.001   2.618   2.851
    1CAL  Ca0gv13413   4.501   2.217   2.852
    1CAL  Ca0gw13414   5.001   2.217   2.852
    1CAL  Ca0gx13415   4.750   2.712   3.159
    1CAL  Ca0gy13416   4.251   1.718   2.545
    1CAL  Ca0gz13417   4.751   2.120   2.545
    1CAL  Ca0h013418   5.251   2.120   2.545
    1CAL  Ca0h113419   5.250   2.712   3.159
    1CAL  Ca0h213420   5.251   3.113   3.160
    1CAL  Ca0h313421   5.750   1.909   3.160
    1CAL  Ca0h413422   5.003   1.613   3.465
    1CAL  Ca0h513423   4.749   1.909   3.160
    1CAL  Ca0h613424   4.504   2.416   3.464
    1CAL  Ca0h713425   4.501   1.815   2.852
    1CAL  Ca0h813426   4.751   1.718   2.545
    1CAL  Ca0h913427   5.251   2.923   2.546
    1CAL  Ca0hA13428   5.250   1.909   3.160
    1CAL  Ca0hB13429   4.997   2.014   3.465
    1CAL  Ca0hC13430   4.751   2.923   2.546
    1CAL  Ca0hD13431   4.997   2.817   3.465
    1CAL  Ca0hE13432   4.251   2.923   2.546
    1CAL  Ca0hF13433   5.501   1.815   2.852
    1CAL  Ca0hG13434   5.504   2.416   3.464
    1CAL  Ca0hH13435   5.503   1.612   3.465
    1CAL  Ca0hI13436   4.751   2.311   3.160
    1CAL  Ca0hJ13437   5.751   3.114   3.160
    1CAL  Ca0hK13438   5.251   2.311   3.160
    1CAL  Ca0hL13439   4.250   1.909   3.160
    1CAL  Ca0hM13440   6.001   2.618   2.851
    1CAL  C00hN13441   6.001   4.730   0.089
    1CAL  C00hO13442   5.251   3.220   0.396
    1CAL  C00hP13443   4.251   3.220   0.396
    1CAL  C00hQ13444   5.500   3.718   0.702
    1CAL  C00hR13445   5.500   4.521   0.702
    1CAL  C00hS13446   4.751   3.220   0.396
    1CAL  C00hT13447   5.001   3.928   0.089
    1CAL  C00hU13448   5.251   4.425   0.393
    1CAL  C00hV13449   4.751   4.425   0.394
    1CAL  C00hW13450   4.501   4.120   0.703
    1CAL  C00hX13451   4.501   3.526   0.089
    1CAL  C00hY13452   5.001   4.330   0.089
    1CAL  C00hZ13453   5.001   3.526   0.089
    1CAL  C00ha13454   4.251   3.623   0.396
    1CAL  C00hb13455   4.501   3.316   0.703
    1CAL  C00hc13456   5.001   4.120   0.702
    1CAL  C00hd13457   5.751   3.220   0.396
    1CAL  C00he13458   5.501   3.316   0.703
    1CAL  C00hf13459   4.251   4.025   0.396
    1CAL  C00hg13460   6.000   3.718   0.703
    1CAL  C00hh13461   6.001   4.120   0.702
    1CAL  C00hi13462   6.001   3.526   0.089
    1CAL  C00hj13463   6.001   4.330   0.089
    1CAL  C00hk13464   4.251   4.425   0.394
    1CAL  C00hl13465   4.500   3.718   0.702
    1CAL  C00hm13466   5.501   3.928   0.089
    1CAL  C00hn13467   6.001   3.928   0.089
    1CAL  C00ho13468   5.751   3.623   0.396
    1CAL  C00hp13469   5.251   3.623   0.396
    1CAL  C00hq13470   5.501   3.526   0.089
    1CAL  C00hr13471   5.501   4.120   0.702
    1CAL  C00hs13472   4.499   4.521   0.702
    1CAL  C00ht13473   5.501   4.730   0.089
    1CAL  C00hu13474   4.751   3.623   0.396
    1CAL  C00hv13475   5.251   4.025   0.396
    1CAL  C00hw13476   4.501   4.330   0.089
    1CAL  C00hx13477   5.751   4.425   0.393
    1CAL  C00hy13478   5.001   4.730   0.089
    1CAL  C00hz13479   6.000   4.521   0.703
    1CAL  C00i013480   5.001   3.316   0.702
    1CAL  C00i113481   5.000   4.521   0.702
    1CAL  C00i213482   5.000   3.718   0.703
    1CAL  C00i313483   5.751   4.025   0.396
    1CAL  C00i413484   4.501   4.730   0.089
    1CAL  C00i513485   5.501   4.330   0.089
    1CAL  C00i613486   4.501   3.928   0.089
    1CAL  C00i713487   4.751   4.025   0.396
    1CAL  C00i813488   6.001   3.316   0.703
    1CAL  C00i913489   4.752   3.816   1.013
    1CAL  C00iA13490   4.748   3.415   1.013
    1CAL  C00iB13491   4.748   4.218   1.012
    1CAL  C00iC13492   4.752   4.619   1.013
    1CAL  C00iD13493   5.752   3.816   1.013
    1CAL  C00iE13494   5.748   3.415   1.013
    1CAL  C00iF13495   5.752   4.619   1.013
    1CAL  C00iG13496   5.749   4.218   1.012
    1CAL  C00iH13497   5.252   4.619   1.013
    1CAL  C00iI13498   5.249   4.217   1.013
    1CAL  C00iJ13499   5.252   3.816   1.013
    1CAL  C00iK13500   5.248   3.414   1.014
    1CAL  C00iL13501   4.252   4.619   1.014
    1CAL  C00iM13502   4.249   4.217   1.014
    1CAL  C00iN13503   4.252   3.817   1.013
    1CAL  C00iO13504   4.248   3.414   1.015
    1CAL  O026513505   4.186   3.947   0.475
    1CAL  O026613506   5.187   4.104   0.317
    1CAL  O026713507   5.186   3.947   0.475
    1CAL  O026813508   5.380   4.025   0.397
    1CAL  O026913509   4.565   4.651   0.168
    1CAL  O026A13510   4.372   4.731   0.088
    1CAL  O026B13511   4.565   4.007   0.010
    1CAL  O026C13512   4.687   4.104   0.317
    1CAL  O026D13513   4.686   3.947   0.475
    1CAL  O026E13514   4.880   4.025   0.397
    1CAL  O026F13515   4.566   4.808   0.010
    1CAL  O026G13516   4.565   3.850   0.168
    1CAL  O026H13517   4.372   3.928   0.089
    1CAL  O026I13518   5.129   4.520   0.703
    1CAL  O026J13519   4.936   4.599   0.622
    1CAL  O026K13520   4.937   3.797   0.622
    1CAL  O026L13521   4.934   3.640   0.782
    1CAL  O026M13522   5.129   3.717   0.704
    1CAL  O026N13523   4.934   4.443   0.782
    1CAL  O026O13524   4.622   3.623   0.396
    1CAL  O026P13525   5.064   4.199   0.622
    1CAL  O026Q13526   5.123   4.425   0.393
    1CAL  O026R13527   5.315   4.346   0.473
    1CAL  O026S13528   5.316   4.503   0.315
    1CAL  O026T13529   4.437   3.447   0.168
    1CAL  O026U13530   4.436   3.604   0.010
    1CAL  O026V13531   4.622   4.425   0.393
    1CAL  O026W13532   4.815   4.346   0.473
    1CAL  O026X13533   4.816   4.503   0.315
    1CAL  O026Y13534   4.315   3.702   0.317
    1CAL  O026Z13535   4.815   3.544   0.475
    1CAL  O026a13536   4.937   4.409   0.009
    1CAL  O026b13537   5.130   4.330   0.089
    1CAL  O026c13538   4.315   3.544   0.476
    1CAL  O026d13539   4.122   3.623   0.396
    1CAL  O026e13540   4.815   3.702   0.317
    1CAL  O026f13541   4.937   3.605   0.009
    1CAL  O026g13542   4.937   3.447   0.168
    1CAL  O026h13543   5.130   3.526   0.089
    1CAL  O026i13544   4.871   4.119   0.703
    1CAL  O026j13545   5.067   4.042   0.781
    1CAL  O026k13546   4.936   4.252   0.168
    1CAL  O026l13547   5.687   4.104   0.317
    1CAL  O026m13548   5.686   3.947   0.475
    1CAL  O026n13549   5.880   4.025   0.397
    1CAL  O026o13550   5.935   4.442   0.782
    1CAL  O026p13551   5.937   3.797   0.623
    1CAL  O026q13552   5.935   3.639   0.782
    1CAL  O026r13553   4.129   4.520   0.704
    1CAL  O026s13554   4.065   3.395   0.623
    1CAL  O026t13555   5.437   4.409   0.009
    1CAL  O026u13556   5.436   4.252   0.168
    1CAL  O026v13557   5.630   4.330   0.089
    1CAL  O026w13558   4.066   3.238   0.783
    1CAL  O026x13559   5.435   4.443   0.782
    1CAL  O026y13560   4.066   4.808   0.010
    1CAL  O026z13561   4.065   4.651   0.168
    1CAL  O027013562   4.872   4.731   0.088
    1CAL  O027113563   5.872   4.119   0.704
    1CAL  O027213564   5.937   3.447   0.168
    1CAL  O027313565   5.065   3.395   0.623
    1CAL  O027413566   4.437   4.409   0.009
    1CAL  O027513567   4.436   4.252   0.168
    1CAL  O027613568   4.630   4.330   0.089
    1CAL  O027713569   5.066   3.237   0.782
    1CAL  O027813570   4.434   4.443   0.782
    1CAL  O027913571   4.872   3.316   0.703
    1CAL  O027A13572   5.873   3.928   0.089
    1CAL  O027B13573   5.066   4.808   0.010
    1CAL  O027C13574   5.065   4.651   0.168
    1CAL  O027D13575   5.623   4.425   0.393
    1CAL  O027E13576   5.815   4.346   0.473
    1CAL  O027F13577   5.816   4.503   0.314
    1CAL  O027G13578   5.938   4.409   0.009
    1CAL  O027H13579   5.936   4.252   0.168
    1CAL  O027I13580   5.937   3.605   0.009
    1CAL  O027J13581   4.630   3.526   0.088
    1CAL  O027K13582   4.380   4.025   0.397
    1CAL  O027L13583   4.371   4.119   0.706
    1CAL  O027M13584   5.066   3.850   0.168
    1CAL  O027N13585   5.565   4.651   0.168
    1CAL  O027O13586   5.566   4.808   0.010
    1CAL  O027P13587   5.623   3.623   0.396
    1CAL  O027Q13588   5.816   3.544   0.475
    1CAL  O027R13589   5.373   4.731   0.088
    1CAL  O027S13590   5.122   3.623   0.396
    1CAL  O027T13591   5.315   3.702   0.317
    1CAL  O027U13592   4.629   4.520   0.703
    1CAL  O027V13593   5.437   3.604   0.010
    1CAL  O027W13594   5.437   3.447   0.168
    1CAL  O027X13595   5.630   3.526   0.088
    1CAL  O027Y13596   5.372   4.119   0.705
    1CAL  O027Z13597   5.567   4.042   0.781
    1CAL  O027a13598   5.316   3.544   0.475
    1CAL  O027b13599   5.564   4.200   0.622
    1CAL  O027c13600   4.066   3.850   0.168
    1CAL  O027d13601   5.566   3.850   0.168
    1CAL  O027e13602   4.187   4.104   0.317
    1CAL  O027f13603   4.064   4.200   0.622
    1CAL  O027g13604   4.066   4.042   0.782
    1CAL  O027h13605   4.129   3.717   0.704
    1CAL  O027i13606   4.130   3.526   0.089
    1CAL  O027j13607   4.129   4.330   0.089
    1CAL  O027k13608   5.565   4.007   0.010
    1CAL  O027l13609   4.316   4.503   0.315
    1CAL  O027m13610   5.873   4.731   0.088
    1CAL  O027n13611   5.872   3.316   0.704
    1CAL  O027o13612   4.122   4.425   0.393
    1CAL  O027p13613   5.936   4.599   0.622
    1CAL  O027q13614   4.065   4.007   0.010
    1CAL  O027r13615   5.373   3.928   0.089
    1CAL  O027s13616   4.315   4.346   0.473
    1CAL  O027t13617   4.435   4.600   0.622
    1CAL  O027u13618   4.629   3.717   0.703
    1CAL  O027v13619   5.372   3.315   0.705
    1CAL  O027w13620   5.437   3.797   0.622
    1CAL  O027x13621   5.435   3.640   0.782
    1CAL  O027y13622   5.630   3.717   0.703
    1CAL  O027z13623   4.880   3.220   0.396
    1CAL  O028013624   4.687   4.748   0.475
    1CAL  O028113625   5.435   4.599   0.622
    1CAL  O028213626   5.629   4.520   0.702
    1CAL  O028313627   4.687   3.299   0.317
    1CAL  O028413628   4.564   3.395   0.623
    1CAL  O028513629   4.567   3.238   0.782
    1CAL  O028613630   4.371   3.316   0.705
    1CAL  O028713631   4.563   4.200   0.622
    1CAL  O028813632   4.568   4.042   0.782
    1CAL  O028913633   4.872   3.928   0.089
    1CAL  O028A13634   5.567   3.237   0.782
    1CAL  O028B13635   5.565   3.395   0.623
    1CAL  O028C13636   4.434   3.640   0.782
    1CAL  O028D13637   4.436   3.798   0.623
    1CAL  O028E13638   5.687   3.299   0.317
    1CAL  O028F13639   5.687   4.748   0.475
    1CAL  O028G13640   5.880   3.220   0.396
    1CAL  O028H13641   4.380   3.221   0.396
    1CAL  O028I13642   4.187   4.748   0.475
    1CAL  O028J13643   4.186   3.299   0.317
    1CAL  O028K13644   5.187   3.299   0.317
    1CAL  O028L13645   5.187   4.748   0.475
    1CAL  O028M13646   5.380   3.221   0.396
    1CAL  O028N13647   5.065   4.007   0.010
    1CAL  O028O13648   5.816   3.702   0.317
    1CAL  O028P13649   4.821   4.693   0.931
    1CAL  O028Q13650   4.812   4.541   1.097
    1CAL  O028R13651   4.622   4.625   1.011
    1CAL  O028S13652   4.679   4.292   0.930
    1CAL  O028T13653   4.688   4.141   1.096
    1CAL  O028U13654   4.878   4.223   1.009
    1CAL  O028V13655   4.878   3.420   1.010
    1CAL  O028W13656   4.688   3.337   1.097
    1CAL  O028X13657   4.679   3.488   0.931
    1CAL  O028Y13658   4.622   3.822   1.010
    1CAL  O028Z13659   4.812   3.738   1.096
    1CAL  O028a13660   4.821   3.890   0.931
    1CAL  O028b13661   5.680   4.292   0.930
    1CAL  O028c13662   5.878   4.223   1.010
    1CAL  O028d13663   5.688   4.140   1.096
    1CAL  O028e13664   5.623   4.624   1.010
    1CAL  O028f13665   5.812   4.541   1.096
    1CAL  O028g13666   5.821   4.693   0.931
    1CAL  O028h13667   5.679   3.488   0.931
    1CAL  O028i13668   5.878   3.420   1.010
    1CAL  O028j13669   5.688   3.337   1.097
    1CAL  O028k13670   5.622   3.821   1.010
    1CAL  O028l13671   5.812   3.738   1.096
    1CAL  O028m13672   5.821   3.890   0.931
    1CAL  O028n13673   5.312   4.541   1.097
    1CAL  O028o13674   5.122   4.624   1.011
    1CAL  O028p13675   5.321   4.692   0.931
    1CAL  O028q13676   5.180   4.291   0.931
    1CAL  O028r13677   5.189   4.139   1.097
    1CAL  O028s13678   5.379   4.223   1.011
    1CAL  O028t13679   5.312   3.738   1.097
    1CAL  O028u13680   5.321   3.889   0.931
    1CAL  O028v13681   5.122   3.822   1.010
    1CAL  O028w13682   5.180   3.488   0.932
    1CAL  O028x13683   5.188   3.336   1.097
    1CAL  O028y13684   5.378   3.420   1.012
    1CAL  O028z13685   4.311   4.541   1.098
    1CAL  O029013686   4.122   4.625   1.011
    1CAL  O029113687   4.321   4.692   0.932
    1CAL  O029213688   4.180   4.291   0.932
    1CAL  O029313689   4.189   4.139   1.097
    1CAL  O029413690   4.379   4.223   1.013
    1CAL  O029513691   4.311   3.739   1.098
    1CAL  O029613692   4.122   3.822   1.010
    1CAL  O029713693   4.321   3.890   0.931
    1CAL  O029813694   4.378   3.420   1.013
    1CAL  O029913695   4.188   3.336   1.098
    1CAL  O029A13696   4.180   3.488   0.933
    1CAL  Ca0hN13697   5.003   4.023   1.008
    1CAL  Ca0hO13698   5.751   3.727   0.089
    1CAL  Ca0hP13699   5.497   4.424   1.009
    1CAL  Ca0hQ13700   4.003   4.023   1.009
    1CAL  Ca0hR13701   4.751   4.720   0.704
    1CAL  Ca0hS13702   5.751   4.129   0.089
    1CAL  Ca0hT13703   5.501   3.824   0.396
    1CAL  Ca0hU13704   5.501   4.626   0.396
    1CAL  Ca0hV13705   4.250   4.319   0.703
    1CAL  Ca0hW13706   5.001   4.626   0.396
    1CAL  Ca0hX13707   4.503   3.220   1.009
    1CAL  Ca0hY13708   4.251   3.727   0.089
    1CAL  Ca0hZ13709   4.251   3.918   0.704
    1CAL  Ca0ha13710   5.998   3.621   1.009
    1CAL  Ca0hb13711   5.998   4.424   1.009
    1CAL  Ca0hc13712   5.750   4.319   0.702
    1CAL  Ca0hd13713   5.251   3.325   0.089
    1CAL  Ca0he13714   6.001   4.626   0.396
    1CAL  Ca0hf13715   5.751   3.325   0.089
    1CAL  Ca0hg13716   4.496   3.622   1.009
    1CAL  Ca0hh13717   4.003   3.220   1.010
    1CAL  Ca0hi13718   5.752   3.918   0.704
    1CAL  Ca0hj13719   4.251   4.129   0.089
    1CAL  Ca0hk13720   6.001   3.824   0.396
    1CAL  Ca0hl13721   5.501   4.225   0.395
    1CAL  Ca0hm13722   4.251   4.721   0.704
    1CAL  Ca0hn13723   5.751   4.530   0.090
    1CAL  Ca0ho13724   4.501   4.225   0.395
    1CAL  Ca0hp13725   4.497   4.425   1.009
    1CAL  Ca0hq13726   6.001   3.422   0.396
    1CAL  Ca0hr13727   4.501   4.626   0.396
    1CAL  Ca0hs13728   5.497   3.621   1.009
    1CAL  Ca0ht13729   5.251   4.129   0.089
    1CAL  Ca0hu13730   4.751   4.129   0.089
    1CAL  Ca0hv13731   5.001   3.422   0.396
    1CAL  Ca0hw13732   5.001   4.225   0.395
    1CAL  Ca0hx13733   4.501   3.824   0.396
    1CAL  Ca0hy13734   5.001   3.824   0.396
    1CAL  Ca0hz13735   4.750   4.319   0.703
    1CAL  Ca0i013736   4.251   3.325   0.089
    1CAL  Ca0i113737   4.751   3.727   0.089
    1CAL  Ca0i213738   5.251   3.727   0.089
    1CAL  Ca0i313739   5.250   4.319   0.703
    1CAL  Ca0i413740   5.251   4.720   0.704
    1CAL  Ca0i513741   5.750   3.516   0.704
    1CAL  Ca0i613742   5.003   3.220   1.009
    1CAL  Ca0i713743   4.749   3.516   0.704
    1CAL  Ca0i813744   4.504   4.023   1.008
    1CAL  Ca0i913745   4.501   3.422   0.396
    1CAL  Ca0iA13746   4.751   3.325   0.089
    1CAL  Ca0iB13747   5.251   4.530   0.090
    1CAL  Ca0iC13748   5.250   3.516   0.704
    1CAL  Ca0iD13749   4.997   3.621   1.009
    1CAL  Ca0iE13750   4.751   4.530   0.090
    1CAL  Ca0iF13751   4.997   4.424   1.009
    1CAL  Ca0iG13752   4.251   4.530   0.090
    1CAL  Ca0iH13753   5.501   3.422   0.396
    1CAL  Ca0iI13754   5.504   4.023   1.008
    1CAL  Ca0iJ13755   5.503   3.219   1.009
    1CAL  Ca0iK13756   4.751   3.918   0.704
    1CAL  Ca0iL13757   5.751   4.721   0.704
    1CAL  Ca0iM13758   5.251   3.918   0.704
    1CAL  Ca0iN13759   4.250   3.516   0.704
    1CAL  Ca0iO13760   6.001   4.225   0.395
    1CAL  C00iP13761   6.001   4.730   1.317
    1CAL  C00iQ13762   5.251   3.220   1.624
    1CAL  C00iR13763   4.251   3.220   1.624
    1CAL  C00iS13764   5.500   3.718   1.930
    1CAL  C00iT13765   5.500   4.521   1.930
    1CAL  C00iU13766   4.751   3.220   1.624
    1CAL  C00iV13767   5.001   3.928   1.317
    1CAL  C00iW13768   5.251   4.425   1.621
    1CAL  C00iX13769   4.751   4.425   1.622
    1CAL  C00iY13770   4.501   4.120   1.931
    1CAL  C00iZ13771   4.501   3.526   1.317
    1CAL  C00ia13772   5.001   4.330   1.317
    1CAL  C00ib13773   5.001   3.526   1.317
    1CAL  C00ic13774   4.251   3.623   1.624
    1CAL  C00id13775   4.501   3.316   1.931
    1CAL  C00ie13776   5.001   4.120   1.930
    1CAL  C00if13777   5.751   3.220   1.624
    1CAL  C00ig13778   5.501   3.316   1.931
    1CAL  C00ih13779   4.251   4.025   1.624
    1CAL  C00ii13780   6.000   3.718   1.931
    1CAL  C00ij13781   6.001   4.120   1.930
    1CAL  C00ik13782   6.001   3.526   1.317
    1CAL  C00il13783   6.001   4.330   1.317
    1CAL  C00im13784   4.251   4.425   1.622
    1CAL  C00in13785   4.500   3.718   1.930
    1CAL  C00io13786   5.501   3.928   1.317
    1CAL  C00ip13787   6.001   3.928   1.317
    1CAL  C00iq13788   5.751   3.623   1.624
    1CAL  C00ir13789   5.251   3.623   1.624
    1CAL  C00is13790   5.501   3.526   1.317
    1CAL  C00it13791   5.501   4.120   1.930
    1CAL  C00iu13792   4.499   4.521   1.930
    1CAL  C00iv13793   5.501   4.730   1.317
    1CAL  C00iw13794   4.751   3.623   1.624
    1CAL  C00ix13795   5.251   4.025   1.624
    1CAL  C00iy13796   4.501   4.330   1.317
    1CAL  C00iz13797   5.751   4.425   1.621
    1CAL  C00j013798   5.001   4.730   1.317
    1CAL  C00j113799   6.000   4.521   1.931
    1CAL  C00j213800   5.001   3.316   1.930
    1CAL  C00j313801   5.000   4.521   1.930
    1CAL  C00j413802   5.000   3.718   1.931
    1CAL  C00j513803   5.751   4.025   1.624
    1CAL  C00j613804   4.501   4.730   1.317
    1CAL  C00j713805   5.501   4.330   1.317
    1CAL  C00j813806   4.501   3.928   1.317
    1CAL  C00j913807   4.751   4.025   1.624
    1CAL  C00jA13808   6.001   3.316   1.931
    1CAL  C00jB13809   4.752   3.816   2.241
    1CAL  C00jC13810   4.748   3.415   2.241
    1CAL  C00jD13811   4.748   4.218   2.240
    1CAL  C00jE13812   4.752   4.619   2.241
    1CAL  C00jF13813   5.752   3.816   2.241
    1CAL  C00jG13814   5.748   3.415   2.241
    1CAL  C00jH13815   5.752   4.619   2.241
    1CAL  C00jI13816   5.749   4.218   2.240
    1CAL  C00jJ13817   5.252   4.619   2.241
    1CAL  C00jK13818   5.249   4.217   2.241
    1CAL  C00jL13819   5.252   3.816   2.241
    1CAL  C00jM13820   5.248   3.414   2.242
    1CAL  C00jN13821   4.252   4.619   2.242
    1CAL  C00jO13822   4.249   4.217   2.242
    1CAL  C00jP13823   4.252   3.817   2.241
    1CAL  C00jQ13824   4.248   3.414   2.243
    1CAL  O029B13825   4.186   3.947   1.703
    1CAL  O029C13826   5.187   4.104   1.545
    1CAL  O029D13827   5.186   3.947   1.703
    1CAL  O029E13828   5.380   4.025   1.625
    1CAL  O029F13829   4.565   4.651   1.396
    1CAL  O029G13830   4.372   4.731   1.316
    1CAL  O029H13831   4.565   4.007   1.238
    1CAL  O029I13832   4.687   4.104   1.545
    1CAL  O029J13833   4.686   3.947   1.703
    1CAL  O029K13834   4.880   4.025   1.625
    1CAL  O029L13835   4.566   4.808   1.238
    1CAL  O029M13836   4.565   3.850   1.396
    1CAL  O029N13837   4.372   3.928   1.317
    1CAL  O029O13838   5.129   4.520   1.931
    1CAL  O029P13839   4.936   4.599   1.850
    1CAL  O029Q13840   4.937   3.797   1.850
    1CAL  O029R13841   4.934   3.640   2.010
    1CAL  O029S13842   5.129   3.717   1.932
    1CAL  O029T13843   4.934   4.443   2.010
    1CAL  O029U13844   4.622   3.623   1.624
    1CAL  O029V13845   5.064   4.199   1.850
    1CAL  O029W13846   5.123   4.425   1.621
    1CAL  O029X13847   5.315   4.346   1.701
    1CAL  O029Y13848   5.316   4.503   1.543
    1CAL  O029Z13849   4.437   3.447   1.396
    1CAL  O029a13850   4.436   3.604   1.238
    1CAL  O029b13851   4.622   4.425   1.621
    1CAL  O029c13852   4.815   4.346   1.701
    1CAL  O029d13853   4.816   4.503   1.543
    1CAL  O029e13854   4.315   3.702   1.545
    1CAL  O029f13855   4.815   3.544   1.703
    1CAL  O029g13856   4.937   4.409   1.237
    1CAL  O029h13857   5.130   4.330   1.317
    1CAL  O029i13858   4.315   3.544   1.704
    1CAL  O029j13859   4.122   3.623   1.624
    1CAL  O029k13860   4.815   3.702   1.545
    1CAL  O029l13861   4.937   3.605   1.237
    1CAL  O029m13862   4.937   3.447   1.396
    1CAL  O029n13863   5.130   3.526   1.317
    1CAL  O029o13864   4.871   4.119   1.931
    1CAL  O029p13865   5.067   4.042   2.009
    1CAL  O029q13866   4.936   4.252   1.396
    1CAL  O029r13867   5.687   4.104   1.545
    1CAL  O029s13868   5.686   3.947   1.703
    1CAL  O029t13869   5.880   4.025   1.625
    1CAL  O029u13870   5.935   4.442   2.010
    1CAL  O029v13871   5.937   3.797   1.851
    1CAL  O029w13872   5.935   3.639   2.010
    1CAL  O029x13873   4.129   4.520   1.932
    1CAL  O029y13874   4.065   3.395   1.851
    1CAL  O029z13875   5.437   4.409   1.237
    1CAL  O02A013876   5.436   4.252   1.396
    1CAL  O02A113877   5.630   4.330   1.317
    1CAL  O02A213878   4.066   3.238   2.011
    1CAL  O02A313879   5.435   4.443   2.010
    1CAL  O02A413880   4.066   4.808   1.238
    1CAL  O02A513881   4.065   4.651   1.396
    1CAL  O02A613882   4.872   4.731   1.316
    1CAL  O02A713883   5.872   4.119   1.932
    1CAL  O02A813884   5.937   3.447   1.396
    1CAL  O02A913885   5.065   3.395   1.851
    1CAL  O02AA13886   4.437   4.409   1.237
    1CAL  O02AB13887   4.436   4.252   1.396
    1CAL  O02AC13888   4.630   4.330   1.317
    1CAL  O02AD13889   5.066   3.237   2.010
    1CAL  O02AE13890   4.434   4.443   2.010
    1CAL  O02AF13891   4.872   3.316   1.931
    1CAL  O02AG13892   5.873   3.928   1.317
    1CAL  O02AH13893   5.066   4.808   1.238
    1CAL  O02AI13894   5.065   4.651   1.396
    1CAL  O02AJ13895   5.623   4.425   1.621
    1CAL  O02AK13896   5.815   4.346   1.701
    1CAL  O02AL13897   5.816   4.503   1.542
    1CAL  O02AM13898   5.938   4.409   1.237
    1CAL  O02AN13899   5.936   4.252   1.396
    1CAL  O02AO13900   5.937   3.605   1.237
    1CAL  O02AP13901   4.630   3.526   1.316
    1CAL  O02AQ13902   4.380   4.025   1.625
    1CAL  O02AR13903   4.371   4.119   1.934
    1CAL  O02AS13904   5.066   3.850   1.396
    1CAL  O02AT13905   5.565   4.651   1.396
    1CAL  O02AU13906   5.566   4.808   1.238
    1CAL  O02AV13907   5.623   3.623   1.624
    1CAL  O02AW13908   5.816   3.544   1.703
    1CAL  O02AX13909   5.373   4.731   1.316
    1CAL  O02AY13910   5.122   3.623   1.624
    1CAL  O02AZ13911   5.315   3.702   1.545
    1CAL  O02Aa13912   4.629   4.520   1.931
    1CAL  O02Ab13913   5.437   3.604   1.238
    1CAL  O02Ac13914   5.437   3.447   1.396
    1CAL  O02Ad13915   5.630   3.526   1.316
    1CAL  O02Ae13916   5.372   4.119   1.933
    1CAL  O02Af13917   5.567   4.042   2.009
    1CAL  O02Ag13918   5.316   3.544   1.703
    1CAL  O02Ah13919   5.564   4.200   1.850
    1CAL  O02Ai13920   4.066   3.850   1.396
    1CAL  O02Aj13921   5.566   3.850   1.396
    1CAL  O02Ak13922   4.187   4.104   1.545
    1CAL  O02Al13923   4.064   4.200   1.850
    1CAL  O02Am13924   4.066   4.042   2.010
    1CAL  O02An13925   4.129   3.717   1.932
    1CAL  O02Ao13926   4.130   3.526   1.317
    1CAL  O02Ap13927   4.129   4.330   1.317
    1CAL  O02Aq13928   5.565   4.007   1.238
    1CAL  O02Ar13929   4.316   4.503   1.543
    1CAL  O02As13930   5.873   4.731   1.316
    1CAL  O02At13931   5.872   3.316   1.932
    1CAL  O02Au13932   4.122   4.425   1.621
    1CAL  O02Av13933   5.936   4.599   1.850
    1CAL  O02Aw13934   4.065   4.007   1.238
    1CAL  O02Ax13935   5.373   3.928   1.317
    1CAL  O02Ay13936   4.315   4.346   1.701
    1CAL  O02Az13937   4.435   4.600   1.850
    1CAL  O02B013938   4.629   3.717   1.931
    1CAL  O02B113939   5.372   3.315   1.933
    1CAL  O02B213940   5.437   3.797   1.850
    1CAL  O02B313941   5.435   3.640   2.010
    1CAL  O02B413942   5.630   3.717   1.931
    1CAL  O02B513943   4.880   3.220   1.624
    1CAL  O02B613944   4.687   4.748   1.703
    1CAL  O02B713945   5.435   4.599   1.850
    1CAL  O02B813946   5.629   4.520   1.930
    1CAL  O02B913947   4.687   3.299   1.545
    1CAL  O02BA13948   4.564   3.395   1.851
    1CAL  O02BB13949   4.567   3.238   2.010
    1CAL  O02BC13950   4.371   3.316   1.933
    1CAL  O02BD13951   4.563   4.200   1.850
    1CAL  O02BE13952   4.568   4.042   2.010
    1CAL  O02BF13953   4.872   3.928   1.317
    1CAL  O02BG13954   5.567   3.237   2.010
    1CAL  O02BH13955   5.565   3.395   1.851
    1CAL  O02BI13956   4.434   3.640   2.010
    1CAL  O02BJ13957   4.436   3.798   1.851
    1CAL  O02BK13958   5.687   3.299   1.545
    1CAL  O02BL13959   5.687   4.748   1.703
    1CAL  O02BM13960   5.880   3.220   1.624
    1CAL  O02BN13961   4.380   3.221   1.624
    1CAL  O02BO13962   4.187   4.748   1.703
    1CAL  O02BP13963   4.186   3.299   1.545
    1CAL  O02BQ13964   5.187   3.299   1.545
    1CAL  O02BR13965   5.187   4.748   1.703
    1CAL  O02BS13966   5.380   3.221   1.624
    1CAL  O02BT13967   5.065   4.007   1.238
    1CAL  O02BU13968   5.816   3.702   1.545
    1CAL  O02BV13969   4.821   4.693   2.159
    1CAL  O02BW13970   4.812   4.541   2.325
    1CAL  O02BX13971   4.622   4.625   2.239
    1CAL  O02BY13972   4.679   4.292   2.158
    1CAL  O02BZ13973   4.688   4.141   2.324
    1CAL  O02Ba13974   4.878   4.223   2.237
    1CAL  O02Bb13975   4.878   3.420   2.238
    1CAL  O02Bc13976   4.688   3.337   2.325
    1CAL  O02Bd13977   4.679   3.488   2.159
    1CAL  O02Be13978   4.622   3.822   2.238
    1CAL  O02Bf13979   4.812   3.738   2.324
    1CAL  O02Bg13980   4.821   3.890   2.159
    1CAL  O02Bh13981   5.680   4.292   2.158
    1CAL  O02Bi13982   5.878   4.223   2.238
    1CAL  O02Bj13983   5.688   4.140   2.324
    1CAL  O02Bk13984   5.623   4.624   2.238
    1CAL  O02Bl13985   5.812   4.541   2.324
    1CAL  O02Bm13986   5.821   4.693   2.159
    1CAL  O02Bn13987   5.679   3.488   2.159
    1CAL  O02Bo13988   5.878   3.420   2.238
    1CAL  O02Bp13989   5.688   3.337   2.325
    1CAL  O02Bq13990   5.622   3.821   2.238
    1CAL  O02Br13991   5.812   3.738   2.324
    1CAL  O02Bs13992   5.821   3.890   2.159
    1CAL  O02Bt13993   5.312   4.541   2.325
    1CAL  O02Bu13994   5.122   4.624   2.239
    1CAL  O02Bv13995   5.321   4.692   2.159
    1CAL  O02Bw13996   5.180   4.291   2.159
    1CAL  O02Bx13997   5.189   4.139   2.325
    1CAL  O02By13998   5.379   4.223   2.239
    1CAL  O02Bz13999   5.312   3.738   2.325
    1CAL  O02C014000   5.321   3.889   2.159
    1CAL  O02C114001   5.122   3.822   2.238
    1CAL  O02C214002   5.180   3.488   2.160
    1CAL  O02C314003   5.188   3.336   2.325
    1CAL  O02C414004   5.378   3.420   2.240
    1CAL  O02C514005   4.311   4.541   2.326
    1CAL  O02C614006   4.122   4.625   2.239
    1CAL  O02C714007   4.321   4.692   2.160
    1CAL  O02C814008   4.180   4.291   2.160
    1CAL  O02C914009   4.189   4.139   2.325
    1CAL  O02CA14010   4.379   4.223   2.241
    1CAL  O02CB14011   4.311   3.739   2.326
    1CAL  O02CC14012   4.122   3.822   2.238
    1CAL  O02CD14013   4.321   3.890   2.159
    1CAL  O02CE14014   4.378   3.420   2.241
    1CAL  O02CF14015   4.188   3.336   2.326
    1CAL  O02CG14016   4.180   3.488   2.161
    1CAL  Ca0iP14017   5.003   4.023   2.236
    1CAL  Ca0iQ14018   5.751   3.727   1.317
    1CAL  Ca0iR14019   5.497   4.424   2.237
    1CAL  Ca0iS14020   4.003   4.023   2.237
    1CAL  Ca0iT14021   4.751   4.720   1.932
    1CAL  Ca0iU14022   5.751   4.129   1.317
    1CAL  Ca0iV14023   5.501   3.824   1.624
    1CAL  Ca0iW14024   5.501   4.626   1.624
    1CAL  Ca0iX14025   4.250   4.319   1.931
    1CAL  Ca0iY14026   5.001   4.626   1.624
    1CAL  Ca0iZ14027   4.503   3.220   2.237
    1CAL  Ca0ia14028   4.251   3.727   1.317
    1CAL  Ca0ib14029   4.251   3.918   1.932
    1CAL  Ca0ic14030   5.998   3.621   2.237
    1CAL  Ca0id14031   5.998   4.424   2.237
    1CAL  Ca0ie14032   5.750   4.319   1.930
    1CAL  Ca0if14033   5.251   3.325   1.317
    1CAL  Ca0ig14034   6.001   4.626   1.624
    1CAL  Ca0ih14035   5.751   3.325   1.317
    1CAL  Ca0ii14036   4.496   3.622   2.237
    1CAL  Ca0ij14037   4.003   3.220   2.238
    1CAL  Ca0ik14038   5.752   3.918   1.932
    1CAL  Ca0il14039   4.251   4.129   1.317
    1CAL  Ca0im14040   6.001   3.824   1.624
    1CAL  Ca0in14041   5.501   4.225   1.623
    1CAL  Ca0io14042   4.251   4.721   1.932
    1CAL  Ca0ip14043   5.751   4.530   1.318
    1CAL  Ca0iq14044   4.501   4.225   1.623
    1CAL  Ca0ir14045   4.497   4.425   2.237
    1CAL  Ca0is14046   6.001   3.422   1.624
    1CAL  Ca0it14047   4.501   4.626   1.624
    1CAL  Ca0iu14048   5.497   3.621   2.237
    1CAL  Ca0iv14049   5.251   4.129   1.317
    1CAL  Ca0iw14050   4.751   4.129   1.317
    1CAL  Ca0ix14051   5.001   3.422   1.624
    1CAL  Ca0iy14052   5.001   4.225   1.623
    1CAL  Ca0iz14053   4.501   3.824   1.624
    1CAL  Ca0j014054   5.001   3.824   1.624
    1CAL  Ca0j114055   4.750   4.319   1.931
    1CAL  Ca0j214056   4.251   3.325   1.317
    1CAL  Ca0j314057   4.751   3.727   1.317
    1CAL  Ca0j414058   5.251   3.727   1.317
    1CAL  Ca0j514059   5.250   4.319   1.931
    1CAL  Ca0j614060   5.251   4.720   1.932
    1CAL  Ca0j714061   5.750   3.516   1.932
    1CAL  Ca0j814062   5.003   3.220   2.237
    1CAL  Ca0j914063   4.749   3.516   1.932
    1CAL  Ca0jA14064   4.504   4.023   2.236
    1CAL  Ca0jB14065   4.501   3.422   1.624
    1CAL  Ca0jC14066   4.751   3.325   1.317
    1CAL  Ca0jD14067   5.251   4.530   1.318
    1CAL  Ca0jE14068   5.250   3.516   1.932
    1CAL  Ca0jF14069   4.997   3.621   2.237
    1CAL  Ca0jG14070   4.751   4.530   1.318
    1CAL  Ca0jH14071   4.997   4.424   2.237
    1CAL  Ca0jI14072   4.251   4.530   1.318
    1CAL  Ca0jJ14073   5.501   3.422   1.624
    1CAL  Ca0jK14074   5.504   4.023   2.236
    1CAL  Ca0jL14075   5.503   3.219   2.237
    1CAL  Ca0jM14076   4.751   3.918   1.932
    1CAL  Ca0jN14077   5.751   4.721   1.932
    1CAL  Ca0jO14078   5.251   3.918   1.932
    1CAL  Ca0jP14079   4.250   3.516   1.932
    1CAL  Ca0jQ14080   6.001   4.225   1.623
    1CAL  C00jR14081   6.001   4.730   2.545
    1CAL  C00jS14082   5.251   3.220   2.852
    1CAL  C00jT14083   4.251   3.220   2.852
    1CAL  C00jU14084   5.500   3.718   3.158
    1CAL  C00jV14085   5.500   4.521   3.158
    1CAL  C00jW14086   4.751   3.220   2.852
    1CAL  C00jX14087   5.001   3.928   2.545
    1CAL  C00jY14088   5.251   4.425   2.849
    1CAL  C00jZ14089   4.751   4.425   2.850
    1CAL  C00ja14090   4.501   4.120   3.159
    1CAL  C00jb14091   4.501   3.526   2.545
    1CAL  C00jc14092   5.001   4.330   2.545
    1CAL  C00jd14093   5.001   3.526   2.545
    1CAL  C00je14094   4.251   3.623   2.852
    1CAL  C00jf14095   4.501   3.316   3.159
    1CAL  C00jg14096   5.001   4.120   3.158
    1CAL  C00jh14097   5.751   3.220   2.852
    1CAL  C00ji14098   5.501   3.316   3.159
    1CAL  C00jj14099   4.251   4.025   2.852
    1CAL  C00jk14100   6.000   3.718   3.159
    1CAL  C00jl14101   6.001   4.120   3.158
    1CAL  C00jm14102   6.001   3.526   2.545
    1CAL  C00jn14103   6.001   4.330   2.545
    1CAL  C00jo14104   4.251   4.425   2.850
    1CAL  C00jp14105   4.500   3.718   3.158
    1CAL  C00jq14106   5.501   3.928   2.545
    1CAL  C00jr14107   6.001   3.928   2.545
    1CAL  C00js14108   5.751   3.623   2.852
    1CAL  C00jt14109   5.251   3.623   2.852
    1CAL  C00ju14110   5.501   3.526   2.545
    1CAL  C00jv14111   5.501   4.120   3.158
    1CAL  C00jw14112   4.499   4.521   3.158
    1CAL  C00jx14113   5.501   4.730   2.545
    1CAL  C00jy14114   4.751   3.623   2.852
    1CAL  C00jz14115   5.251   4.025   2.852
    1CAL  C00k014116   4.501   4.330   2.545
    1CAL  C00k114117   5.751   4.425   2.849
    1CAL  C00k214118   5.001   4.730   2.545
    1CAL  C00k314119   6.000   4.521   3.159
    1CAL  C00k414120   5.001   3.316   3.158
    1CAL  C00k514121   5.000   4.521   3.158
    1CAL  C00k614122   5.000   3.718   3.159
    1CAL  C00k714123   5.751   4.025   2.852
    1CAL  C00k814124   4.501   4.730   2.545
    1CAL  C00k914125   5.501   4.330   2.545
    1CAL  C00kA14126   4.501   3.928   2.545
    1CAL  C00kB14127   4.751   4.025   2.852
    1CAL  C00kC14128   6.001   3.316   3.159
    1CAL  C00kD14129   4.752   3.816   3.469
    1CAL  C00kE14130   4.748   3.415   3.469
    1CAL  C00kF14131   4.748   4.218   3.468
    1CAL  C00kG14132   4.752   4.619   3.469
    1CAL  C00kH14133   5.752   3.816   3.469
    1CAL  C00kI14134   5.748   3.415   3.469
    1CAL  C00kJ14135   5.752   4.619   3.469
    1CAL  C00kK14136   5.749   4.218   3.468
    1CAL  C00kL14137   5.252   4.619   3.469
    1CAL  C00kM14138   5.249   4.217   3.469
    1CAL  C00kN14139   5.252   3.816   3.469
    1CAL  C00kO14140   5.248   3.414   3.470
    1CAL  C00kP14141   4.252   4.619   3.470
    1CAL  C00kQ14142   4.249   4.217   3.470
    1CAL  C00kR14143   4.252   3.817   3.469
    1CAL  C00kS14144   4.248   3.414   3.471
    1CAL  O02CH14145   4.186   3.947   2.931
    1CAL  O02CI14146   5.187   4.104   2.773
    1CAL  O02CJ14147   5.186   3.947   2.931
    1CAL  O02CK14148   5.380   4.025   2.853
    1CAL  O02CL14149   4.565   4.651   2.624
    1CAL  O02CM14150   4.372   4.731   2.544
    1CAL  O02CN14151   4.565   4.007   2.466
    1CAL  O02CO14152   4.687   4.104   2.773
    1CAL  O02CP14153   4.686   3.947   2.931
    1CAL  O02CQ14154   4.880   4.025   2.853
    1CAL  O02CR14155   4.566   4.808   2.466
    1CAL  O02CS14156   4.565   3.850   2.624
    1CAL  O02CT14157   4.372   3.928   2.545
    1CAL  O02CU14158   5.129   4.520   3.159
    1CAL  O02CV14159   4.936   4.599   3.078
    1CAL  O02CW14160   4.937   3.797   3.078
    1CAL  O02CX14161   4.934   3.640   3.238
    1CAL  O02CY14162   5.129   3.717   3.160
    1CAL  O02CZ14163   4.934   4.443   3.238
    1CAL  O02Ca14164   4.622   3.623   2.852
    1CAL  O02Cb14165   5.064   4.199   3.078
    1CAL  O02Cc14166   5.123   4.425   2.849
    1CAL  O02Cd14167   5.315   4.346   2.929
    1CAL  O02Ce14168   5.316   4.503   2.771
    1CAL  O02Cf14169   4.437   3.447   2.624
    1CAL  O02Cg14170   4.436   3.604   2.466
    1CAL  O02Ch14171   4.622   4.425   2.849
    1CAL  O02Ci14172   4.815   4.346   2.929
    1CAL  O02Cj14173   4.816   4.503   2.771
    1CAL  O02Ck14174   4.315   3.702   2.773
    1CAL  O02Cl14175   4.815   3.544   2.931
    1CAL  O02Cm14176   4.937   4.409   2.465
    1CAL  O02Cn14177   5.130   4.330   2.545
    1CAL  O02Co14178   4.315   3.544   2.932
    1CAL  O02Cp14179   4.122   3.623   2.852
    1CAL  O02Cq14180   4.815   3.702   2.773
    1CAL  O02Cr14181   4.937   3.605   2.465
    1CAL  O02Cs14182   4.937   3.447   2.624
    1CAL  O02Ct14183   5.130   3.526   2.545
    1CAL  O02Cu14184   4.871   4.119   3.159
    1CAL  O02Cv14185   5.067   4.042   3.237
    1CAL  O02Cw14186   4.936   4.252   2.624
    1CAL  O02Cx14187   5.687   4.104   2.773
    1CAL  O02Cy14188   5.686   3.947   2.931
    1CAL  O02Cz14189   5.880   4.025   2.853
    1CAL  O02D014190   5.935   4.442   3.238
    1CAL  O02D114191   5.937   3.797   3.079
    1CAL  O02D214192   5.935   3.639   3.238
    1CAL  O02D314193   4.129   4.520   3.160
    1CAL  O02D414194   4.065   3.395   3.079
    1CAL  O02D514195   5.437   4.409   2.465
    1CAL  O02D614196   5.436   4.252   2.624
    1CAL  O02D714197   5.630   4.330   2.545
    1CAL  O02D814198   4.066   3.238   3.239
    1CAL  O02D914199   5.435   4.443   3.238
    1CAL  O02DA14200   4.066   4.808   2.466
    1CAL  O02DB14201   4.065   4.651   2.624
    1CAL  O02DC14202   4.872   4.731   2.544
    1CAL  O02DD14203   5.872   4.119   3.160
    1CAL  O02DE14204   5.937   3.447   2.624
    1CAL  O02DF14205   5.065   3.395   3.079
    1CAL  O02DG14206   4.437   4.409   2.465
    1CAL  O02DH14207   4.436   4.252   2.624
    1CAL  O02DI14208   4.630   4.330   2.545
    1CAL  O02DJ14209   5.066   3.237   3.238
    1CAL  O02DK14210   4.434   4.443   3.238
    1CAL  O02DL14211   4.872   3.316   3.159
    1CAL  O02DM14212   5.873   3.928   2.545
    1CAL  O02DN14213   5.066   4.808   2.466
    1CAL  O02DO14214   5.065   4.651   2.624
    1CAL  O02DP14215   5.623   4.425   2.849
    1CAL  O02DQ14216   5.815   4.346   2.929
    1CAL  O02DR14217   5.816   4.503   2.770
    1CAL  O02DS14218   5.938   4.409   2.465
    1CAL  O02DT14219   5.936   4.252   2.624
    1CAL  O02DU14220   5.937   3.605   2.465
    1CAL  O02DV14221   4.630   3.526   2.544
    1CAL  O02DW14222   4.380   4.025   2.853
    1CAL  O02DX14223   4.371   4.119   3.162
    1CAL  O02DY14224   5.066   3.850   2.624
    1CAL  O02DZ14225   5.565   4.651   2.624
    1CAL  O02Da14226   5.566   4.808   2.466
    1CAL  O02Db14227   5.623   3.623   2.852
    1CAL  O02Dc14228   5.816   3.544   2.931
    1CAL  O02Dd14229   5.373   4.731   2.544
    1CAL  O02De14230   5.122   3.623   2.852
    1CAL  O02Df14231   5.315   3.702   2.773
    1CAL  O02Dg14232   4.629   4.520   3.159
    1CAL  O02Dh14233   5.437   3.604   2.466
    1CAL  O02Di14234   5.437   3.447   2.624
    1CAL  O02Dj14235   5.630   3.526   2.544
    1CAL  O02Dk14236   5.372   4.119   3.161
    1CAL  O02Dl14237   5.567   4.042   3.237
    1CAL  O02Dm14238   5.316   3.544   2.931
    1CAL  O02Dn14239   5.564   4.200   3.078
    1CAL  O02Do14240   4.066   3.850   2.624
    1CAL  O02Dp14241   5.566   3.850   2.624
    1CAL  O02Dq14242   4.187   4.104   2.773
    1CAL  O02Dr14243   4.064   4.200   3.078
    1CAL  O02Ds14244   4.066   4.042   3.238
    1CAL  O02Dt14245   4.129   3.717   3.160
    1CAL  O02Du14246   4.130   3.526   2.545
    1CAL  O02Dv14247   4.129   4.330   2.545
    1CAL  O02Dw14248   5.565   4.007   2.466
    1CAL  O02Dx14249   4.316   4.503   2.771
    1CAL  O02Dy14250   5.873   4.731   2.544
    1CAL  O02Dz14251   5.872   3.316   3.160
    1CAL  O02E014252   4.122   4.425   2.849
    1CAL  O02E114253   5.936   4.599   3.078
    1CAL  O02E214254   4.065   4.007   2.466
    1CAL  O02E314255   5.373   3.928   2.545
    1CAL  O02E414256   4.315   4.346   2.929
    1CAL  O02E514257   4.435   4.600   3.078
    1CAL  O02E614258   4.629   3.717   3.159
    1CAL  O02E714259   5.372   3.315   3.161
    1CAL  O02E814260   5.437   3.797   3.078
    1CAL  O02E914261   5.435   3.640   3.238
    1CAL  O02EA14262   5.630   3.717   3.159
    1CAL  O02EB14263   4.880   3.220   2.852
    1CAL  O02EC14264   4.687   4.748   2.931
    1CAL  O02ED14265   5.435   4.599   3.078
    1CAL  O02EE14266   5.629   4.520   3.158
    1CAL  O02EF14267   4.687   3.299   2.773
    1CAL  O02EG14268   4.564   3.395   3.079
    1CAL  O02EH14269   4.567   3.238   3.238
    1CAL  O02EI14270   4.371   3.316   3.161
    1CAL  O02EJ14271   4.563   4.200   3.078
    1CAL  O02EK14272   4.568   4.042   3.238
    1CAL  O02EL14273   4.872   3.928   2.545
    1CAL  O02EM14274   5.567   3.237   3.238
    1CAL  O02EN14275   5.565   3.395   3.079
    1CAL  O02EO14276   4.434   3.640   3.238
    1CAL  O02EP14277   4.436   3.798   3.079
    1CAL  O02EQ14278   5.687   3.299   2.773
    1CAL  O02ER14279   5.687   4.748   2.931
    1CAL  O02ES14280   5.880   3.220   2.852
    1CAL  O02ET14281   4.380   3.221   2.852
    1CAL  O02EU14282   4.187   4.748   2.931
    1CAL  O02EV14283   4.186   3.299   2.773
    1CAL  O02EW14284   5.187   3.299   2.773
    1CAL  O02EX14285   5.187   4.748   2.931
    1CAL  O02EY14286   5.380   3.221   2.852
    1CAL  O02EZ14287   5.065   4.007   2.466
    1CAL  O02Ea14288   5.816   3.702   2.773
    1CAL  O02Eb14289   4.821   4.693   3.387
    1CAL  O02Ec14290   4.812   4.541   3.553
    1CAL  O02Ed14291   4.622   4.625   3.467
    1CAL  O02Ee14292   4.679   4.292   3.386
    1CAL  O02Ef14293   4.688   4.141   3.552
    1CAL  O02Eg14294   4.878   4.223   3.465
    1CAL  O02Eh14295   4.878   3.420   3.466
    1CAL  O02Ei14296   4.688   3.337   3.553
    1CAL  O02Ej14297   4.679   3.488   3.387
    1CAL  O02Ek14298   4.622   3.822   3.466
    1CAL  O02El14299   4.812   3.738   3.552
    1CAL  O02Em14300   4.821   3.890   3.387
    1CAL  O02En14301   5.680   4.292   3.386
    1CAL  O02Eo14302   5.878   4.223   3.466
    1CAL  O02Ep14303   5.688   4.140   3.552
    1CAL  O02Eq14304   5.623   4.624   3.466
    1CAL  O02Er14305   5.812   4.541   3.552
    1CAL  O02Es14306   5.821   4.693   3.387
    1CAL  O02Et14307   5.679   3.488   3.387
    1CAL  O02Eu14308   5.878   3.420   3.466
    1CAL  O02Ev14309   5.688   3.337   3.553
    1CAL  O02Ew14310   5.622   3.821   3.466
    1CAL  O02Ex14311   5.812   3.738   3.552
    1CAL  O02Ey14312   5.821   3.890   3.387
    1CAL  O02Ez14313   5.312   4.541   3.553
    1CAL  O02F014314   5.122   4.624   3.467
    1CAL  O02F114315   5.321   4.692   3.387
    1CAL  O02F214316   5.180   4.291   3.387
    1CAL  O02F314317   5.189   4.139   3.553
    1CAL  O02F414318   5.379   4.223   3.467
    1CAL  O02F514319   5.312   3.738   3.553
    1CAL  O02F614320   5.321   3.889   3.387
    1CAL  O02F714321   5.122   3.822   3.466
    1CAL  O02F814322   5.180   3.488   3.388
    1CAL  O02F914323   5.188   3.336   3.553
    1CAL  O02FA14324   5.378   3.420   3.468
    1CAL  O02FB14325   4.311   4.541   3.554
    1CAL  O02FC14326   4.122   4.625   3.467
    1CAL  O02FD14327   4.321   4.692   3.388
    1CAL  O02FE14328   4.180   4.291   3.388
    1CAL  O02FF14329   4.189   4.139   3.553
    1CAL  O02FG14330   4.379   4.223   3.469
    1CAL  O02FH14331   4.311   3.739   3.554
    1CAL  O02FI14332   4.122   3.822   3.466
    1CAL  O02FJ14333   4.321   3.890   3.387
    1CAL  O02FK14334   4.378   3.420   3.469
    1CAL  O02FL14335   4.188   3.336   3.554
    1CAL  O02FM14336   4.180   3.488   3.389
    1CAL  Ca0jR14337   5.003   4.023   3.464
    1CAL  Ca0jS14338   5.751   3.727   2.545
    1CAL  Ca0jT14339   5.497   4.424   3.465
    1CAL  Ca0jU14340   4.003   4.023   3.465
    1CAL  Ca0jV14341   4.751   4.720   3.160
    1CAL  Ca0jW14342   5.751   4.129   2.545
    1CAL  Ca0jX14343   5.501   3.824   2.852
    1CAL  Ca0jY14344   5.501   4.626   2.852
    1CAL  Ca0jZ14345   4.250   4.319   3.159
    1CAL  Ca0ja14346   5.001   4.626   2.852
    1CAL  Ca0jb14347   4.503   3.220   3.465
    1CAL  Ca0jc14348   4.251   3.727   2.545
    1CAL  Ca0jd14349   4.251   3.918   3.160
    1CAL  Ca0je14350   5.998   3.621   3.465
    1CAL  Ca0jf14351   5.998   4.424   3.465
    1CAL  Ca0jg14352   5.750   4.319   3.158
    1CAL  Ca0jh14353   5.251   3.325   2.545
    1CAL  Ca0ji14354   6.001   4.626   2.852
    1CAL  Ca0jj14355   5.751   3.325   2.545
    1CAL  Ca0jk14356   4.496   3.622   3.465
    1CAL  Ca0jl14357   4.003   3.220   3.466
    1CAL  Ca0jm14358   5.752   3.918   3.160
    1CAL  Ca0jn14359   4.251   4.129   2.545
    1CAL  Ca0jo14360   6.001   3.824   2.852
    1CAL  Ca0jp14361   5.501   4.225   2.851
    1CAL  Ca0jq14362   4.251   4.721   3.160
    1CAL  Ca0jr14363   5.751   4.530   2.546
    1CAL  Ca0js14364   4.501   4.225   2.851
    1CAL  Ca0jt14365   4.497   4.425   3.465
    1CAL  Ca0ju14366   6.001   3.422   2.852
    1CAL  Ca0jv14367   4.501   4.626   2.852
    1CAL  Ca0jw14368   5.497   3.621   3.465
    1CAL  Ca0jx14369   5.251   4.129   2.545
    1CAL  Ca0jy14370   4.751   4.129   2.545
    1CAL  Ca0jz14371   5.001   3.422   2.852
    1CAL  Ca0k014372   5.001   4.225   2.851
    1CAL  Ca0k114373   4.501   3.824   2.852
    1CAL  Ca0k214374   5.001   3.824   2.852
    1CAL  Ca0k314375   4.750   4.319   3.159
    1CAL  Ca0k414376   4.251   3.325   2.545
    1CAL  Ca0k514377   4.751   3.727   2.545
    1CAL  Ca0k614378   5.251   3.727   2.545
    1CAL  Ca0k714379   5.250   4.319   3.159
    1CAL  Ca0k814380   5.251   4.720   3.160
    1CAL  Ca0k914381   5.750   3.516   3.160
    1CAL  Ca0kA14382   5.003   3.220   3.465
    1CAL  Ca0kB14383   4.749   3.516   3.160
    1CAL  Ca0kC14384   4.504   4.023   3.464
    1CAL  Ca0kD14385   4.501   3.422   2.852
    1CAL  Ca0kE14386   4.751   3.325   2.545
    1CAL  Ca0kF14387   5.251   4.530   2.546
    1CAL  Ca0kG14388   5.250   3.516   3.160
    1CAL  Ca0kH14389   4.997   3.621   3.465
    1CAL  Ca0kI14390   4.751   4.530   2.546
    1CAL  Ca0kJ14391   4.997   4.424   3.465
    1CAL  Ca0kK14392   4.251   4.530   2.546
    1CAL  Ca0kL14393   5.501   3.422   2.852
    1CAL  Ca0kM14394   5.504   4.023   3.464
    1CAL  Ca0kN14395   5.503   3.219   3.465
    1CAL  Ca0kO14396   4.751   3.918   3.160
    1CAL  Ca0kP14397   5.751   4.721   3.160
    1CAL  Ca0kQ14398   5.251   3.918   3.160
    1CAL  Ca0kR14399   4.250   3.516   3.160
    1CAL  Ca0kS14400   6.001   4.225   2.851
    1CAL  C00kT14401   6.001   6.336   0.089
    1CAL  C00kU14402   5.251   4.826   0.396
    1CAL  C00kV14403   4.251   4.826   0.396
    1CAL  C00kW14404   5.500   5.324   0.702
    1CAL  C00kX14405   5.500   6.127   0.702
    1CAL  C00kY14406   4.751   4.826   0.396
    1CAL  C00kZ14407   5.001   5.534   0.089
    1CAL  C00ka14408   5.251   6.031   0.393
    1CAL  C00kb14409   4.751   6.031   0.394
    1CAL  C00kc14410   4.501   5.726   0.703
    1CAL  C00kd14411   4.501   5.132   0.089
    1CAL  C00ke14412   5.001   5.936   0.089
    1CAL  C00kf14413   5.001   5.132   0.089
    1CAL  C00kg14414   4.251   5.229   0.396
    1CAL  C00kh14415   4.501   4.922   0.703
    1CAL  C00ki14416   5.001   5.726   0.702
    1CAL  C00kj14417   5.751   4.826   0.396
    1CAL  C00kk14418   5.501   4.922   0.703
    1CAL  C00kl14419   4.251   5.631   0.396
    1CAL  C00km14420   6.000   5.324   0.703
    1CAL  C00kn14421   6.001   5.726   0.702
    1CAL  C00ko14422   6.001   5.132   0.089
    1CAL  C00kp14423   6.001   5.936   0.089
    1CAL  C00kq14424   4.251   6.031   0.394
    1CAL  C00kr14425   4.500   5.324   0.702
    1CAL  C00ks14426   5.501   5.534   0.089
    1CAL  C00kt14427   6.001   5.534   0.089
    1CAL  C00ku14428   5.751   5.229   0.396
    1CAL  C00kv14429   5.251   5.229   0.396
    1CAL  C00kw14430   5.501   5.132   0.089
    1CAL  C00kx14431   5.501   5.726   0.702
    1CAL  C00ky14432   4.499   6.127   0.702
    1CAL  C00kz14433   5.501   6.336   0.089
    1CAL  C00l014434   4.751   5.229   0.396
    1CAL  C00l114435   5.251   5.631   0.396
    1CAL  C00l214436   4.501   5.936   0.089
    1CAL  C00l314437   5.751   6.031   0.393
    1CAL  C00l414438   5.001   6.336   0.089
    1CAL  C00l514439   6.000   6.127   0.703
    1CAL  C00l614440   5.001   4.922   0.702
    1CAL  C00l714441   5.000   6.127   0.702
    1CAL  C00l814442   5.000   5.324   0.703
    1CAL  C00l914443   5.751   5.631   0.396
    1CAL  C00lA14444   4.501   6.336   0.089
    1CAL  C00lB14445   5.501   5.936   0.089
    1CAL  C00lC14446   4.501   5.534   0.089
    1CAL  C00lD14447   4.751   5.631   0.396
    1CAL  C00lE14448   6.001   4.922   0.703
    1CAL  C00lF14449   4.752   5.422   1.013
    1CAL  C00lG14450   4.748   5.021   1.013
    1CAL  C00lH14451   4.748   5.824   1.012
    1CAL  C00lI14452   4.752   6.225   1.013
    1CAL  C00lJ14453   5.752   5.422   1.013
    1CAL  C00lK14454   5.748   5.021   1.013
    1CAL  C00lL14455   5.752   6.225   1.013
    1CAL  C00lM14456   5.749   5.824   1.012
    1CAL  C00lN14457   5.252   6.225   1.013
    1CAL  C00lO14458   5.249   5.823   1.013
    1CAL  C00lP14459   5.252   5.422   1.013
    1CAL  C00lQ14460   5.248   5.020   1.014
    1CAL  C00lR14461   4.252   6.225   1.014
    1CAL  C00lS14462   4.249   5.823   1.014
    1CAL  C00lT14463   4.252   5.423   1.013
    1CAL  C00lU14464   4.248   5.020   1.015
    1CAL  O02FN14465   4.186   5.553   0.475
    1CAL  O02FO14466   5.187   5.710   0.317
    1CAL  O02FP14467   5.186   5.553   0.475
    1CAL  O02FQ14468   5.380   5.631   0.397
    1CAL  O02FR14469   4.565   6.257   0.168
    1CAL  O02FS14470   4.372   6.337   0.088
    1CAL  O02FT14471   4.565   5.613   0.010
    1CAL  O02FU14472   4.687   5.710   0.317
    1CAL  O02FV14473   4.686   5.553   0.475
    1CAL  O02FW14474   4.880   5.631   0.397
    1CAL  O02FX14475   4.566   6.414   0.010
    1CAL  O02FY14476   4.565   5.456   0.168
    1CAL  O02FZ14477   4.372   5.534   0.089
    1CAL  O02Fa14478   5.129   6.126   0.703
    1CAL  O02Fb14479   4.936   6.205   0.622
    1CAL  O02Fc14480   4.937   5.403   0.622
    1CAL  O02Fd14481   4.934   5.246   0.782
    1CAL  O02Fe14482   5.129   5.323   0.704
    1CAL  O02Ff14483   4.934   6.049   0.782
    1CAL  O02Fg14484   4.622   5.229   0.396
    1CAL  O02Fh14485   5.064   5.805   0.622
    1CAL  O02Fi14486   5.123   6.031   0.393
    1CAL  O02Fj14487   5.315   5.952   0.473
    1CAL  O02Fk14488   5.316   6.109   0.315
    1CAL  O02Fl14489   4.437   5.053   0.168
    1CAL  O02Fm14490   4.436   5.210   0.010
    1CAL  O02Fn14491   4.622   6.031   0.393
    1CAL  O02Fo14492   4.815   5.952   0.473
    1CAL  O02Fp14493   4.816   6.109   0.315
    1CAL  O02Fq14494   4.315   5.308   0.317
    1CAL  O02Fr14495   4.815   5.150   0.475
    1CAL  O02Fs14496   4.937   6.015   0.009
    1CAL  O02Ft14497   5.130   5.936   0.089
    1CAL  O02Fu14498   4.315   5.150   0.476
    1CAL  O02Fv14499   4.122   5.229   0.396
    1CAL  O02Fw14500   4.815   5.308   0.317
    1CAL  O02Fx14501   4.937   5.211   0.009
    1CAL  O02Fy14502   4.937   5.053   0.168
    1CAL  O02Fz14503   5.130   5.132   0.089
    1CAL  O02G014504   4.871   5.725   0.703
    1CAL  O02G114505   5.067   5.648   0.781
    1CAL  O02G214506   4.936   5.858   0.168
    1CAL  O02G314507   5.687   5.710   0.317
    1CAL  O02G414508   5.686   5.553   0.475
    1CAL  O02G514509   5.880   5.631   0.397
    1CAL  O02G614510   5.935   6.048   0.782
    1CAL  O02G714511   5.937   5.403   0.623
    1CAL  O02G814512   5.935   5.245   0.782
    1CAL  O02G914513   4.129   6.126   0.704
    1CAL  O02GA14514   4.065   5.001   0.623
    1CAL  O02GB14515   5.437   6.015   0.009
    1CAL  O02GC14516   5.436   5.858   0.168
    1CAL  O02GD14517   5.630   5.936   0.089
    1CAL  O02GE14518   4.066   4.844   0.783
    1CAL  O02GF14519   5.435   6.049   0.782
    1CAL  O02GG14520   4.066   6.414   0.010
    1CAL  O02GH14521   4.065   6.257   0.168
    1CAL  O02GI14522   4.872   6.337   0.088
    1CAL  O02GJ14523   5.872   5.725   0.704
    1CAL  O02GK14524   5.937   5.053   0.168
    1CAL  O02GL14525   5.065   5.001   0.623
    1CAL  O02GM14526   4.437   6.015   0.009
    1CAL  O02GN14527   4.436   5.858   0.168
    1CAL  O02GO14528   4.630   5.936   0.089
    1CAL  O02GP14529   5.066   4.843   0.782
    1CAL  O02GQ14530   4.434   6.049   0.782
    1CAL  O02GR14531   4.872   4.922   0.703
    1CAL  O02GS14532   5.873   5.534   0.089
    1CAL  O02GT14533   5.066   6.414   0.010
    1CAL  O02GU14534   5.065   6.257   0.168
    1CAL  O02GV14535   5.623   6.031   0.393
    1CAL  O02GW14536   5.815   5.952   0.473
    1CAL  O02GX14537   5.816   6.109   0.314
    1CAL  O02GY14538   5.938   6.015   0.009
    1CAL  O02GZ14539   5.936   5.858   0.168
    1CAL  O02Ga14540   5.937   5.211   0.009
    1CAL  O02Gb14541   4.630   5.132   0.088
    1CAL  O02Gc14542   4.380   5.631   0.397
    1CAL  O02Gd14543   4.371   5.725   0.706
    1CAL  O02Ge14544   5.066   5.456   0.168
    1CAL  O02Gf14545   5.565   6.257   0.168
    1CAL  O02Gg14546   5.566   6.414   0.010
    1CAL  O02Gh14547   5.623   5.229   0.396
    1CAL  O02Gi14548   5.816   5.150   0.475
    1CAL  O02Gj14549   5.373   6.337   0.088
    1CAL  O02Gk14550   5.122   5.229   0.396
    1CAL  O02Gl14551   5.315   5.308   0.317
    1CAL  O02Gm14552   4.629   6.126   0.703
    1CAL  O02Gn14553   5.437   5.210   0.010
    1CAL  O02Go14554   5.437   5.053   0.168
    1CAL  O02Gp14555   5.630   5.132   0.088
    1CAL  O02Gq14556   5.372   5.725   0.705
    1CAL  O02Gr14557   5.567   5.648   0.781
    1CAL  O02Gs14558   5.316   5.150   0.475
    1CAL  O02Gt14559   5.564   5.806   0.622
    1CAL  O02Gu14560   4.066   5.456   0.168
    1CAL  O02Gv14561   5.566   5.456   0.168
    1CAL  O02Gw14562   4.187   5.710   0.317
    1CAL  O02Gx14563   4.064   5.806   0.622
    1CAL  O02Gy14564   4.066   5.648   0.782
    1CAL  O02Gz14565   4.129   5.323   0.704
    1CAL  O02H014566   4.130   5.132   0.089
    1CAL  O02H114567   4.129   5.936   0.089
    1CAL  O02H214568   5.565   5.613   0.010
    1CAL  O02H314569   4.316   6.109   0.315
    1CAL  O02H414570   5.873   6.337   0.088
    1CAL  O02H514571   5.872   4.922   0.704
    1CAL  O02H614572   4.122   6.031   0.393
    1CAL  O02H714573   5.936   6.205   0.622
    1CAL  O02H814574   4.065   5.613   0.010
    1CAL  O02H914575   5.373   5.534   0.089
    1CAL  O02HA14576   4.315   5.952   0.473
    1CAL  O02HB14577   4.435   6.206   0.622
    1CAL  O02HC14578   4.629   5.323   0.703
    1CAL  O02HD14579   5.372   4.921   0.705
    1CAL  O02HE14580   5.437   5.403   0.622
    1CAL  O02HF14581   5.435   5.246   0.782
    1CAL  O02HG14582   5.630   5.323   0.703
    1CAL  O02HH14583   4.880   4.826   0.396
    1CAL  O02HI14584   4.687   6.354   0.475
    1CAL  O02HJ14585   5.435   6.205   0.622
    1CAL  O02HK14586   5.629   6.126   0.702
    1CAL  O02HL14587   4.687   4.905   0.317
    1CAL  O02HM14588   4.564   5.001   0.623
    1CAL  O02HN14589   4.567   4.844   0.782
    1CAL  O02HO14590   4.371   4.922   0.705
    1CAL  O02HP14591   4.563   5.806   0.622
    1CAL  O02HQ14592   4.568   5.648   0.782
    1CAL  O02HR14593   4.872   5.534   0.089
    1CAL  O02HS14594   5.567   4.843   0.782
    1CAL  O02HT14595   5.565   5.001   0.623
    1CAL  O02HU14596   4.434   5.246   0.782
    1CAL  O02HV14597   4.436   5.404   0.623
    1CAL  O02HW14598   5.687   4.905   0.317
    1CAL  O02HX14599   5.687   6.354   0.475
    1CAL  O02HY14600   5.880   4.826   0.396
    1CAL  O02HZ14601   4.380   4.827   0.396
    1CAL  O02Ha14602   4.187   6.354   0.475
    1CAL  O02Hb14603   4.186   4.905   0.317
    1CAL  O02Hc14604   5.187   4.905   0.317
    1CAL  O02Hd14605   5.187   6.354   0.475
    1CAL  O02He14606   5.380   4.827   0.396
    1CAL  O02Hf14607   5.065   5.613   0.010
    1CAL  O02Hg14608   5.816   5.308   0.317
    1CAL  O02Hh14609   4.821   6.299   0.931
    1CAL  O02Hi14610   4.812   6.147   1.097
    1CAL  O02Hj14611   4.622   6.231   1.011
    1CAL  O02Hk14612   4.679   5.898   0.930
    1CAL  O02Hl14613   4.688   5.747   1.096
    1CAL  O02Hm14614   4.878   5.829   1.009
    1CAL  O02Hn14615   4.878   5.026   1.010
    1CAL  O02Ho14616   4.688   4.943   1.097
    1CAL  O02Hp14617   4.679   5.094   0.931
    1CAL  O02Hq14618   4.622   5.428   1.010
    1CAL  O02Hr14619   4.812   5.344   1.096
    1CAL  O02Hs14620   4.821   5.496   0.931
    1CAL  O02Ht14621   5.680   5.898   0.930
    1CAL  O02Hu14622   5.878   5.829   1.010
    1CAL  O02Hv14623   5.688   5.746   1.096
    1CAL  O02Hw14624   5.623   6.230   1.010
    1CAL  O02Hx14625   5.812   6.147   1.096
    1CAL  O02Hy14626   5.821   6.299   0.931
    1CAL  O02Hz14627   5.679   5.094   0.931
    1CAL  O02I014628   5.878   5.026   1.010
    1CAL  O02I114629   5.688   4.943   1.097
    1CAL  O02I214630   5.622   5.427   1.010
    1CAL  O02I314631   5.812   5.344   1.096
    1CAL  O02I414632   5.821   5.496   0.931
    1CAL  O02I514633   5.312   6.147   1.097
    1CAL  O02I614634   5.122   6.230   1.011
    1CAL  O02I714635   5.321   6.298   0.931
    1CAL  O02I814636   5.180   5.897   0.931
    1CAL  O02I914637   5.189   5.745   1.097
    1CAL  O02IA14638   5.379   5.829   1.011
    1CAL  O02IB14639   5.312   5.344   1.097
    1CAL  O02IC14640   5.321   5.495   0.931
    1CAL  O02ID14641   5.122   5.428   1.010
    1CAL  O02IE14642   5.180   5.094   0.932
    1CAL  O02IF14643   5.188   4.942   1.097
    1CAL  O02IG14644   5.378   5.026   1.012
    1CAL  O02IH14645   4.311   6.147   1.098
    1CAL  O02II14646   4.122   6.231   1.011
    1CAL  O02IJ14647   4.321   6.298   0.932
    1CAL  O02IK14648   4.180   5.897   0.932
    1CAL  O02IL14649   4.189   5.745   1.097
    1CAL  O02IM14650   4.379   5.829   1.013
    1CAL  O02IN14651   4.311   5.345   1.098
    1CAL  O02IO14652   4.122   5.428   1.010
    1CAL  O02IP14653   4.321   5.496   0.931
    1CAL  O02IQ14654   4.378   5.026   1.013
    1CAL  O02IR14655   4.188   4.942   1.098
    1CAL  O02IS14656   4.180   5.094   0.933
    1CAL  Ca0kT14657   5.003   5.629   1.008
    1CAL  Ca0kU14658   5.751   5.333   0.089
    1CAL  Ca0kV14659   5.497   6.030   1.009
    1CAL  Ca0kW14660   4.003   5.629   1.009
    1CAL  Ca0kX14661   4.751   6.326   0.704
    1CAL  Ca0kY14662   5.751   5.735   0.089
    1CAL  Ca0kZ14663   5.501   5.430   0.396
    1CAL  Ca0ka14664   5.501   6.232   0.396
    1CAL  Ca0kb14665   4.250   5.925   0.703
    1CAL  Ca0kc14666   5.001   6.232   0.396
    1CAL  Ca0kd14667   4.503   4.826   1.009
    1CAL  Ca0ke14668   4.251   5.333   0.089
    1CAL  Ca0kf14669   4.251   5.524   0.704
    1CAL  Ca0kg14670   5.998   5.227   1.009
    1CAL  Ca0kh14671   5.998   6.030   1.009
    1CAL  Ca0ki14672   5.750   5.925   0.702
    1CAL  Ca0kj14673   5.251   4.931   0.089
    1CAL  Ca0kk14674   6.001   6.232   0.396
    1CAL  Ca0kl14675   5.751   4.931   0.089
    1CAL  Ca0km14676   4.496   5.228   1.009
    1CAL  Ca0kn14677   4.003   4.826   1.010
    1CAL  Ca0ko14678   5.752   5.524   0.704
    1CAL  Ca0kp14679   4.251   5.735   0.089
    1CAL  Ca0kq14680   6.001   5.430   0.396
    1CAL  Ca0kr14681   5.501   5.831   0.395
    1CAL  Ca0ks14682   4.251   6.327   0.704
    1CAL  Ca0kt14683   5.751   6.136   0.090
    1CAL  Ca0ku14684   4.501   5.831   0.395
    1CAL  Ca0kv14685   4.497   6.031   1.009
    1CAL  Ca0kw14686   6.001   5.028   0.396
    1CAL  Ca0kx14687   4.501   6.232   0.396
    1CAL  Ca0ky14688   5.497   5.227   1.009
    1CAL  Ca0kz14689   5.251   5.735   0.089
    1CAL  Ca0l014690   4.751   5.735   0.089
    1CAL  Ca0l114691   5.001   5.028   0.396
    1CAL  Ca0l214692   5.001   5.831   0.395
    1CAL  Ca0l314693   4.501   5.430   0.396
    1CAL  Ca0l414694   5.001   5.430   0.396
    1CAL  Ca0l514695   4.750   5.925   0.703
    1CAL  Ca0l614696   4.251   4.931   0.089
    1CAL  Ca0l714697   4.751   5.333   0.089
    1CAL  Ca0l814698   5.251   5.333   0.089
    1CAL  Ca0l914699   5.250   5.925   0.703
    1CAL  Ca0lA14700   5.251   6.326   0.704
    1CAL  Ca0lB14701   5.750   5.122   0.704
    1CAL  Ca0lC14702   5.003   4.826   1.009
    1CAL  Ca0lD14703   4.749   5.122   0.704
    1CAL  Ca0lE14704   4.504   5.629   1.008
    1CAL  Ca0lF14705   4.501   5.028   0.396
    1CAL  Ca0lG14706   4.751   4.931   0.089
    1CAL  Ca0lH14707   5.251   6.136   0.090
    1CAL  Ca0lI14708   5.250   5.122   0.704
    1CAL  Ca0lJ14709   4.997   5.227   1.009
    1CAL  Ca0lK14710   4.751   6.136   0.090
    1CAL  Ca0lL14711   4.997   6.030   1.009
    1CAL  Ca0lM14712   4.251   6.136   0.090
    1CAL  Ca0lN14713   5.501   5.028   0.396
    1CAL  Ca0lO14714   5.504   5.629   1.008
    1CAL  Ca0lP14715   5.503   4.825   1.009
    1CAL  Ca0lQ14716   4.751   5.524   0.704
    1CAL  Ca0lR14717   5.751   6.327   0.704
    1CAL  Ca0lS14718   5.251   5.524   0.704
    1CAL  Ca0lT14719   4.250   5.122   0.704
    1CAL  Ca0lU14720   6.001   5.831   0.395
    1CAL  C00lV14721   6.001   6.336   1.317
    1CAL  C00lW14722   5.251   4.826   1.624
    1CAL  C00lX14723   4.251   4.826   1.624
    1CAL  C00lY14724   5.500   5.324   1.930
    1CAL  C00lZ14725   5.500   6.127   1.930
    1CAL  C00la14726   4.751   4.826   1.624
    1CAL  C00lb14727   5.001   5.534   1.317
    1CAL  C00lc14728   5.251   6.031   1.621
    1CAL  C00ld14729   4.751   6.031   1.622
    1CAL  C00le14730   4.501   5.726   1.931
    1CAL  C00lf14731   4.501   5.132   1.317
    1CAL  C00lg14732   5.001   5.936   1.317
    1CAL  C00lh14733   5.001   5.132   1.317
    1CAL  C00li14734   4.251   5.229   1.624
    1CAL  C00lj14735   4.501   4.922   1.931
    1CAL  C00lk14736   5.001   5.726   1.930
    1CAL  C00ll14737   5.751   4.826   1.624
    1CAL  C00lm14738   5.501   4.922   1.931
    1CAL  C00ln14739   4.251   5.631   1.624
    1CAL  C00lo14740   6.000   5.324   1.931
    1CAL  C00lp14741   6.001   5.726   1.930
    1CAL  C00lq14742   6.001   5.132   1.317
    1CAL  C00lr14743   6.001   5.936   1.317
    1CAL  C00ls14744   4.251   6.031   1.622
    1CAL  C00lt14745   4.500   5.324   1.930
    1CAL  C00lu14746   5.501   5.534   1.317
    1CAL  C00lv14747   6.001   5.534   1.317
    1CAL  C00lw14748   5.751   5.229   1.624
    1CAL  C00lx14749   5.251   5.229   1.624
    1CAL  C00ly14750   5.501   5.132   1.317
    1CAL  C00lz14751   5.501   5.726   1.930
    1CAL  C00m014752   4.499   6.127   1.930
    1CAL  C00m114753   5.501   6.336   1.317
    1CAL  C00m214754   4.751   5.229   1.624
    1CAL  C00m314755   5.251   5.631   1.624
    1CAL  C00m414756   4.501   5.936   1.317
    1CAL  C00m514757   5.751   6.031   1.621
    1CAL  C00m614758   5.001   6.336   1.317
    1CAL  C00m714759   6.000   6.127   1.931
    1CAL  C00m814760   5.001   4.922   1.930
    1CAL  C00m914761   5.000   6.127   1.930
    1CAL  C00mA14762   5.000   5.324   1.931
    1CAL  C00mB14763   5.751   5.631   1.624
    1CAL  C00mC14764   4.501   6.336   1.317
    1CAL  C00mD14765   5.501   5.936   1.317
    1CAL  C00mE14766   4.501   5.534   1.317
    1CAL  C00mF14767   4.751   5.631   1.624
    1CAL  C00mG14768   6.001   4.922   1.931
    1CAL  C00mH14769   4.752   5.422   2.241
    1CAL  C00mI14770   4.748   5.021   2.241
    1CAL  C00mJ14771   4.748   5.824   2.240
    1CAL  C00mK14772   4.752   6.225   2.241
    1CAL  C00mL14773   5.752   5.422   2.241
    1CAL  C00mM14774   5.748   5.021   2.241
    1CAL  C00mN14775   5.752   6.225   2.241
    1CAL  C00mO14776   5.749   5.824   2.240
    1CAL  C00mP14777   5.252   6.225   2.241
    1CAL  C00mQ14778   5.249   5.823   2.241
    1CAL  C00mR14779   5.252   5.422   2.241
    1CAL  C00mS14780   5.248   5.020   2.242
    1CAL  C00mT14781   4.252   6.225   2.242
    1CAL  C00mU14782   4.249   5.823   2.242
    1CAL  C00mV14783   4.252   5.423   2.241
    1CAL  C00mW14784   4.248   5.020   2.243
    1CAL  O02IT14785   4.186   5.553   1.703
    1CAL  O02IU14786   5.187   5.710   1.545
    1CAL  O02IV14787   5.186   5.553   1.703
    1CAL  O02IW14788   5.380   5.631   1.625
    1CAL  O02IX14789   4.565   6.257   1.396
    1CAL  O02IY14790   4.372   6.337   1.316
    1CAL  O02IZ14791   4.565   5.613   1.238
    1CAL  O02Ia14792   4.687   5.710   1.545
    1CAL  O02Ib14793   4.686   5.553   1.703
    1CAL  O02Ic14794   4.880   5.631   1.625
    1CAL  O02Id14795   4.566   6.414   1.238
    1CAL  O02Ie14796   4.565   5.456   1.396
    1CAL  O02If14797   4.372   5.534   1.317
    1CAL  O02Ig14798   5.129   6.126   1.931
    1CAL  O02Ih14799   4.936   6.205   1.850
    1CAL  O02Ii14800   4.937   5.403   1.850
    1CAL  O02Ij14801   4.934   5.246   2.010
    1CAL  O02Ik14802   5.129   5.323   1.932
    1CAL  O02Il14803   4.934   6.049   2.010
    1CAL  O02Im14804   4.622   5.229   1.624
    1CAL  O02In14805   5.064   5.805   1.850
    1CAL  O02Io14806   5.123   6.031   1.621
    1CAL  O02Ip14807   5.315   5.952   1.701
    1CAL  O02Iq14808   5.316   6.109   1.543
    1CAL  O02Ir14809   4.437   5.053   1.396
    1CAL  O02Is14810   4.436   5.210   1.238
    1CAL  O02It14811   4.622   6.031   1.621
    1CAL  O02Iu14812   4.815   5.952   1.701
    1CAL  O02Iv14813   4.816   6.109   1.543
    1CAL  O02Iw14814   4.315   5.308   1.545
    1CAL  O02Ix14815   4.815   5.150   1.703
    1CAL  O02Iy14816   4.937   6.015   1.237
    1CAL  O02Iz14817   5.130   5.936   1.317
    1CAL  O02J014818   4.315   5.150   1.704
    1CAL  O02J114819   4.122   5.229   1.624
    1CAL  O02J214820   4.815   5.308   1.545
    1CAL  O02J314821   4.937   5.211   1.237
    1CAL  O02J414822   4.937   5.053   1.396
    1CAL  O02J514823   5.130   5.132   1.317
    1CAL  O02J614824   4.871   5.725   1.931
    1CAL  O02J714825   5.067   5.648   2.009
    1CAL  O02J814826   4.936   5.858   1.396
    1CAL  O02J914827   5.687   5.710   1.545
    1CAL  O02JA14828   5.686   5.553   1.703
    1CAL  O02JB14829   5.880   5.631   1.625
    1CAL  O02JC14830   5.935   6.048   2.010
    1CAL  O02JD14831   5.937   5.403   1.851
    1CAL  O02JE14832   5.935   5.245   2.010
    1CAL  O02JF14833   4.129   6.126   1.932
    1CAL  O02JG14834   4.065   5.001   1.851
    1CAL  O02JH14835   5.437   6.015   1.237
    1CAL  O02JI14836   5.436   5.858   1.396
    1CAL  O02JJ14837   5.630   5.936   1.317
    1CAL  O02JK14838   4.066   4.844   2.011
    1CAL  O02JL14839   5.435   6.049   2.010
    1CAL  O02JM14840   4.066   6.414   1.238
    1CAL  O02JN14841   4.065   6.257   1.396
    1CAL  O02JO14842   4.872   6.337   1.316
    1CAL  O02JP14843   5.872   5.725   1.932
    1CAL  O02JQ14844   5.937   5.053   1.396
    1CAL  O02JR14845   5.065   5.001   1.851
    1CAL  O02JS14846   4.437   6.015   1.237
    1CAL  O02JT14847   4.436   5.858   1.396
    1CAL  O02JU14848   4.630   5.936   1.317
    1CAL  O02JV14849   5.066   4.843   2.010
    1CAL  O02JW14850   4.434   6.049   2.010
    1CAL  O02JX14851   4.872   4.922   1.931
    1CAL  O02JY14852   5.873   5.534   1.317
    1CAL  O02JZ14853   5.066   6.414   1.238
    1CAL  O02Ja14854   5.065   6.257   1.396
    1CAL  O02Jb14855   5.623   6.031   1.621
    1CAL  O02Jc14856   5.815   5.952   1.701
    1CAL  O02Jd14857   5.816   6.109   1.542
    1CAL  O02Je14858   5.938   6.015   1.237
    1CAL  O02Jf14859   5.936   5.858   1.396
    1CAL  O02Jg14860   5.937   5.211   1.237
    1CAL  O02Jh14861   4.630   5.132   1.316
    1CAL  O02Ji14862   4.380   5.631   1.625
    1CAL  O02Jj14863   4.371   5.725   1.934
    1CAL  O02Jk14864   5.066   5.456   1.396
    1CAL  O02Jl14865   5.565   6.257   1.396
    1CAL  O02Jm14866   5.566   6.414   1.238
    1CAL  O02Jn14867   5.623   5.229   1.624
    1CAL  O02Jo14868   5.816   5.150   1.703
    1CAL  O02Jp14869   5.373   6.337   1.316
    1CAL  O02Jq14870   5.122   5.229   1.624
    1CAL  O02Jr14871   5.315   5.308   1.545
    1CAL  O02Js14872   4.629   6.126   1.931
    1CAL  O02Jt14873   5.437   5.210   1.238
    1CAL  O02Ju14874   5.437   5.053   1.396
    1CAL  O02Jv14875   5.630   5.132   1.316
    1CAL  O02Jw14876   5.372   5.725   1.933
    1CAL  O02Jx14877   5.567   5.648   2.009
    1CAL  O02Jy14878   5.316   5.150   1.703
    1CAL  O02Jz14879   5.564   5.806   1.850
    1CAL  O02K014880   4.066   5.456   1.396
    1CAL  O02K114881   5.566   5.456   1.396
    1CAL  O02K214882   4.187   5.710   1.545
    1CAL  O02K314883   4.064   5.806   1.850
    1CAL  O02K414884   4.066   5.648   2.010
    1CAL  O02K514885   4.129   5.323   1.932
    1CAL  O02K614886   4.130   5.132   1.317
    1CAL  O02K714887   4.129   5.936   1.317
    1CAL  O02K814888   5.565   5.613   1.238
    1CAL  O02K914889   4.316   6.109   1.543
    1CAL  O02KA14890   5.873   6.337   1.316
    1CAL  O02KB14891   5.872   4.922   1.932
    1CAL  O02KC14892   4.122   6.031   1.621
    1CAL  O02KD14893   5.936   6.205   1.850
    1CAL  O02KE14894   4.065   5.613   1.238
    1CAL  O02KF14895   5.373   5.534   1.317
    1CAL  O02KG14896   4.315   5.952   1.701
    1CAL  O02KH14897   4.435   6.206   1.850
    1CAL  O02KI14898   4.629   5.323   1.931
    1CAL  O02KJ14899   5.372   4.921   1.933
    1CAL  O02KK14900   5.437   5.403   1.850
    1CAL  O02KL14901   5.435   5.246   2.010
    1CAL  O02KM14902   5.630   5.323   1.931
    1CAL  O02KN14903   4.880   4.826   1.624
    1CAL  O02KO14904   4.687   6.354   1.703
    1CAL  O02KP14905   5.435   6.205   1.850
    1CAL  O02KQ14906   5.629   6.126   1.930
    1CAL  O02KR14907   4.687   4.905   1.545
    1CAL  O02KS14908   4.564   5.001   1.851
    1CAL  O02KT14909   4.567   4.844   2.010
    1CAL  O02KU14910   4.371   4.922   1.933
    1CAL  O02KV14911   4.563   5.806   1.850
    1CAL  O02KW14912   4.568   5.648   2.010
    1CAL  O02KX14913   4.872   5.534   1.317
    1CAL  O02KY14914   5.567   4.843   2.010
    1CAL  O02KZ14915   5.565   5.001   1.851
    1CAL  O02Ka14916   4.434   5.246   2.010
    1CAL  O02Kb14917   4.436   5.404   1.851
    1CAL  O02Kc14918   5.687   4.905   1.545
    1CAL  O02Kd14919   5.687   6.354   1.703
    1CAL  O02Ke14920   5.880   4.826   1.624
    1CAL  O02Kf14921   4.380   4.827   1.624
    1CAL  O02Kg14922   4.187   6.354   1.703
    1CAL  O02Kh14923   4.186   4.905   1.545
    1CAL  O02Ki14924   5.187   4.905   1.545
    1CAL  O02Kj14925   5.187   6.354   1.703
    1CAL  O02Kk14926   5.380   4.827   1.624
    1CAL  O02Kl14927   5.065   5.613   1.238
    1CAL  O02Km14928   5.816   5.308   1.545
    1CAL  O02Kn14929   4.821   6.299   2.159
    1CAL  O02Ko14930   4.812   6.147   2.325
    1CAL  O02Kp14931   4.622   6.231   2.239
    1CAL  O02Kq14932   4.679   5.898   2.158
    1CAL  O02Kr14933   4.688   5.747   2.324
    1CAL  O02Ks14934   4.878   5.829   2.237
    1CAL  O02Kt14935   4.878   5.026   2.238
    1CAL  O02Ku14936   4.688   4.943   2.325
    1CAL  O02Kv14937   4.679   5.094   2.159
    1CAL  O02Kw14938   4.622   5.428   2.238
    1CAL  O02Kx14939   4.812   5.344   2.324
    1CAL  O02Ky14940   4.821   5.496   2.159
    1CAL  O02Kz14941   5.680   5.898   2.158
    1CAL  O02L014942   5.878   5.829   2.238
    1CAL  O02L114943   5.688   5.746   2.324
    1CAL  O02L214944   5.623   6.230   2.238
    1CAL  O02L314945   5.812   6.147   2.324
    1CAL  O02L414946   5.821   6.299   2.159
    1CAL  O02L514947   5.679   5.094   2.159
    1CAL  O02L614948   5.878   5.026   2.238
    1CAL  O02L714949   5.688   4.943   2.325
    1CAL  O02L814950   5.622   5.427   2.238
    1CAL  O02L914951   5.812   5.344   2.324
    1CAL  O02LA14952   5.821   5.496   2.159
    1CAL  O02LB14953   5.312   6.147   2.325
    1CAL  O02LC14954   5.122   6.230   2.239
    1CAL  O02LD14955   5.321   6.298   2.159
    1CAL  O02LE14956   5.180   5.897   2.159
    1CAL  O02LF14957   5.189   5.745   2.325
    1CAL  O02LG14958   5.379   5.829   2.239
    1CAL  O02LH14959   5.312   5.344   2.325
    1CAL  O02LI14960   5.321   5.495   2.159
    1CAL  O02LJ14961   5.122   5.428   2.238
    1CAL  O02LK14962   5.180   5.094   2.160
    1CAL  O02LL14963   5.188   4.942   2.325
    1CAL  O02LM14964   5.378   5.026   2.240
    1CAL  O02LN14965   4.311   6.147   2.326
    1CAL  O02LO14966   4.122   6.231   2.239
    1CAL  O02LP14967   4.321   6.298   2.160
    1CAL  O02LQ14968   4.180   5.897   2.160
    1CAL  O02LR14969   4.189   5.745   2.325
    1CAL  O02LS14970   4.379   5.829   2.241
    1CAL  O02LT14971   4.311   5.345   2.326
    1CAL  O02LU14972   4.122   5.428   2.238
    1CAL  O02LV14973   4.321   5.496   2.159
    1CAL  O02LW14974   4.378   5.026   2.241
    1CAL  O02LX14975   4.188   4.942   2.326
    1CAL  O02LY14976   4.180   5.094   2.161
    1CAL  Ca0lV14977   5.003   5.629   2.236
    1CAL  Ca0lW14978   5.751   5.333   1.317
    1CAL  Ca0lX14979   5.497   6.030   2.237
    1CAL  Ca0lY14980   4.003   5.629   2.237
    1CAL  Ca0lZ14981   4.751   6.326   1.932
    1CAL  Ca0la14982   5.751   5.735   1.317
    1CAL  Ca0lb14983   5.501   5.430   1.624
    1CAL  Ca0lc14984   5.501   6.232   1.624
    1CAL  Ca0ld14985   4.250   5.925   1.931
    1CAL  Ca0le14986   5.001   6.232   1.624
    1CAL  Ca0lf14987   4.503   4.826   2.237
    1CAL  Ca0lg14988   4.251   5.333   1.317
    1CAL  Ca0lh14989   4.251   5.524   1.932
    1CAL  Ca0li14990   5.998   5.227   2.237
    1CAL  Ca0lj14991   5.998   6.030   2.237
    1CAL  Ca0lk14992   5.750   5.925   1.930
    1CAL  Ca0ll14993   5.251   4.931   1.317
    1CAL  Ca0lm14994   6.001   6.232   1.624
    1CAL  Ca0ln14995   5.751   4.931   1.317
    1CAL  Ca0lo14996   4.496   5.228   2.237
    1CAL  Ca0lp14997   4.003   4.826   2.238
    1CAL  Ca0lq14998   5.752   5.524   1.932
    1CAL  Ca0lr14999   4.251   5.735   1.317
    1CAL  Ca0ls15000   6.001   5.430   1.624
    1CAL  Ca0lt15001   5.501   5.831   1.623
    1CAL  Ca0lu15002   4.251   6.327   1.932
    1CAL  Ca0lv15003   5.751   6.136   1.318
    1CAL  Ca0lw15004   4.501   5.831   1.623
    1CAL  Ca0lx15005   4.497   6.031   2.237
    1CAL  Ca0ly15006   6.001   5.028   1.624
    1CAL  Ca0lz15007   4.501   6.232   1.624
    1CAL  Ca0m015008   5.497   5.227   2.237
    1CAL  Ca0m115009   5.251   5.735   1.317
    1CAL  Ca0m215010   4.751   5.735   1.317
    1CAL  Ca0m315011   5.001   5.028   1.624
    1CAL  Ca0m415012   5.001   5.831   1.623
    1CAL  Ca0m515013   4.501   5.430   1.624
    1CAL  Ca0m615014   5.001   5.430   1.624
    1CAL  Ca0m715015   4.750   5.925   1.931
    1CAL  Ca0m815016   4.251   4.931   1.317
    1CAL  Ca0m915017   4.751   5.333   1.317
    1CAL  Ca0mA15018   5.251   5.333   1.317
    1CAL  Ca0mB15019   5.250   5.925   1.931
    1CAL  Ca0mC15020   5.251   6.326   1.932
    1CAL  Ca0mD15021   5.750   5.122   1.932
    1CAL  Ca0mE15022   5.003   4.826   2.237
    1CAL  Ca0mF15023   4.749   5.122   1.932
    1CAL  Ca0mG15024   4.504   5.629   2.236
    1CAL  Ca0mH15025   4.501   5.028   1.624
    1CAL  Ca0mI15026   4.751   4.931   1.317
    1CAL  Ca0mJ15027   5.251   6.136   1.318
    1CAL  Ca0mK15028   5.250   5.122   1.932
    1CAL  Ca0mL15029   4.997   5.227   2.237
    1CAL  Ca0mM15030   4.751   6.136   1.318
    1CAL  Ca0mN15031   4.997   6.030   2.237
    1CAL  Ca0mO15032   4.251   6.136   1.318
    1CAL  Ca0mP15033   5.501   5.028   1.624
    1CAL  Ca0mQ15034   5.504   5.629   2.236
    1CAL  Ca0mR15035   5.503   4.825   2.237
    1CAL  Ca0mS15036   4.751   5.524   1.932
    1CAL  Ca0mT15037   5.751   6.327   1.932
    1CAL  Ca0mU15038   5.251   5.524   1.932
    1CAL  Ca0mV15039   4.250   5.122   1.932
    1CAL  Ca0mW15040   6.001   5.831   1.623
    1CAL  C00mX15041   6.001   6.336   2.545
    1CAL  C00mY15042   5.251   4.826   2.852
    1CAL  C00mZ15043   4.251   4.826   2.852
    1CAL  C00ma15044   5.500   5.324   3.158
    1CAL  C00mb15045   5.500   6.127   3.158
    1CAL  C00mc15046   4.751   4.826   2.852
    1CAL  C00md15047   5.001   5.534   2.545
    1CAL  C00me15048   5.251   6.031   2.849
    1CAL  C00mf15049   4.751   6.031   2.850
    1CAL  C00mg15050   4.501   5.726   3.159
    1CAL  C00mh15051   4.501   5.132   2.545
    1CAL  C00mi15052   5.001   5.936   2.545
    1CAL  C00mj15053   5.001   5.132   2.545
    1CAL  C00mk15054   4.251   5.229   2.852
    1CAL  C00ml15055   4.501   4.922   3.159
    1CAL  C00mm15056   5.001   5.726   3.158
    1CAL  C00mn15057   5.751   4.826   2.852
    1CAL  C00mo15058   5.501   4.922   3.159
    1CAL  C00mp15059   4.251   5.631   2.852
    1CAL  C00mq15060   6.000   5.324   3.159
    1CAL  C00mr15061   6.001   5.726   3.158
    1CAL  C00ms15062   6.001   5.132   2.545
    1CAL  C00mt15063   6.001   5.936   2.545
    1CAL  C00mu15064   4.251   6.031   2.850
    1CAL  C00mv15065   4.500   5.324   3.158
    1CAL  C00mw15066   5.501   5.534   2.545
    1CAL  C00mx15067   6.001   5.534   2.545
    1CAL  C00my15068   5.751   5.229   2.852
    1CAL  C00mz15069   5.251   5.229   2.852
    1CAL  C00n015070   5.501   5.132   2.545
    1CAL  C00n115071   5.501   5.726   3.158
    1CAL  C00n215072   4.499   6.127   3.158
    1CAL  C00n315073   5.501   6.336   2.545
    1CAL  C00n415074   4.751   5.229   2.852
    1CAL  C00n515075   5.251   5.631   2.852
    1CAL  C00n615076   4.501   5.936   2.545
    1CAL  C00n715077   5.751   6.031   2.849
    1CAL  C00n815078   5.001   6.336   2.545
    1CAL  C00n915079   6.000   6.127   3.159
    1CAL  C00nA15080   5.001   4.922   3.158
    1CAL  C00nB15081   5.000   6.127   3.158
    1CAL  C00nC15082   5.000   5.324   3.159
    1CAL  C00nD15083   5.751   5.631   2.852
    1CAL  C00nE15084   4.501   6.336   2.545
    1CAL  C00nF15085   5.501   5.936   2.545
    1CAL  C00nG15086   4.501   5.534   2.545
    1CAL  C00nH15087   4.751   5.631   2.852
    1CAL  C00nI15088   6.001   4.922   3.159
    1CAL  C00nJ15089   4.752   5.422   3.469
    1CAL  C00nK15090   4.748   5.021   3.469
    1CAL  C00nL15091   4.748   5.824   3.468
    1CAL  C00nM15092   4.752   6.225   3.469
    1CAL  C00nN15093   5.752   5.422   3.469
    1CAL  C00nO15094   5.748   5.021   3.469
    1CAL  C00nP15095   5.752   6.225   3.469
    1CAL  C00nQ15096   5.749   5.824   3.468
    1CAL  C00nR15097   5.252   6.225   3.469
    1CAL  C00nS15098   5.249   5.823   3.469
    1CAL  C00nT15099   5.252   5.422   3.469
    1CAL  C00nU15100   5.248   5.020   3.470
    1CAL  C00nV15101   4.252   6.225   3.470
    1CAL  C00nW15102   4.249   5.823   3.470
    1CAL  C00nX15103   4.252   5.423   3.469
    1CAL  C00nY15104   4.248   5.020   3.471
    1CAL  O02LZ15105   4.186   5.553   2.931
    1CAL  O02La15106   5.187   5.710   2.773
    1CAL  O02Lb15107   5.186   5.553   2.931
    1CAL  O02Lc15108   5.380   5.631   2.853
    1CAL  O02Ld15109   4.565   6.257   2.624
    1CAL  O02Le15110   4.372   6.337   2.544
    1CAL  O02Lf15111   4.565   5.613   2.466
    1CAL  O02Lg15112   4.687   5.710   2.773
    1CAL  O02Lh15113   4.686   5.553   2.931
    1CAL  O02Li15114   4.880   5.631   2.853
    1CAL  O02Lj15115   4.566   6.414   2.466
    1CAL  O02Lk15116   4.565   5.456   2.624
    1CAL  O02Ll15117   4.372   5.534   2.545
    1CAL  O02Lm15118   5.129   6.126   3.159
    1CAL  O02Ln15119   4.936   6.205   3.078
    1CAL  O02Lo15120   4.937   5.403   3.078
    1CAL  O02Lp15121   4.934   5.246   3.238
    1CAL  O02Lq15122   5.129   5.323   3.160
    1CAL  O02Lr15123   4.934   6.049   3.238
    1CAL  O02Ls15124   4.622   5.229   2.852
    1CAL  O02Lt15125   5.064   5.805   3.078
    1CAL  O02Lu15126   5.123   6.031   2.849
    1CAL  O02Lv15127   5.315   5.952   2.929
    1CAL  O02Lw15128   5.316   6.109   2.771
    1CAL  O02Lx15129   4.437   5.053   2.624
    1CAL  O02Ly15130   4.436   5.210   2.466
    1CAL  O02Lz15131   4.622   6.031   2.849
    1CAL  O02M015132   4.815   5.952   2.929
    1CAL  O02M115133   4.816   6.109   2.771
    1CAL  O02M215134   4.315   5.308   2.773
    1CAL  O02M315135   4.815   5.150   2.931
    1CAL  O02M415136   4.937   6.015   2.465
    1CAL  O02M515137   5.130   5.936   2.545
    1CAL  O02M615138   4.315   5.150   2.932
    1CAL  O02M715139   4.122   5.229   2.852
    1CAL  O02M815140   4.815   5.308   2.773
    1CAL  O02M915141   4.937   5.211   2.465
    1CAL  O02MA15142   4.937   5.053   2.624
    1CAL  O02MB15143   5.130   5.132   2.545
    1CAL  O02MC15144   4.871   5.725   3.159
    1CAL  O02MD15145   5.067   5.648   3.237
    1CAL  O02ME15146   4.936   5.858   2.624
    1CAL  O02MF15147   5.687   5.710   2.773
    1CAL  O02MG15148   5.686   5.553   2.931
    1CAL  O02MH15149   5.880   5.631   2.853
    1CAL  O02MI15150   5.935   6.048   3.238
    1CAL  O02MJ15151   5.937   5.403   3.079
    1CAL  O02MK15152   5.935   5.245   3.238
    1CAL  O02ML15153   4.129   6.126   3.160
    1CAL  O02MM15154   4.065   5.001   3.079
    1CAL  O02MN15155   5.437   6.015   2.465
    1CAL  O02MO15156   5.436   5.858   2.624
    1CAL  O02MP15157   5.630   5.936   2.545
    1CAL  O02MQ15158   4.066   4.844   3.239
    1CAL  O02MR15159   5.435   6.049   3.238
    1CAL  O02MS15160   4.066   6.414   2.466
    1CAL  O02MT15161   4.065   6.257   2.624
    1CAL  O02MU15162   4.872   6.337   2.544
    1CAL  O02MV15163   5.872   5.725   3.160
    1CAL  O02MW15164   5.937   5.053   2.624
    1CAL  O02MX15165   5.065   5.001   3.079
    1CAL  O02MY15166   4.437   6.015   2.465
    1CAL  O02MZ15167   4.436   5.858   2.624
    1CAL  O02Ma15168   4.630   5.936   2.545
    1CAL  O02Mb15169   5.066   4.843   3.238
    1CAL  O02Mc15170   4.434   6.049   3.238
    1CAL  O02Md15171   4.872   4.922   3.159
    1CAL  O02Me15172   5.873   5.534   2.545
    1CAL  O02Mf15173   5.066   6.414   2.466
    1CAL  O02Mg15174   5.065   6.257   2.624
    1CAL  O02Mh15175   5.623   6.031   2.849
    1CAL  O02Mi15176   5.815   5.952   2.929
    1CAL  O02Mj15177   5.816   6.109   2.770
    1CAL  O02Mk15178   5.938   6.015   2.465
    1CAL  O02Ml15179   5.936   5.858   2.624
    1CAL  O02Mm15180   5.937   5.211   2.465
    1CAL  O02Mn15181   4.630   5.132   2.544
    1CAL  O02Mo15182   4.380   5.631   2.853
    1CAL  O02Mp15183   4.371   5.725   3.162
    1CAL  O02Mq15184   5.066   5.456   2.624
    1CAL  O02Mr15185   5.565   6.257   2.624
    1CAL  O02Ms15186   5.566   6.414   2.466
    1CAL  O02Mt15187   5.623   5.229   2.852
    1CAL  O02Mu15188   5.816   5.150   2.931
    1CAL  O02Mv15189   5.373   6.337   2.544
    1CAL  O02Mw15190   5.122   5.229   2.852
    1CAL  O02Mx15191   5.315   5.308   2.773
    1CAL  O02My15192   4.629   6.126   3.159
    1CAL  O02Mz15193   5.437   5.210   2.466
    1CAL  O02N015194   5.437   5.053   2.624
    1CAL  O02N115195   5.630   5.132   2.544
    1CAL  O02N215196   5.372   5.725   3.161
    1CAL  O02N315197   5.567   5.648   3.237
    1CAL  O02N415198   5.316   5.150   2.931
    1CAL  O02N515199   5.564   5.806   3.078
    1CAL  O02N615200   4.066   5.456   2.624
    1CAL  O02N715201   5.566   5.456   2.624
    1CAL  O02N815202   4.187   5.710   2.773
    1CAL  O02N915203   4.064   5.806   3.078
    1CAL  O02NA15204   4.066   5.648   3.238
    1CAL  O02NB15205   4.129   5.323   3.160
    1CAL  O02NC15206   4.130   5.132   2.545
    1CAL  O02ND15207   4.129   5.936   2.545
    1CAL  O02NE15208   5.565   5.613   2.466
    1CAL  O02NF15209   4.316   6.109   2.771
    1CAL  O02NG15210   5.873   6.337   2.544
    1CAL  O02NH15211   5.872   4.922   3.160
    1CAL  O02NI15212   4.122   6.031   2.849
    1CAL  O02NJ15213   5.936   6.205   3.078
    1CAL  O02NK15214   4.065   5.613   2.466
    1CAL  O02NL15215   5.373   5.534   2.545
    1CAL  O02NM15216   4.315   5.952   2.929
    1CAL  O02NN15217   4.435   6.206   3.078
    1CAL  O02NO15218   4.629   5.323   3.159
    1CAL  O02NP15219   5.372   4.921   3.161
    1CAL  O02NQ15220   5.437   5.403   3.078
    1CAL  O02NR15221   5.435   5.246   3.238
    1CAL  O02NS15222   5.630   5.323   3.159
    1CAL  O02NT15223   4.880   4.826   2.852
    1CAL  O02NU15224   4.687   6.354   2.931
    1CAL  O02NV15225   5.435   6.205   3.078
    1CAL  O02NW15226   5.629   6.126   3.158
    1CAL  O02NX15227   4.687   4.905   2.773
    1CAL  O02NY15228   4.564   5.001   3.079
    1CAL  O02NZ15229   4.567   4.844   3.238
    1CAL  O02Na15230   4.371   4.922   3.161
    1CAL  O02Nb15231   4.563   5.806   3.078
    1CAL  O02Nc15232   4.568   5.648   3.238
    1CAL  O02Nd15233   4.872   5.534   2.545
    1CAL  O02Ne15234   5.567   4.843   3.238
    1CAL  O02Nf15235   5.565   5.001   3.079
    1CAL  O02Ng15236   4.434   5.246   3.238
    1CAL  O02Nh15237   4.436   5.404   3.079
    1CAL  O02Ni15238   5.687   4.905   2.773
    1CAL  O02Nj15239   5.687   6.354   2.931
    1CAL  O02Nk15240   5.880   4.826   2.852
    1CAL  O02Nl15241   4.380   4.827   2.852
    1CAL  O02Nm15242   4.187   6.354   2.931
    1CAL  O02Nn15243   4.186   4.905   2.773
    1CAL  O02No15244   5.187   4.905   2.773
    1CAL  O02Np15245   5.187   6.354   2.931
    1CAL  O02Nq15246   5.380   4.827   2.852
    1CAL  O02Nr15247   5.065   5.613   2.466
    1CAL  O02Ns15248   5.816   5.308   2.773
    1CAL  O02Nt15249   4.821   6.299   3.387
    1CAL  O02Nu15250   4.812   6.147   3.553
    1CAL  O02Nv15251   4.622   6.231   3.467
    1CAL  O02Nw15252   4.679   5.898   3.386
    1CAL  O02Nx15253   4.688   5.747   3.552
    1CAL  O02Ny15254   4.878   5.829   3.465
    1CAL  O02Nz15255   4.878   5.026   3.466
    1CAL  O02O015256   4.688   4.943   3.553
    1CAL  O02O115257   4.679   5.094   3.387
    1CAL  O02O215258   4.622   5.428   3.466
    1CAL  O02O315259   4.812   5.344   3.552
    1CAL  O02O415260   4.821   5.496   3.387
    1CAL  O02O515261   5.680   5.898   3.386
    1CAL  O02O615262   5.878   5.829   3.466
    1CAL  O02O715263   5.688   5.746   3.552
    1CAL  O02O815264   5.623   6.230   3.466
    1CAL  O02O915265   5.812   6.147   3.552
    1CAL  O02OA15266   5.821   6.299   3.387
    1CAL  O02OB15267   5.679   5.094   3.387
    1CAL  O02OC15268   5.878   5.026   3.466
    1CAL  O02OD15269   5.688   4.943   3.553
    1CAL  O02OE15270   5.622   5.427   3.466
    1CAL  O02OF15271   5.812   5.344   3.552
    1CAL  O02OG15272   5.821   5.496   3.387
    1CAL  O02OH15273   5.312   6.147   3.553
    1CAL  O02OI15274   5.122   6.230   3.467
    1CAL  O02OJ15275   5.321   6.298   3.387
    1CAL  O02OK15276   5.180   5.897   3.387
    1CAL  O02OL15277   5.189   5.745   3.553
    1CAL  O02OM15278   5.379   5.829   3.467
    1CAL  O02ON15279   5.312   5.344   3.553
    1CAL  O02OO15280   5.321   5.495   3.387
    1CAL  O02OP15281   5.122   5.428   3.466
    1CAL  O02OQ15282   5.180   5.094   3.388
    1CAL  O02OR15283   5.188   4.942   3.553
    1CAL  O02OS15284   5.378   5.026   3.468
    1CAL  O02OT15285   4.311   6.147   3.554
    1CAL  O02OU15286   4.122   6.231   3.467
    1CAL  O02OV15287   4.321   6.298   3.388
    1CAL  O02OW15288   4.180   5.897   3.388
    1CAL  O02OX15289   4.189   5.745   3.553
    1CAL  O02OY15290   4.379   5.829   3.469
    1CAL  O02OZ15291   4.311   5.345   3.554
    1CAL  O02Oa15292   4.122   5.428   3.466
    1CAL  O02Ob15293   4.321   5.496   3.387
    1CAL  O02Oc15294   4.378   5.026   3.469
    1CAL  O02Od15295   4.188   4.942   3.554
    1CAL  O02Oe15296   4.180   5.094   3.389
    1CAL  Ca0mX15297   5.003   5.629   3.464
    1CAL  Ca0mY15298   5.751   5.333   2.545
    1CAL  Ca0mZ15299   5.497   6.030   3.465
    1CAL  Ca0ma15300   4.003   5.629   3.465
    1CAL  Ca0mb15301   4.751   6.326   3.160
    1CAL  Ca0mc15302   5.751   5.735   2.545
    1CAL  Ca0md15303   5.501   5.430   2.852
    1CAL  Ca0me15304   5.501   6.232   2.852
    1CAL  Ca0mf15305   4.250   5.925   3.159
    1CAL  Ca0mg15306   5.001   6.232   2.852
    1CAL  Ca0mh15307   4.503   4.826   3.465
    1CAL  Ca0mi15308   4.251   5.333   2.545
    1CAL  Ca0mj15309   4.251   5.524   3.160
    1CAL  Ca0mk15310   5.998   5.227   3.465
    1CAL  Ca0ml15311   5.998   6.030   3.465
    1CAL  Ca0mm15312   5.750   5.925   3.158
    1CAL  Ca0mn15313   5.251   4.931   2.545
    1CAL  Ca0mo15314   6.001   6.232   2.852
    1CAL  Ca0mp15315   5.751   4.931   2.545
    1CAL  Ca0mq15316   4.496   5.228   3.465
    1CAL  Ca0mr15317   4.003   4.826   3.466
    1CAL  Ca0ms15318   5.752   5.524   3.160
    1CAL  Ca0mt15319   4.251   5.735   2.545
    1CAL  Ca0mu15320   6.001   5.430   2.852
    1CAL  Ca0mv15321   5.501   5.831   2.851
    1CAL  Ca0mw15322   4.251   6.327   3.160
    1CAL  Ca0mx15323   5.751   6.136   2.546
    1CAL  Ca0my15324   4.501   5.831   2.851
    1CAL  Ca0mz15325   4.497   6.031   3.465
    1CAL  Ca0n015326   6.001   5.028   2.852
    1CAL  Ca0n115327   4.501   6.232   2.852
    1CAL  Ca0n215328   5.497   5.227   3.465
    1CAL  Ca0n315329   5.251   5.735   2.545
    1CAL  Ca0n415330   4.751   5.735   2.545
    1CAL  Ca0n515331   5.001   5.028   2.852
    1CAL  Ca0n615332   5.001   5.831   2.851
    1CAL  Ca0n715333   4.501   5.430   2.852
    1CAL  Ca0n815334   5.001   5.430   2.852
    1CAL  Ca0n915335   4.750   5.925   3.159
    1CAL  Ca0nA15336   4.251   4.931   2.545
    1CAL  Ca0nB15337   4.751   5.333   2.545
    1CAL  Ca0nC15338   5.251   5.333   2.545
    1CAL  Ca0nD15339   5.250   5.925   3.159
    1CAL  Ca0nE15340   5.251   6.326   3.160
    1CAL  Ca0nF15341   5.750   5.122   3.160
    1CAL  Ca0nG15342   5.003   4.826   3.465
    1CAL  Ca0nH15343   4.749   5.122   3.160
    1CAL  Ca0nI15344   4.504   5.629   3.464
    1CAL  Ca0nJ15345   4.501   5.028   2.852
    1CAL  Ca0nK15346   4.751   4.931   2.545
    1CAL  Ca0nL15347   5.251   6.136   2.546
    1CAL  Ca0nM15348   5.250   5.122   3.160
    1CAL  Ca0nN15349   4.997   5.227   3.465
    1CAL  Ca0nO15350   4.751   6.136   2.546
    1CAL  Ca0nP15351   4.997   6.030   3.465
    1CAL  Ca0nQ15352   4.251   6.136   2.546
    1CAL  Ca0nR15353   5.501   5.028   2.852
    1CAL  Ca0nS15354   5.504   5.629   3.464
    1CAL  Ca0nT15355   5.503   4.825   3.465
    1CAL  Ca0nU15356   4.751   5.524   3.160
    1CAL  Ca0nV15357   5.751   6.327   3.160
    1CAL  Ca0nW15358   5.251   5.524   3.160
    1CAL  Ca0nX15359   4.250   5.122   3.160
    1CAL  Ca0nY15360   6.001   5.831   2.851
    1CAL  C00nZ15361   6.001   7.942   0.089
    1CAL  C00na15362   5.251   6.432   0.396
    1CAL  C00nb15363   4.251   6.432   0.396
    1CAL  C00nc15364   5.500   6.930   0.702
    1CAL  C00nd15365   5.500   7.733   0.702
    1CAL  C00ne15366   4.751   6.432   0.396
    1CAL  C00nf15367   5.001   7.140   0.089
    1CAL  C00ng15368   5.251   7.637   0.393
    1CAL  C00nh15369   4.751   7.637   0.394
    1CAL  C00ni15370   4.501   7.332   0.703
    1CAL  C00nj15371   4.501   6.738   0.089
    1CAL  C00nk15372   5.001   7.542   0.089
    1CAL  C00nl15373   5.001   6.738   0.089
    1CAL  C00nm15374   4.251   6.835   0.396
    1CAL  C00nn15375   4.501   6.528   0.703
    1CAL  C00no15376   5.001   7.332   0.702
    1CAL  C00np15377   5.751   6.432   0.396
    1CAL  C00nq15378   5.501   6.528   0.703
    1CAL  C00nr15379   4.251   7.237   0.396
    1CAL  C00ns15380   6.000   6.930   0.703
    1CAL  C00nt15381   6.001   7.332   0.702
    1CAL  C00nu15382   6.001   6.738   0.089
    1CAL  C00nv15383   6.001   7.542   0.089
    1CAL  C00nw15384   4.251   7.637   0.394
    1CAL  C00nx15385   4.500   6.930   0.702
    1CAL  C00ny15386   5.501   7.140   0.089
    1CAL  C00nz15387   6.001   7.140   0.089
    1CAL  C00o015388   5.751   6.835   0.396
    1CAL  C00o115389   5.251   6.835   0.396
    1CAL  C00o215390   5.501   6.738   0.089
    1CAL  C00o315391   5.501   7.332   0.702
    1CAL  C00o415392   4.499   7.733   0.702
    1CAL  C00o515393   5.501   7.942   0.089
    1CAL  C00o615394   4.751   6.835   0.396
    1CAL  C00o715395   5.251   7.237   0.396
    1CAL  C00o815396   4.501   7.542   0.089
    1CAL  C00o915397   5.751   7.637   0.393
    1CAL  C00oA15398   5.001   7.942   0.089
    1CAL  C00oB15399   6.000   7.733   0.703
    1CAL  C00oC15400   5.001   6.528   0.702
    1CAL  C00oD15401   5.000   7.733   0.702
    1CAL  C00oE15402   5.000   6.930   0.703
    1CAL  C00oF15403   5.751   7.237   0.396
    1CAL  C00oG15404   4.501   7.942   0.089
    1CAL  C00oH15405   5.501   7.542   0.089
    1CAL  C00oI15406   4.501   7.140   0.089
    1CAL  C00oJ15407   4.751   7.237   0.396
    1CAL  C00oK15408   6.001   6.528   0.703
    1CAL  C00oL15409   4.752   7.028   1.013
    1CAL  C00oM15410   4.748   6.627   1.013
    1CAL  C00oN15411   4.748   7.430   1.012
    1CAL  C00oO15412   4.752   7.831   1.013
    1CAL  C00oP15413   5.752   7.028   1.013
    1CAL  C00oQ15414   5.748   6.627   1.013
    1CAL  C00oR15415   5.752   7.831   1.013
    1CAL  C00oS15416   5.749   7.430   1.012
    1CAL  C00oT15417   5.252   7.831   1.013
    1CAL  C00oU15418   5.249   7.429   1.013
    1CAL  C00oV15419   5.252   7.028   1.013
    1CAL  C00oW15420   5.248   6.626   1.014
    1CAL  C00oX15421   4.252   7.831   1.014
    1CAL  C00oY15422   4.249   7.429   1.014
    1CAL  C00oZ15423   4.252   7.029   1.013
    1CAL  C00oa15424   4.248   6.626   1.015
    1CAL  O02Of15425   4.186   7.159   0.475
    1CAL  O02Og15426   5.187   7.316   0.317
    1CAL  O02Oh15427   5.186   7.159   0.475
    1CAL  O02Oi15428   5.380   7.237   0.397
    1CAL  O02Oj15429   4.565   7.863   0.168
    1CAL  O02Ok15430   4.372   7.943   0.088
    1CAL  O02Ol15431   4.565   7.219   0.010
    1CAL  O02Om15432   4.687   7.316   0.317
    1CAL  O02On15433   4.686   7.159   0.475
    1CAL  O02Oo15434   4.880   7.237   0.397
    1CAL  O02Op15435   4.566   8.020   0.010
    1CAL  O02Oq15436   4.565   7.062   0.168
    1CAL  O02Or15437   4.372   7.140   0.089
    1CAL  O02Os15438   5.129   7.732   0.703
    1CAL  O02Ot15439   4.936   7.811   0.622
    1CAL  O02Ou15440   4.937   7.009   0.622
    1CAL  O02Ov15441   4.934   6.852   0.782
    1CAL  O02Ow15442   5.129   6.929   0.704
    1CAL  O02Ox15443   4.934   7.655   0.782
    1CAL  O02Oy15444   4.622   6.835   0.396
    1CAL  O02Oz15445   5.064   7.411   0.622
    1CAL  O02P015446   5.123   7.637   0.393
    1CAL  O02P115447   5.315   7.558   0.473
    1CAL  O02P215448   5.316   7.715   0.315
    1CAL  O02P315449   4.437   6.659   0.168
    1CAL  O02P415450   4.436   6.816   0.010
    1CAL  O02P515451   4.622   7.637   0.393
    1CAL  O02P615452   4.815   7.558   0.473
    1CAL  O02P715453   4.816   7.715   0.315
    1CAL  O02P815454   4.315   6.914   0.317
    1CAL  O02P915455   4.815   6.756   0.475
    1CAL  O02PA15456   4.937   7.621   0.009
    1CAL  O02PB15457   5.130   7.542   0.089
    1CAL  O02PC15458   4.315   6.756   0.476
    1CAL  O02PD15459   4.122   6.835   0.396
    1CAL  O02PE15460   4.815   6.914   0.317
    1CAL  O02PF15461   4.937   6.817   0.009
    1CAL  O02PG15462   4.937   6.659   0.168
    1CAL  O02PH15463   5.130   6.738   0.089
    1CAL  O02PI15464   4.871   7.331   0.703
    1CAL  O02PJ15465   5.067   7.254   0.781
    1CAL  O02PK15466   4.936   7.464   0.168
    1CAL  O02PL15467   5.687   7.316   0.317
    1CAL  O02PM15468   5.686   7.159   0.475
    1CAL  O02PN15469   5.880   7.237   0.397
    1CAL  O02PO15470   5.935   7.654   0.782
    1CAL  O02PP15471   5.937   7.009   0.623
    1CAL  O02PQ15472   5.935   6.851   0.782
    1CAL  O02PR15473   4.129   7.732   0.704
    1CAL  O02PS15474   4.065   6.607   0.623
    1CAL  O02PT15475   5.437   7.621   0.009
    1CAL  O02PU15476   5.436   7.464   0.168
    1CAL  O02PV15477   5.630   7.542   0.089
    1CAL  O02PW15478   4.066   6.450   0.783
    1CAL  O02PX15479   5.435   7.655   0.782
    1CAL  O02PY15480   4.066   8.020   0.010
    1CAL  O02PZ15481   4.065   7.863   0.168
    1CAL  O02Pa15482   4.872   7.943   0.088
    1CAL  O02Pb15483   5.872   7.331   0.704
    1CAL  O02Pc15484   5.937   6.659   0.168
    1CAL  O02Pd15485   5.065   6.607   0.623
    1CAL  O02Pe15486   4.437   7.621   0.009
    1CAL  O02Pf15487   4.436   7.464   0.168
    1CAL  O02Pg15488   4.630   7.542   0.089
    1CAL  O02Ph15489   5.066   6.449   0.782
    1CAL  O02Pi15490   4.434   7.655   0.782
    1CAL  O02Pj15491   4.872   6.528   0.703
    1CAL  O02Pk15492   5.873   7.140   0.089
    1CAL  O02Pl15493   5.066   8.020   0.010
    1CAL  O02Pm15494   5.065   7.863   0.168
    1CAL  O02Pn15495   5.623   7.637   0.393
    1CAL  O02Po15496   5.815   7.558   0.473
    1CAL  O02Pp15497   5.816   7.715   0.314
    1CAL  O02Pq15498   5.938   7.621   0.009
    1CAL  O02Pr15499   5.936   7.464   0.168
    1CAL  O02Ps15500   5.937   6.817   0.009
    1CAL  O02Pt15501   4.630   6.738   0.088
    1CAL  O02Pu15502   4.380   7.237   0.397
    1CAL  O02Pv15503   4.371   7.331   0.706
    1CAL  O02Pw15504   5.066   7.062   0.168
    1CAL  O02Px15505   5.565   7.863   0.168
    1CAL  O02Py15506   5.566   8.020   0.010
    1CAL  O02Pz15507   5.623   6.835   0.396
    1CAL  O02Q015508   5.816   6.756   0.475
    1CAL  O02Q115509   5.373   7.943   0.088
    1CAL  O02Q215510   5.122   6.835   0.396
    1CAL  O02Q315511   5.315   6.914   0.317
    1CAL  O02Q415512   4.629   7.732   0.703
    1CAL  O02Q515513   5.437   6.816   0.010
    1CAL  O02Q615514   5.437   6.659   0.168
    1CAL  O02Q715515   5.630   6.738   0.088
    1CAL  O02Q815516   5.372   7.331   0.705
    1CAL  O02Q915517   5.567   7.254   0.781
    1CAL  O02QA15518   5.316   6.756   0.475
    1CAL  O02QB15519   5.564   7.412   0.622
    1CAL  O02QC15520   4.066   7.062   0.168
    1CAL  O02QD15521   5.566   7.062   0.168
    1CAL  O02QE15522   4.187   7.316   0.317
    1CAL  O02QF15523   4.064   7.412   0.622
    1CAL  O02QG15524   4.066   7.254   0.782
    1CAL  O02QH15525   4.129   6.929   0.704
    1CAL  O02QI15526   4.130   6.738   0.089
    1CAL  O02QJ15527   4.129   7.542   0.089
    1CAL  O02QK15528   5.565   7.219   0.010
    1CAL  O02QL15529   4.316   7.715   0.315
    1CAL  O02QM15530   5.873   7.943   0.088
    1CAL  O02QN15531   5.872   6.528   0.704
    1CAL  O02QO15532   4.122   7.637   0.393
    1CAL  O02QP15533   5.936   7.811   0.622
    1CAL  O02QQ15534   4.065   7.219   0.010
    1CAL  O02QR15535   5.373   7.140   0.089
    1CAL  O02QS15536   4.315   7.558   0.473
    1CAL  O02QT15537   4.435   7.812   0.622
    1CAL  O02QU15538   4.629   6.929   0.703
    1CAL  O02QV15539   5.372   6.527   0.705
    1CAL  O02QW15540   5.437   7.009   0.622
    1CAL  O02QX15541   5.435   6.852   0.782
    1CAL  O02QY15542   5.630   6.929   0.703
    1CAL  O02QZ15543   4.880   6.432   0.396
    1CAL  O02Qa15544   4.687   7.960   0.475
    1CAL  O02Qb15545   5.435   7.811   0.622
    1CAL  O02Qc15546   5.629   7.732   0.702
    1CAL  O02Qd15547   4.687   6.511   0.317
    1CAL  O02Qe15548   4.564   6.607   0.623
    1CAL  O02Qf15549   4.567   6.450   0.782
    1CAL  O02Qg15550   4.371   6.528   0.705
    1CAL  O02Qh15551   4.563   7.412   0.622
    1CAL  O02Qi15552   4.568   7.254   0.782
    1CAL  O02Qj15553   4.872   7.140   0.089
    1CAL  O02Qk15554   5.567   6.449   0.782
    1CAL  O02Ql15555   5.565   6.607   0.623
    1CAL  O02Qm15556   4.434   6.852   0.782
    1CAL  O02Qn15557   4.436   7.010   0.623
    1CAL  O02Qo15558   5.687   6.511   0.317
    1CAL  O02Qp15559   5.687   7.960   0.475
    1CAL  O02Qq15560   5.880   6.432   0.396
    1CAL  O02Qr15561   4.380   6.433   0.396
    1CAL  O02Qs15562   4.187   7.960   0.475
    1CAL  O02Qt15563   4.186   6.511   0.317
    1CAL  O02Qu15564   5.187   6.511   0.317
    1CAL  O02Qv15565   5.187   7.960   0.475
    1CAL  O02Qw15566   5.380   6.433   0.396
    1CAL  O02Qx15567   5.065   7.219   0.010
    1CAL  O02Qy15568   5.816   6.914   0.317
    1CAL  O02Qz15569   4.821   7.905   0.931
    1CAL  O02R015570   4.812   7.753   1.097
    1CAL  O02R115571   4.622   7.837   1.011
    1CAL  O02R215572   4.679   7.504   0.930
    1CAL  O02R315573   4.688   7.353   1.096
    1CAL  O02R415574   4.878   7.435   1.009
    1CAL  O02R515575   4.878   6.632   1.010
    1CAL  O02R615576   4.688   6.549   1.097
    1CAL  O02R715577   4.679   6.700   0.931
    1CAL  O02R815578   4.622   7.034   1.010
    1CAL  O02R915579   4.812   6.950   1.096
    1CAL  O02RA15580   4.821   7.102   0.931
    1CAL  O02RB15581   5.680   7.504   0.930
    1CAL  O02RC15582   5.878   7.435   1.010
    1CAL  O02RD15583   5.688   7.352   1.096
    1CAL  O02RE15584   5.623   7.836   1.010
    1CAL  O02RF15585   5.812   7.753   1.096
    1CAL  O02RG15586   5.821   7.905   0.931
    1CAL  O02RH15587   5.679   6.700   0.931
    1CAL  O02RI15588   5.878   6.632   1.010
    1CAL  O02RJ15589   5.688   6.549   1.097
    1CAL  O02RK15590   5.622   7.033   1.010
    1CAL  O02RL15591   5.812   6.950   1.096
    1CAL  O02RM15592   5.821   7.102   0.931
    1CAL  O02RN15593   5.312   7.753   1.097
    1CAL  O02RO15594   5.122   7.836   1.011
    1CAL  O02RP15595   5.321   7.904   0.931
    1CAL  O02RQ15596   5.180   7.503   0.931
    1CAL  O02RR15597   5.189   7.351   1.097
    1CAL  O02RS15598   5.379   7.435   1.011
    1CAL  O02RT15599   5.312   6.950   1.097
    1CAL  O02RU15600   5.321   7.101   0.931
    1CAL  O02RV15601   5.122   7.034   1.010
    1CAL  O02RW15602   5.180   6.700   0.932
    1CAL  O02RX15603   5.188   6.548   1.097
    1CAL  O02RY15604   5.378   6.632   1.012
    1CAL  O02RZ15605   4.311   7.753   1.098
    1CAL  O02Ra15606   4.122   7.837   1.011
    1CAL  O02Rb15607   4.321   7.904   0.932
    1CAL  O02Rc15608   4.180   7.503   0.932
    1CAL  O02Rd15609   4.189   7.351   1.097
    1CAL  O02Re15610   4.379   7.435   1.013
    1CAL  O02Rf15611   4.311   6.951   1.098
    1CAL  O02Rg15612   4.122   7.034   1.010
    1CAL  O02Rh15613   4.321   7.102   0.931
    1CAL  O02Ri15614   4.378   6.632   1.013
    1CAL  O02Rj15615   4.188   6.548   1.098
    1CAL  O02Rk15616   4.180   6.700   0.933
    1CAL  Ca0nZ15617   5.003   7.235   1.008
    1CAL  Ca0na15618   5.751   6.939   0.089
    1CAL  Ca0nb15619   5.497   7.636   1.009
    1CAL  Ca0nc15620   4.003   7.235   1.009
    1CAL  Ca0nd15621   4.751   7.932   0.704
    1CAL  Ca0ne15622   5.751   7.341   0.089
    1CAL  Ca0nf15623   5.501   7.036   0.396
    1CAL  Ca0ng15624   5.501   7.838   0.396
    1CAL  Ca0nh15625   4.250   7.531   0.703
    1CAL  Ca0ni15626   5.001   7.838   0.396
    1CAL  Ca0nj15627   4.503   6.432   1.009
    1CAL  Ca0nk15628   4.251   6.939   0.089
    1CAL  Ca0nl15629   4.251   7.130   0.704
    1CAL  Ca0nm15630   5.998   6.833   1.009
    1CAL  Ca0nn15631   5.998   7.636   1.009
    1CAL  Ca0no15632   5.750   7.531   0.702
    1CAL  Ca0np15633   5.251   6.537   0.089
    1CAL  Ca0nq15634   6.001   7.838   0.396
    1CAL  Ca0nr15635   5.751   6.537   0.089
    1CAL  Ca0ns15636   4.496   6.834   1.009
    1CAL  Ca0nt15637   4.003   6.432   1.010
    1CAL  Ca0nu15638   5.752   7.130   0.704
    1CAL  Ca0nv15639   4.251   7.341   0.089
    1CAL  Ca0nw15640   6.001   7.036   0.396
    1CAL  Ca0nx15641   5.501   7.437   0.395
    1CAL  Ca0ny15642   4.251   7.933   0.704
    1CAL  Ca0nz15643   5.751   7.742   0.090
    1CAL  Ca0o015644   4.501   7.437   0.395
    1CAL  Ca0o115645   4.497   7.637   1.009
    1CAL  Ca0o215646   6.001   6.634   0.396
    1CAL  Ca0o315647   4.501   7.838   0.396
    1CAL  Ca0o415648   5.497   6.833   1.009
    1CAL  Ca0o515649   5.251   7.341   0.089
    1CAL  Ca0o615650   4.751   7.341   0.089
    1CAL  Ca0o715651   5.001   6.634   0.396
    1CAL  Ca0o815652   5.001   7.437   0.395
    1CAL  Ca0o915653   4.501   7.036   0.396
    1CAL  Ca0oA15654   5.001   7.036   0.396
    1CAL  Ca0oB15655   4.750   7.531   0.703
    1CAL  Ca0oC15656   4.251   6.537   0.089
    1CAL  Ca0oD15657   4.751   6.939   0.089
    1CAL  Ca0oE15658   5.251   6.939   0.089
    1CAL  Ca0oF15659   5.250   7.531   0.703
    1CAL  Ca0oG15660   5.251   7.932   0.704
    1CAL  Ca0oH15661   5.750   6.728   0.704
    1CAL  Ca0oI15662   5.003   6.432   1.009
    1CAL  Ca0oJ15663   4.749   6.728   0.704
    1CAL  Ca0oK15664   4.504   7.235   1.008
    1CAL  Ca0oL15665   4.501   6.634   0.396
    1CAL  Ca0oM15666   4.751   6.537   0.089
    1CAL  Ca0oN15667   5.251   7.742   0.090
    1CAL  Ca0oO15668   5.250   6.728   0.704
    1CAL  Ca0oP15669   4.997   6.833   1.009
    1CAL  Ca0oQ15670   4.751   7.742   0.090
    1CAL  Ca0oR15671   4.997   7.636   1.009
    1CAL  Ca0oS15672   4.251   7.742   0.090
    1CAL  Ca0oT15673   5.501   6.634   0.396
    1CAL  Ca0oU15674   5.504   7.235   1.008
    1CAL  Ca0oV15675   5.503   6.431   1.009
    1CAL  Ca0oW15676   4.751   7.130   0.704
    1CAL  Ca0oX15677   5.751   7.933   0.704
    1CAL  Ca0oY15678   5.251   7.130   0.704
    1CAL  Ca0oZ15679   4.250   6.728   0.704
    1CAL  Ca0oa15680   6.001   7.437   0.395
    1CAL  C00ob15681   6.001   7.942   1.317
    1CAL  C00oc15682   5.251   6.432   1.624
    1CAL  C00od15683   4.251   6.432   1.624
    1CAL  C00oe15684   5.500   6.930   1.930
    1CAL  C00of15685   5.500   7.733   1.930
    1CAL  C00og15686   4.751   6.432   1.624
    1CAL  C00oh15687   5.001   7.140   1.317
    1CAL  C00oi15688   5.251   7.637   1.621
    1CAL  C00oj15689   4.751   7.637   1.622
    1CAL  C00ok15690   4.501   7.332   1.931
    1CAL  C00ol15691   4.501   6.738   1.317
    1CAL  C00om15692   5.001   7.542   1.317
    1CAL  C00on15693   5.001   6.738   1.317
    1CAL  C00oo15694   4.251   6.835   1.624
    1CAL  C00op15695   4.501   6.528   1.931
    1CAL  C00oq15696   5.001   7.332   1.930
    1CAL  C00or15697   5.751   6.432   1.624
    1CAL  C00os15698   5.501   6.528   1.931
    1CAL  C00ot15699   4.251   7.237   1.624
    1CAL  C00ou15700   6.000   6.930   1.931
    1CAL  C00ov15701   6.001   7.332   1.930
    1CAL  C00ow15702   6.001   6.738   1.317
    1CAL  C00ox15703   6.001   7.542   1.317
    1CAL  C00oy15704   4.251   7.637   1.622
    1CAL  C00oz15705   4.500   6.930   1.930
    1CAL  C00p015706   5.501   7.140   1.317
    1CAL  C00p115707   6.001   7.140   1.317
    1CAL  C00p215708   5.751   6.835   1.624
    1CAL  C00p315709   5.251   6.835   1.624
    1CAL  C00p415710   5.501   6.738   1.317
    1CAL  C00p515711   5.501   7.332   1.930
    1CAL  C00p615712   4.499   7.733   1.930
    1CAL  C00p715713   5.501   7.942   1.317
    1CAL  C00p815714   4.751   6.835   1.624
    1CAL  C00p915715   5.251   7.237   1.624
    1CAL  C00pA15716   4.501   7.542   1.317
    1CAL  C00pB15717   5.751   7.637   1.621
    1CAL  C00pC15718   5.001   7.942   1.317
    1CAL  C00pD15719   6.000   7.733   1.931
    1CAL  C00pE15720   5.001   6.528   1.930
    1CAL  C00pF15721   5.000   7.733   1.930
    1CAL  C00pG15722   5.000   6.930   1.931
    1CAL  C00pH15723   5.751   7.237   1.624
    1CAL  C00pI15724   4.501   7.942   1.317
    1CAL  C00pJ15725   5.501   7.542   1.317
    1CAL  C00pK15726   4.501   7.140   1.317
    1CAL  C00pL15727   4.751   7.237   1.624
    1CAL  C00pM15728   6.001   6.528   1.931
    1CAL  C00pN15729   4.752   7.028   2.241
    1CAL  C00pO15730   4.748   6.627   2.241
    1CAL  C00pP15731   4.748   7.430   2.240
    1CAL  C00pQ15732   4.752   7.831   2.241
    1CAL  C00pR15733   5.752   7.028   2.241
    1CAL  C00pS15734   5.748   6.627   2.241
    1CAL  C00pT15735   5.752   7.831   2.241
    1CAL  C00pU15736   5.749   7.430   2.240
    1CAL  C00pV15737   5.252   7.831   2.241
    1CAL  C00pW15738   5.249   7.429   2.241
    1CAL  C00pX15739   5.252   7.028   2.241
    1CAL  C00pY15740   5.248   6.626   2.242
    1CAL  C00pZ15741   4.252   7.831   2.242
    1CAL  C00pa15742   4.249   7.429   2.242
    1CAL  C00pb15743   4.252   7.029   2.241
    1CAL  C00pc15744   4.248   6.626   2.243
    1CAL  O02Rl15745   4.186   7.159   1.703
    1CAL  O02Rm15746   5.187   7.316   1.545
    1CAL  O02Rn15747   5.186   7.159   1.703
    1CAL  O02Ro15748   5.380   7.237   1.625
    1CAL  O02Rp15749   4.565   7.863   1.396
    1CAL  O02Rq15750   4.372   7.943   1.316
    1CAL  O02Rr15751   4.565   7.219   1.238
    1CAL  O02Rs15752   4.687   7.316   1.545
    1CAL  O02Rt15753   4.686   7.159   1.703
    1CAL  O02Ru15754   4.880   7.237   1.625
    1CAL  O02Rv15755   4.566   8.020   1.238
    1CAL  O02Rw15756   4.565   7.062   1.396
    1CAL  O02Rx15757   4.372   7.140   1.317
    1CAL  O02Ry15758   5.129   7.732   1.931
    1CAL  O02Rz15759   4.936   7.811   1.850
    1CAL  O02S015760   4.937   7.009   1.850
    1CAL  O02S115761   4.934   6.852   2.010
    1CAL  O02S215762   5.129   6.929   1.932
    1CAL  O02S315763   4.934   7.655   2.010
    1CAL  O02S415764   4.622   6.835   1.624
    1CAL  O02S515765   5.064   7.411   1.850
    1CAL  O02S615766   5.123   7.637   1.621
    1CAL  O02S715767   5.315   7.558   1.701
    1CAL  O02S815768   5.316   7.715   1.543
    1CAL  O02S915769   4.437   6.659   1.396
    1CAL  O02SA15770   4.436   6.816   1.238
    1CAL  O02SB15771   4.622   7.637   1.621
    1CAL  O02SC15772   4.815   7.558   1.701
    1CAL  O02SD15773   4.816   7.715   1.543
    1CAL  O02SE15774   4.315   6.914   1.545
    1CAL  O02SF15775   4.815   6.756   1.703
    1CAL  O02SG15776   4.937   7.621   1.237
    1CAL  O02SH15777   5.130   7.542   1.317
    1CAL  O02SI15778   4.315   6.756   1.704
    1CAL  O02SJ15779   4.122   6.835   1.624
    1CAL  O02SK15780   4.815   6.914   1.545
    1CAL  O02SL15781   4.937   6.817   1.237
    1CAL  O02SM15782   4.937   6.659   1.396
    1CAL  O02SN15783   5.130   6.738   1.317
    1CAL  O02SO15784   4.871   7.331   1.931
    1CAL  O02SP15785   5.067   7.254   2.009
    1CAL  O02SQ15786   4.936   7.464   1.396
    1CAL  O02SR15787   5.687   7.316   1.545
    1CAL  O02SS15788   5.686   7.159   1.703
    1CAL  O02ST15789   5.880   7.237   1.625
    1CAL  O02SU15790   5.935   7.654   2.010
    1CAL  O02SV15791   5.937   7.009   1.851
    1CAL  O02SW15792   5.935   6.851   2.010
    1CAL  O02SX15793   4.129   7.732   1.932
    1CAL  O02SY15794   4.065   6.607   1.851
    1CAL  O02SZ15795   5.437   7.621   1.237
    1CAL  O02Sa15796   5.436   7.464   1.396
    1CAL  O02Sb15797   5.630   7.542   1.317
    1CAL  O02Sc15798   4.066   6.450   2.011
    1CAL  O02Sd15799   5.435   7.655   2.010
    1CAL  O02Se15800   4.066   8.020   1.238
    1CAL  O02Sf15801   4.065   7.863   1.396
    1CAL  O02Sg15802   4.872   7.943   1.316
    1CAL  O02Sh15803   5.872   7.331   1.932
    1CAL  O02Si15804   5.937   6.659   1.396
    1CAL  O02Sj15805   5.065   6.607   1.851
    1CAL  O02Sk15806   4.437   7.621   1.237
    1CAL  O02Sl15807   4.436   7.464   1.396
    1CAL  O02Sm15808   4.630   7.542   1.317
    1CAL  O02Sn15809   5.066   6.449   2.010
    1CAL  O02So15810   4.434   7.655   2.010
    1CAL  O02Sp15811   4.872   6.528   1.931
    1CAL  O02Sq15812   5.873   7.140   1.317
    1CAL  O02Sr15813   5.066   8.020   1.238
    1CAL  O02Ss15814   5.065   7.863   1.396
    1CAL  O02St15815   5.623   7.637   1.621
    1CAL  O02Su15816   5.815   7.558   1.701
    1CAL  O02Sv15817   5.816   7.715   1.542
    1CAL  O02Sw15818   5.938   7.621   1.237
    1CAL  O02Sx15819   5.936   7.464   1.396
    1CAL  O02Sy15820   5.937   6.817   1.237
    1CAL  O02Sz15821   4.630   6.738   1.316
    1CAL  O02T015822   4.380   7.237   1.625
    1CAL  O02T115823   4.371   7.331   1.934
    1CAL  O02T215824   5.066   7.062   1.396
    1CAL  O02T315825   5.565   7.863   1.396
    1CAL  O02T415826   5.566   8.020   1.238
    1CAL  O02T515827   5.623   6.835   1.624
    1CAL  O02T615828   5.816   6.756   1.703
    1CAL  O02T715829   5.373   7.943   1.316
    1CAL  O02T815830   5.122   6.835   1.624
    1CAL  O02T915831   5.315   6.914   1.545
    1CAL  O02TA15832   4.629   7.732   1.931
    1CAL  O02TB15833   5.437   6.816   1.238
    1CAL  O02TC15834   5.437   6.659   1.396
    1CAL  O02TD15835   5.630   6.738   1.316
    1CAL  O02TE15836   5.372   7.331   1.933
    1CAL  O02TF15837   5.567   7.254   2.009
    1CAL  O02TG15838   5.316   6.756   1.703
    1CAL  O02TH15839   5.564   7.412   1.850
    1CAL  O02TI15840   4.066   7.062   1.396
    1CAL  O02TJ15841   5.566   7.062   1.396
    1CAL  O02TK15842   4.187   7.316   1.545
    1CAL  O02TL15843   4.064   7.412   1.850
    1CAL  O02TM15844   4.066   7.254   2.010
    1CAL  O02TN15845   4.129   6.929   1.932
    1CAL  O02TO15846   4.130   6.738   1.317
    1CAL  O02TP15847   4.129   7.542   1.317
    1CAL  O02TQ15848   5.565   7.219   1.238
    1CAL  O02TR15849   4.316   7.715   1.543
    1CAL  O02TS15850   5.873   7.943   1.316
    1CAL  O02TT15851   5.872   6.528   1.932
    1CAL  O02TU15852   4.122   7.637   1.621
    1CAL  O02TV15853   5.936   7.811   1.850
    1CAL  O02TW15854   4.065   7.219   1.238
    1CAL  O02TX15855   5.373   7.140   1.317
    1CAL  O02TY15856   4.315   7.558   1.701
    1CAL  O02TZ15857   4.435   7.812   1.850
    1CAL  O02Ta15858   4.629   6.929   1.931
    1CAL  O02Tb15859   5.372   6.527   1.933
    1CAL  O02Tc15860   5.437   7.009   1.850
    1CAL  O02Td15861   5.435   6.852   2.010
    1CAL  O02Te15862   5.630   6.929   1.931
    1CAL  O02Tf15863   4.880   6.432   1.624
    1CAL  O02Tg15864   4.687   7.960   1.703
    1CAL  O02Th15865   5.435   7.811   1.850
    1CAL  O02Ti15866   5.629   7.732   1.930
    1CAL  O02Tj15867   4.687   6.511   1.545
    1CAL  O02Tk15868   4.564   6.607   1.851
    1CAL  O02Tl15869   4.567   6.450   2.010
    1CAL  O02Tm15870   4.371   6.528   1.933
    1CAL  O02Tn15871   4.563   7.412   1.850
    1CAL  O02To15872   4.568   7.254   2.010
    1CAL  O02Tp15873   4.872   7.140   1.317
    1CAL  O02Tq15874   5.567   6.449   2.010
    1CAL  O02Tr15875   5.565   6.607   1.851
    1CAL  O02Ts15876   4.434   6.852   2.010
    1CAL  O02Tt15877   4.436   7.010   1.851
    1CAL  O02Tu15878   5.687   6.511   1.545
    1CAL  O02Tv15879   5.687   7.960   1.703
    1CAL  O02Tw15880   5.880   6.432   1.624
    1CAL  O02Tx15881   4.380   6.433   1.624
    1CAL  O02Ty15882   4.187   7.960   1.703
    1CAL  O02Tz15883   4.186   6.511   1.545
    1CAL  O02U015884   5.187   6.511   1.545
    1CAL  O02U115885   5.187   7.960   1.703
    1CAL  O02U215886   5.380   6.433   1.624
    1CAL  O02U315887   5.065   7.219   1.238
    1CAL  O02U415888   5.816   6.914   1.545
    1CAL  O02U515889   4.821   7.905   2.159
    1CAL  O02U615890   4.812   7.753   2.325
    1CAL  O02U715891   4.622   7.837   2.239
    1CAL  O02U815892   4.679   7.504   2.158
    1CAL  O02U915893   4.688   7.353   2.324
    1CAL  O02UA15894   4.878   7.435   2.237
    1CAL  O02UB15895   4.878   6.632   2.238
    1CAL  O02UC15896   4.688   6.549   2.325
    1CAL  O02UD15897   4.679   6.700   2.159
    1CAL  O02UE15898   4.622   7.034   2.238
    1CAL  O02UF15899   4.812   6.950   2.324
    1CAL  O02UG15900   4.821   7.102   2.159
    1CAL  O02UH15901   5.680   7.504   2.158
    1CAL  O02UI15902   5.878   7.435   2.238
    1CAL  O02UJ15903   5.688   7.352   2.324
    1CAL  O02UK15904   5.623   7.836   2.238
    1CAL  O02UL15905   5.812   7.753   2.324
    1CAL  O02UM15906   5.821   7.905   2.159
    1CAL  O02UN15907   5.679   6.700   2.159
    1CAL  O02UO15908   5.878   6.632   2.238
    1CAL  O02UP15909   5.688   6.549   2.325
    1CAL  O02UQ15910   5.622   7.033   2.238
    1CAL  O02UR15911   5.812   6.950   2.324
    1CAL  O02US15912   5.821   7.102   2.159
    1CAL  O02UT15913   5.312   7.753   2.325
    1CAL  O02UU15914   5.122   7.836   2.239
    1CAL  O02UV15915   5.321   7.904   2.159
    1CAL  O02UW15916   5.180   7.503   2.159
    1CAL  O02UX15917   5.189   7.351   2.325
    1CAL  O02UY15918   5.379   7.435   2.239
    1CAL  O02UZ15919   5.312   6.950   2.325
    1CAL  O02Ua15920   5.321   7.101   2.159
    1CAL  O02Ub15921   5.122   7.034   2.238
    1CAL  O02Uc15922   5.180   6.700   2.160
    1CAL  O02Ud15923   5.188   6.548   2.325
    1CAL  O02Ue15924   5.378   6.632   2.240
    1CAL  O02Uf15925   4.311   7.753   2.326
    1CAL  O02Ug15926   4.122   7.837   2.239
    1CAL  O02Uh15927   4.321   7.904   2.160
    1CAL  O02Ui15928   4.180   7.503   2.160
    1CAL  O02Uj15929   4.189   7.351   2.325
    1CAL  O02Uk15930   4.379   7.435   2.241
    1CAL  O02Ul15931   4.311   6.951   2.326
    1CAL  O02Um15932   4.122   7.034   2.238
    1CAL  O02Un15933   4.321   7.102   2.159
    1CAL  O02Uo15934   4.378   6.632   2.241
    1CAL  O02Up15935   4.188   6.548   2.326
    1CAL  O02Uq15936   4.180   6.700   2.161
    1CAL  Ca0ob15937   5.003   7.235   2.236
    1CAL  Ca0oc15938   5.751   6.939   1.317
    1CAL  Ca0od15939   5.497   7.636   2.237
    1CAL  Ca0oe15940   4.003   7.235   2.237
    1CAL  Ca0of15941   4.751   7.932   1.932
    1CAL  Ca0og15942   5.751   7.341   1.317
    1CAL  Ca0oh15943   5.501   7.036   1.624
    1CAL  Ca0oi15944   5.501   7.838   1.624
    1CAL  Ca0oj15945   4.250   7.531   1.931
    1CAL  Ca0ok15946   5.001   7.838   1.624
    1CAL  Ca0ol15947   4.503   6.432   2.237
    1CAL  Ca0om15948   4.251   6.939   1.317
    1CAL  Ca0on15949   4.251   7.130   1.932
    1CAL  Ca0oo15950   5.998   6.833   2.237
    1CAL  Ca0op15951   5.998   7.636   2.237
    1CAL  Ca0oq15952   5.750   7.531   1.930
    1CAL  Ca0or15953   5.251   6.537   1.317
    1CAL  Ca0os15954   6.001   7.838   1.624
    1CAL  Ca0ot15955   5.751   6.537   1.317
    1CAL  Ca0ou15956   4.496   6.834   2.237
    1CAL  Ca0ov15957   4.003   6.432   2.238
    1CAL  Ca0ow15958   5.752   7.130   1.932
    1CAL  Ca0ox15959   4.251   7.341   1.317
    1CAL  Ca0oy15960   6.001   7.036   1.624
    1CAL  Ca0oz15961   5.501   7.437   1.623
    1CAL  Ca0p015962   4.251   7.933   1.932
    1CAL  Ca0p115963   5.751   7.742   1.318
    1CAL  Ca0p215964   4.501   7.437   1.623
    1CAL  Ca0p315965   4.497   7.637   2.237
    1CAL  Ca0p415966   6.001   6.634   1.624
    1CAL  Ca0p515967   4.501   7.838   1.624
    1CAL  Ca0p615968   5.497   6.833   2.237
    1CAL  Ca0p715969   5.251   7.341   1.317
    1CAL  Ca0p815970   4.751   7.341   1.317
    1CAL  Ca0p915971   5.001   6.634   1.624
    1CAL  Ca0pA15972   5.001   7.437   1.623
    1CAL  Ca0pB15973   4.501   7.036   1.624
    1CAL  Ca0pC15974   5.001   7.036   1.624
    1CAL  Ca0pD15975   4.750   7.531   1.931
    1CAL  Ca0pE15976   4.251   6.537   1.317
    1CAL  Ca0pF15977   4.751   6.939   1.317
    1CAL  Ca0pG15978   5.251   6.939   1.317
    1CAL  Ca0pH15979   5.250   7.531   1.931
    1CAL  Ca0pI15980   5.251   7.932   1.932
    1CAL  Ca0pJ15981   5.750   6.728   1.932
    1CAL  Ca0pK15982   5.003   6.432   2.237
    1CAL  Ca0pL15983   4.749   6.728   1.932
    1CAL  Ca0pM15984   4.504   7.235   2.236
    1CAL  Ca0pN15985   4.501   6.634   1.624
    1CAL  Ca0pO15986   4.751   6.537   1.317
    1CAL  Ca0pP15987   5.251   7.742   1.318
    1CAL  Ca0pQ15988   5.250   6.728   1.932
    1CAL  Ca0pR15989   4.997   6.833   2.237
    1CAL  Ca0pS15990   4.751   7.742   1.318
    1CAL  Ca0pT15991   4.997   7.636   2.237
    1CAL  Ca0pU15992   4.251   7.742   1.318
    1CAL  Ca0pV15993   5.501   6.634   1.624
    1CAL  Ca0pW15994   5.504   7.235   2.236
    1CAL  Ca0pX15995   5.503   6.431   2.237
    1CAL  Ca0pY15996   4.751   7.130   1.932
    1CAL  Ca0pZ15997   5.751   7.933   1.932
    1CAL  Ca0pa15998   5.251   7.130   1.932
    1CAL  Ca0pb15999   4.250   6.728   1.932
    1CAL  Ca0pc16000   6.001   7.437   1.623
    1CAL  C00pd16001   6.001   7.942   2.545
    1CAL  C00pe16002   5.251   6.432   2.852
    1CAL  C00pf16003   4.251   6.432   2.852
    1CAL  C00pg16004   5.500   6.930   3.158
    1CAL  C00ph16005   5.500   7.733   3.158
    1CAL  C00pi16006   4.751   6.432   2.852
    1CAL  C00pj16007   5.001   7.140   2.545
    1CAL  C00pk16008   5.251   7.637   2.849
    1CAL  C00pl16009   4.751   7.637   2.850
    1CAL  C00pm16010   4.501   7.332   3.159
    1CAL  C00pn16011   4.501   6.738   2.545
    1CAL  C00po16012   5.001   7.542   2.545
    1CAL  C00pp16013   5.001   6.738   2.545
    1CAL  C00pq16014   4.251   6.835   2.852
    1CAL  C00pr16015   4.501   6.528   3.159
    1CAL  C00ps16016   5.001   7.332   3.158
    1CAL  C00pt16017   5.751   6.432   2.852
    1CAL  C00pu16018   5.501   6.528   3.159
    1CAL  C00pv16019   4.251   7.237   2.852
    1CAL  C00pw16020   6.000   6.930   3.159
    1CAL  C00px16021   6.001   7.332   3.158
    1CAL  C00py16022   6.001   6.738   2.545
    1CAL  C00pz16023   6.001   7.542   2.545
    1CAL  C00q016024   4.251   7.637   2.850
    1CAL  C00q116025   4.500   6.930   3.158
    1CAL  C00q216026   5.501   7.140   2.545
    1CAL  C00q316027   6.001   7.140   2.545
    1CAL  C00q416028   5.751   6.835   2.852
    1CAL  C00q516029   5.251   6.835   2.852
    1CAL  C00q616030   5.501   6.738   2.545
    1CAL  C00q716031   5.501   7.332   3.158
    1CAL  C00q816032   4.499   7.733   3.158
    1CAL  C00q916033   5.501   7.942   2.545
    1CAL  C00qA16034   4.751   6.835   2.852
    1CAL  C00qB16035   5.251   7.237   2.852
    1CAL  C00qC16036   4.501   7.542   2.545
    1CAL  C00qD16037   5.751   7.637   2.849
    1CAL  C00qE16038   5.001   7.942   2.545
    1CAL  C00qF16039   6.000   7.733   3.159
    1CAL  C00qG16040   5.001   6.528   3.158
    1CAL  C00qH16041   5.000   7.733   3.158
    1CAL  C00qI16042   5.000   6.930   3.159
    1CAL  C00qJ16043   5.751   7.237   2.852
    1CAL  C00qK16044   4.501   7.942   2.545
    1CAL  C00qL16045   5.501   7.542   2.545
    1CAL  C00qM16046   4.501   7.140   2.545
    1CAL  C00qN16047   4.751   7.237   2.852
    1CAL  C00qO16048   6.001   6.528   3.159
    1CAL  C00qP16049   4.752   7.028   3.469
    1CAL  C00qQ16050   4.748   6.627   3.469
    1CAL  C00qR16051   4.748   7.430   3.468
    1CAL  C00qS16052   4.752   7.831   3.469
    1CAL  C00qT16053   5.752   7.028   3.469
    1CAL  C00qU16054   5.748   6.627   3.469
    1CAL  C00qV16055   5.752   7.831   3.469
    1CAL  C00qW16056   5.749   7.430   3.468
    1CAL  C00qX16057   5.252   7.831   3.469
    1CAL  C00qY16058   5.249   7.429   3.469
    1CAL  C00qZ16059   5.252   7.028   3.469
    1CAL  C00qa16060   5.248   6.626   3.470
    1CAL  C00qb16061   4.252   7.831   3.470
    1CAL  C00qc16062   4.249   7.429   3.470
    1CAL  C00qd16063   4.252   7.029   3.469
    1CAL  C00qe16064   4.248   6.626   3.471
    1CAL  O02Ur16065   4.186   7.159   2.931
    1CAL  O02Us16066   5.187   7.316   2.773
    1CAL  O02Ut16067   5.186   7.159   2.931
    1CAL  O02Uu16068   5.380   7.237   2.853
    1CAL  O02Uv16069   4.565   7.863   2.624
    1CAL  O02Uw16070   4.372   7.943   2.544
    1CAL  O02Ux16071   4.565   7.219   2.466
    1CAL  O02Uy16072   4.687   7.316   2.773
    1CAL  O02Uz16073   4.686   7.159   2.931
    1CAL  O02V016074   4.880   7.237   2.853
    1CAL  O02V116075   4.566   8.020   2.466
    1CAL  O02V216076   4.565   7.062   2.624
    1CAL  O02V316077   4.372   7.140   2.545
    1CAL  O02V416078   5.129   7.732   3.159
    1CAL  O02V516079   4.936   7.811   3.078
    1CAL  O02V616080   4.937   7.009   3.078
    1CAL  O02V716081   4.934   6.852   3.238
    1CAL  O02V816082   5.129   6.929   3.160
    1CAL  O02V916083   4.934   7.655   3.238
    1CAL  O02VA16084   4.622   6.835   2.852
    1CAL  O02VB16085   5.064   7.411   3.078
    1CAL  O02VC16086   5.123   7.637   2.849
    1CAL  O02VD16087   5.315   7.558   2.929
    1CAL  O02VE16088   5.316   7.715   2.771
    1CAL  O02VF16089   4.437   6.659   2.624
    1CAL  O02VG16090   4.436   6.816   2.466
    1CAL  O02VH16091   4.622   7.637   2.849
    1CAL  O02VI16092   4.815   7.558   2.929
    1CAL  O02VJ16093   4.816   7.715   2.771
    1CAL  O02VK16094   4.315   6.914   2.773
    1CAL  O02VL16095   4.815   6.756   2.931
    1CAL  O02VM16096   4.937   7.621   2.465
    1CAL  O02VN16097   5.130   7.542   2.545
    1CAL  O02VO16098   4.315   6.756   2.932
    1CAL  O02VP16099   4.122   6.835   2.852
    1CAL  O02VQ16100   4.815   6.914   2.773
    1CAL  O02VR16101   4.937   6.817   2.465
    1CAL  O02VS16102   4.937   6.659   2.624
    1CAL  O02VT16103   5.130   6.738   2.545
    1CAL  O02VU16104   4.871   7.331   3.159
    1CAL  O02VV16105   5.067   7.254   3.237
    1CAL  O02VW16106   4.936   7.464   2.624
    1CAL  O02VX16107   5.687   7.316   2.773
    1CAL  O02VY16108   5.686   7.159   2.931
    1CAL  O02VZ16109   5.880   7.237   2.853
    1CAL  O02Va16110   5.935   7.654   3.238
    1CAL  O02Vb16111   5.937   7.009   3.079
    1CAL  O02Vc16112   5.935   6.851   3.238
    1CAL  O02Vd16113   4.129   7.732   3.160
    1CAL  O02Ve16114   4.065   6.607   3.079
    1CAL  O02Vf16115   5.437   7.621   2.465
    1CAL  O02Vg16116   5.436   7.464   2.624
    1CAL  O02Vh16117   5.630   7.542   2.545
    1CAL  O02Vi16118   4.066   6.450   3.239
    1CAL  O02Vj16119   5.435   7.655   3.238
    1CAL  O02Vk16120   4.066   8.020   2.466
    1CAL  O02Vl16121   4.065   7.863   2.624
    1CAL  O02Vm16122   4.872   7.943   2.544
    1CAL  O02Vn16123   5.872   7.331   3.160
    1CAL  O02Vo16124   5.937   6.659   2.624
    1CAL  O02Vp16125   5.065   6.607   3.079
    1CAL  O02Vq16126   4.437   7.621   2.465
    1CAL  O02Vr16127   4.436   7.464   2.624
    1CAL  O02Vs16128   4.630   7.542   2.545
    1CAL  O02Vt16129   5.066   6.449   3.238
    1CAL  O02Vu16130   4.434   7.655   3.238
    1CAL  O02Vv16131   4.872   6.528   3.159
    1CAL  O02Vw16132   5.873   7.140   2.545
    1CAL  O02Vx16133   5.066   8.020   2.466
    1CAL  O02Vy16134   5.065   7.863   2.624
    1CAL  O02Vz16135   5.623   7.637   2.849
    1CAL  O02W016136   5.815   7.558   2.929
    1CAL  O02W116137   5.816   7.715   2.770
    1CAL  O02W216138   5.938   7.621   2.465
    1CAL  O02W316139   5.936   7.464   2.624
    1CAL  O02W416140   5.937   6.817   2.465
    1CAL  O02W516141   4.630   6.738   2.544
    1CAL  O02W616142   4.380   7.237   2.853
    1CAL  O02W716143   4.371   7.331   3.162
    1CAL  O02W816144   5.066   7.062   2.624
    1CAL  O02W916145   5.565   7.863   2.624
    1CAL  O02WA16146   5.566   8.020   2.466
    1CAL  O02WB16147   5.623   6.835   2.852
    1CAL  O02WC16148   5.816   6.756   2.931
    1CAL  O02WD16149   5.373   7.943   2.544
    1CAL  O02WE16150   5.122   6.835   2.852
    1CAL  O02WF16151   5.315   6.914   2.773
    1CAL  O02WG16152   4.629   7.732   3.159
    1CAL  O02WH16153   5.437   6.816   2.466
    1CAL  O02WI16154   5.437   6.659   2.624
    1CAL  O02WJ16155   5.630   6.738   2.544
    1CAL  O02WK16156   5.372   7.331   3.161
    1CAL  O02WL16157   5.567   7.254   3.237
    1CAL  O02WM16158   5.316   6.756   2.931
    1CAL  O02WN16159   5.564   7.412   3.078
    1CAL  O02WO16160   4.066   7.062   2.624
    1CAL  O02WP16161   5.566   7.062   2.624
    1CAL  O02WQ16162   4.187   7.316   2.773
    1CAL  O02WR16163   4.064   7.412   3.078
    1CAL  O02WS16164   4.066   7.254   3.238
    1CAL  O02WT16165   4.129   6.929   3.160
    1CAL  O02WU16166   4.130   6.738   2.545
    1CAL  O02WV16167   4.129   7.542   2.545
    1CAL  O02WW16168   5.565   7.219   2.466
    1CAL  O02WX16169   4.316   7.715   2.771
    1CAL  O02WY16170   5.873   7.943   2.544
    1CAL  O02WZ16171   5.872   6.528   3.160
    1CAL  O02Wa16172   4.122   7.637   2.849
    1CAL  O02Wb16173   5.936   7.811   3.078
    1CAL  O02Wc16174   4.065   7.219   2.466
    1CAL  O02Wd16175   5.373   7.140   2.545
    1CAL  O02We16176   4.315   7.558   2.929
    1CAL  O02Wf16177   4.435   7.812   3.078
    1CAL  O02Wg16178   4.629   6.929   3.159
    1CAL  O02Wh16179   5.372   6.527   3.161
    1CAL  O02Wi16180   5.437   7.009   3.078
    1CAL  O02Wj16181   5.435   6.852   3.238
    1CAL  O02Wk16182   5.630   6.929   3.159
    1CAL  O02Wl16183   4.880   6.432   2.852
    1CAL  O02Wm16184   4.687   7.960   2.931
    1CAL  O02Wn16185   5.435   7.811   3.078
    1CAL  O02Wo16186   5.629   7.732   3.158
    1CAL  O02Wp16187   4.687   6.511   2.773
    1CAL  O02Wq16188   4.564   6.607   3.079
    1CAL  O02Wr16189   4.567   6.450   3.238
    1CAL  O02Ws16190   4.371   6.528   3.161
    1CAL  O02Wt16191   4.563   7.412   3.078
    1CAL  O02Wu16192   4.568   7.254   3.238
    1CAL  O02Wv16193   4.872   7.140   2.545
    1CAL  O02Ww16194   5.567   6.449   3.238
    1CAL  O02Wx16195   5.565   6.607   3.079
    1CAL  O02Wy16196   4.434   6.852   3.238
    1CAL  O02Wz16197   4.436   7.010   3.079
    1CAL  O02X016198   5.687   6.511   2.773
    1CAL  O02X116199   5.687   7.960   2.931
    1CAL  O02X216200   5.880   6.432   2.852
    1CAL  O02X316201   4.380   6.433   2.852
    1CAL  O02X416202   4.187   7.960   2.931
    1CAL  O02X516203   4.186   6.511   2.773
    1CAL  O02X616204   5.187   6.511   2.773
    1CAL  O02X716205   5.187   7.960   2.931
    1CAL  O02X816206   5.380   6.433   2.852
    1CAL  O02X916207   5.065   7.219   2.466
    1CAL  O02XA16208   5.816   6.914   2.773
    1CAL  O02XB16209   4.821   7.905   3.387
    1CAL  O02XC16210   4.812   7.753   3.553
    1CAL  O02XD16211   4.622   7.837   3.467
    1CAL  O02XE16212   4.679   7.504   3.386
    1CAL  O02XF16213   4.688   7.353   3.552
    1CAL  O02XG16214   4.878   7.435   3.465
    1CAL  O02XH16215   4.878   6.632   3.466
    1CAL  O02XI16216   4.688   6.549   3.553
    1CAL  O02XJ16217   4.679   6.700   3.387
    1CAL  O02XK16218   4.622   7.034   3.466
    1CAL  O02XL16219   4.812   6.950   3.552
    1CAL  O02XM16220   4.821   7.102   3.387
    1CAL  O02XN16221   5.680   7.504   3.386
    1CAL  O02XO16222   5.878   7.435   3.466
    1CAL  O02XP16223   5.688   7.352   3.552
    1CAL  O02XQ16224   5.623   7.836   3.466
    1CAL  O02XR16225   5.812   7.753   3.552
    1CAL  O02XS16226   5.821   7.905   3.387
    1CAL  O02XT16227   5.679   6.700   3.387
    1CAL  O02XU16228   5.878   6.632   3.466
    1CAL  O02XV16229   5.688   6.549   3.553
    1CAL  O02XW16230   5.622   7.033   3.466
    1CAL  O02XX16231   5.812   6.950   3.552
    1CAL  O02XY16232   5.821   7.102   3.387
    1CAL  O02XZ16233   5.312   7.753   3.553
    1CAL  O02Xa16234   5.122   7.836   3.467
    1CAL  O02Xb16235   5.321   7.904   3.387
    1CAL  O02Xc16236   5.180   7.503   3.387
    1CAL  O02Xd16237   5.189   7.351   3.553
    1CAL  O02Xe16238   5.379   7.435   3.467
    1CAL  O02Xf16239   5.312   6.950   3.553
    1CAL  O02Xg16240   5.321   7.101   3.387
    1CAL  O02Xh16241   5.122   7.034   3.466
    1CAL  O02Xi16242   5.180   6.700   3.388
    1CAL  O02Xj16243   5.188   6.548   3.553
    1CAL  O02Xk16244   5.378   6.632   3.468
    1CAL  O02Xl16245   4.311   7.753   3.554
    1CAL  O02Xm16246   4.122   7.837   3.467
    1CAL  O02Xn16247   4.321   7.904   3.388
    1CAL  O02Xo16248   4.180   7.503   3.388
    1CAL  O02Xp16249   4.189   7.351   3.553
    1CAL  O02Xq16250   4.379   7.435   3.469
    1CAL  O02Xr16251   4.311   6.951   3.554
    1CAL  O02Xs16252   4.122   7.034   3.466
    1CAL  O02Xt16253   4.321   7.102   3.387
    1CAL  O02Xu16254   4.378   6.632   3.469
    1CAL  O02Xv16255   4.188   6.548   3.554
    1CAL  O02Xw16256   4.180   6.700   3.389
    1CAL  Ca0pd16257   5.003   7.235   3.464
    1CAL  Ca0pe16258   5.751   6.939   2.545
    1CAL  Ca0pf16259   5.497   7.636   3.465
    1CAL  Ca0pg16260   4.003   7.235   3.465
    1CAL  Ca0ph16261   4.751   7.932   3.160
    1CAL  Ca0pi16262   5.751   7.341   2.545
    1CAL  Ca0pj16263   5.501   7.036   2.852
    1CAL  Ca0pk16264   5.501   7.838   2.852
    1CAL  Ca0pl16265   4.250   7.531   3.159
    1CAL  Ca0pm16266   5.001   7.838   2.852
    1CAL  Ca0pn16267   4.503   6.432   3.465
    1CAL  Ca0po16268   4.251   6.939   2.545
    1CAL  Ca0pp16269   4.251   7.130   3.160
    1CAL  Ca0pq16270   5.998   6.833   3.465
    1CAL  Ca0pr16271   5.998   7.636   3.465
    1CAL  Ca0ps16272   5.750   7.531   3.158
    1CAL  Ca0pt16273   5.251   6.537   2.545
    1CAL  Ca0pu16274   6.001   7.838   2.852
    1CAL  Ca0pv16275   5.751   6.537   2.545
    1CAL  Ca0pw16276   4.496   6.834   3.465
    1CAL  Ca0px16277   4.003   6.432   3.466
    1CAL  Ca0py16278   5.752   7.130   3.160
    1CAL  Ca0pz16279   4.251   7.341   2.545
    1CAL  Ca0q016280   6.001   7.036   2.852
    1CAL  Ca0q116281   5.501   7.437   2.851
    1CAL  Ca0q216282   4.251   7.933   3.160
    1CAL  Ca0q316283   5.751   7.742   2.546
    1CAL  Ca0q416284   4.501   7.437   2.851
    1CAL  Ca0q516285   4.497   7.637   3.465
    1CAL  Ca0q616286   6.001   6.634   2.852
    1CAL  Ca0q716287   4.501   7.838   2.852
    1CAL  Ca0q816288   5.497   6.833   3.465
    1CAL  Ca0q916289   5.251   7.341   2.545
    1CAL  Ca0qA16290   4.751   7.341   2.545
    1CAL  Ca0qB16291   5.001   6.634   2.852
    1CAL  Ca0qC16292   5.001   7.437   2.851
    1CAL  Ca0qD16293   4.501   7.036   2.852
    1CAL  Ca0qE16294   5.001   7.036   2.852
    1CAL  Ca0qF16295   4.750   7.531   3.159
    1CAL  Ca0qG16296   4.251   6.537   2.545
    1CAL  Ca0qH16297   4.751   6.939   2.545
    1CAL  Ca0qI16298   5.251   6.939   2.545
    1CAL  Ca0qJ16299   5.250   7.531   3.159
    1CAL  Ca0qK16300   5.251   7.932   3.160
    1CAL  Ca0qL16301   5.750   6.728   3.160
    1CAL  Ca0qM16302   5.003   6.432   3.465
    1CAL  Ca0qN16303   4.749   6.728   3.160
    1CAL  Ca0qO16304   4.504   7.235   3.464
    1CAL  Ca0qP16305   4.501   6.634   2.852
    1CAL  Ca0qQ16306   4.751   6.537   2.545
    1CAL  Ca0qR16307   5.251   7.742   2.546
    1CAL  Ca0qS16308   5.250   6.728   3.160
    1CAL  Ca0qT16309   4.997   6.833   3.465
    1CAL  Ca0qU16310   4.751   7.742   2.546
    1CAL  Ca0qV16311   4.997   7.636   3.465
    1CAL  Ca0qW16312   4.251   7.742   2.546
    1CAL  Ca0qX16313   5.501   6.634   2.852
    1CAL  Ca0qY16314   5.504   7.235   3.464
    1CAL  Ca0qZ16315   5.503   6.431   3.465
    1CAL  Ca0qa16316   4.751   7.130   3.160
    1CAL  Ca0qb16317   5.751   7.933   3.160
    1CAL  Ca0qc16318   5.251   7.130   3.160
    1CAL  Ca0qd16319   4.250   6.728   3.160
    1CAL  Ca0qe16320   6.001   7.437   2.851
    1CAL  C00qf16321   6.001   9.548   0.089
    1CAL  C00qg16322   5.251   8.038   0.396
    1CAL  C00qh16323   4.251   8.038   0.396
    1CAL  C00qi16324   5.500   8.536   0.702
    1CAL  C00qj16325   5.500   9.339   0.702
    1CAL  C00qk16326   4.751   8.038   0.396
    1CAL  C00ql16327   5.001   8.746   0.089
    1CAL  C00qm16328   5.251   9.243   0.393
    1CAL  C00qn16329   4.751   9.243   0.394
    1CAL  C00qo16330   4.501   8.938   0.703
    1CAL  C00qp16331   4.501   8.344   0.089
    1CAL  C00qq16332   5.001   9.148   0.089
    1CAL  C00qr16333   5.001   8.344   0.089
    1CAL  C00qs16334   4.251   8.441   0.396
    1CAL  C00qt16335   4.501   8.134   0.703
    1CAL  C00qu16336   5.001   8.938   0.702
    1CAL  C00qv16337   5.751   8.038   0.396
    1CAL  C00qw16338   5.501   8.134   0.703
    1CAL  C00qx16339   4.251   8.843   0.396
    1CAL  C00qy16340   6.000   8.536   0.703
    1CAL  C00qz16341   6.001   8.938   0.702
    1CAL  C00r016342   6.001   8.344   0.089
    1CAL  C00r116343   6.001   9.148   0.089
    1CAL  C00r216344   4.251   9.243   0.394
    1CAL  C00r316345   4.500   8.536   0.702
    1CAL  C00r416346   5.501   8.746   0.089
    1CAL  C00r516347   6.001   8.746   0.089
    1CAL  C00r616348   5.751   8.441   0.396
    1CAL  C00r716349   5.251   8.441   0.396
    1CAL  C00r816350   5.501   8.344   0.089
    1CAL  C00r916351   5.501   8.938   0.702
    1CAL  C00rA16352   4.499   9.339   0.702
    1CAL  C00rB16353   5.501   9.548   0.089
    1CAL  C00rC16354   4.751   8.441   0.396
    1CAL  C00rD16355   5.251   8.843   0.396
    1CAL  C00rE16356   4.501   9.148   0.089
    1CAL  C00rF16357   5.751   9.243   0.393
    1CAL  C00rG16358   5.001   9.548   0.089
    1CAL  C00rH16359   6.000   9.339   0.703
    1CAL  C00rI16360   5.001   8.134   0.702
    1CAL  C00rJ16361   5.000   9.339   0.702
    1CAL  C00rK16362   5.000   8.536   0.703
    1CAL  C00rL16363   5.751   8.843   0.396
    1CAL  C00rM16364   4.501   9.548   0.089
    1CAL  C00rN16365   5.501   9.148   0.089
    1CAL  C00rO16366   4.501   8.746   0.089
    1CAL  C00rP16367   4.751   8.843   0.396
    1CAL  C00rQ16368   6.001   8.134   0.703
    1CAL  C00rR16369   4.752   8.634   1.013
    1CAL  C00rS16370   4.748   8.233   1.013
    1CAL  C00rT16371   4.748   9.036   1.012
    1CAL  C00rU16372   4.752   9.437   1.013
    1CAL  C00rV16373   5.752   8.634   1.013
    1CAL  C00rW16374   5.748   8.233   1.013
    1CAL  C00rX16375   5.752   9.437   1.013
    1CAL  C00rY16376   5.749   9.036   1.012
    1CAL  C00rZ16377   5.252   9.437   1.013
    1CAL  C00ra16378   5.249   9.035   1.013
    1CAL  C00rb16379   5.252   8.634   1.013
    1CAL  C00rc16380   5.248   8.232   1.014
    1CAL  C00rd16381   4.252   9.437   1.014
    1CAL  C00re16382   4.249   9.035   1.014
    1CAL  C00rf16383   4.252   8.635   1.013
    1CAL  C00rg16384   4.248   8.232   1.015
    1CAL  O02Xx16385   4.186   8.765   0.475
    1CAL  O02Xy16386   5.187   8.922   0.317
    1CAL  O02Xz16387   5.186   8.765   0.475
    1CAL  O02Y016388   5.380   8.843   0.397
    1CAL  O02Y116389   4.565   9.469   0.168
    1CAL  O02Y216390   4.372   9.549   0.088
    1CAL  O02Y316391   4.565   8.825   0.010
    1CAL  O02Y416392   4.687   8.922   0.317
    1CAL  O02Y516393   4.686   8.765   0.475
    1CAL  O02Y616394   4.880   8.843   0.397
    1CAL  O02Y716395   4.566   9.626   0.010
    1CAL  O02Y816396   4.565   8.668   0.168
    1CAL  O02Y916397   4.372   8.746   0.089
    1CAL  O02YA16398   5.129   9.338   0.703
    1CAL  O02YB16399   4.936   9.417   0.622
    1CAL  O02YC16400   4.937   8.615   0.622
    1CAL  O02YD16401   4.934   8.458   0.782
    1CAL  O02YE16402   5.129   8.535   0.704
    1CAL  O02YF16403   4.934   9.261   0.782
    1CAL  O02YG16404   4.622   8.441   0.396
    1CAL  O02YH16405   5.064   9.017   0.622
    1CAL  O02YI16406   5.123   9.243   0.393
    1CAL  O02YJ16407   5.315   9.164   0.473
    1CAL  O02YK16408   5.316   9.321   0.315
    1CAL  O02YL16409   4.437   8.265   0.168
    1CAL  O02YM16410   4.436   8.422   0.010
    1CAL  O02YN16411   4.622   9.243   0.393
    1CAL  O02YO16412   4.815   9.164   0.473
    1CAL  O02YP16413   4.816   9.321   0.315
    1CAL  O02YQ16414   4.315   8.520   0.317
    1CAL  O02YR16415   4.815   8.362   0.475
    1CAL  O02YS16416   4.937   9.227   0.009
    1CAL  O02YT16417   5.130   9.148   0.089
    1CAL  O02YU16418   4.315   8.362   0.476
    1CAL  O02YV16419   4.122   8.441   0.396
    1CAL  O02YW16420   4.815   8.520   0.317
    1CAL  O02YX16421   4.937   8.423   0.009
    1CAL  O02YY16422   4.937   8.265   0.168
    1CAL  O02YZ16423   5.130   8.344   0.089
    1CAL  O02Ya16424   4.871   8.937   0.703
    1CAL  O02Yb16425   5.067   8.860   0.781
    1CAL  O02Yc16426   4.936   9.070   0.168
    1CAL  O02Yd16427   5.687   8.922   0.317
    1CAL  O02Ye16428   5.686   8.765   0.475
    1CAL  O02Yf16429   5.880   8.843   0.397
    1CAL  O02Yg16430   5.935   9.260   0.782
    1CAL  O02Yh16431   5.937   8.615   0.623
    1CAL  O02Yi16432   5.935   8.457   0.782
    1CAL  O02Yj16433   4.129   9.338   0.704
    1CAL  O02Yk16434   4.065   8.213   0.623
    1CAL  O02Yl16435   5.437   9.227   0.009
    1CAL  O02Ym16436   5.436   9.070   0.168
    1CAL  O02Yn16437   5.630   9.148   0.089
    1CAL  O02Yo16438   4.066   8.056   0.783
    1CAL  O02Yp16439   5.435   9.261   0.782
    1CAL  O02Yq16440   4.066   9.626   0.010
    1CAL  O02Yr16441   4.065   9.469   0.168
    1CAL  O02Ys16442   4.872   9.549   0.088
    1CAL  O02Yt16443   5.872   8.937   0.704
    1CAL  O02Yu16444   5.937   8.265   0.168
    1CAL  O02Yv16445   5.065   8.213   0.623
    1CAL  O02Yw16446   4.437   9.227   0.009
    1CAL  O02Yx16447   4.436   9.070   0.168
    1CAL  O02Yy16448   4.630   9.148   0.089
    1CAL  O02Yz16449   5.066   8.055   0.782
    1CAL  O02Z016450   4.434   9.261   0.782
    1CAL  O02Z116451   4.872   8.134   0.703
    1CAL  O02Z216452   5.873   8.746   0.089
    1CAL  O02Z316453   5.066   9.626   0.010
    1CAL  O02Z416454   5.065   9.469   0.168
    1CAL  O02Z516455   5.623   9.243   0.393
    1CAL  O02Z616456   5.815   9.164   0.473
    1CAL  O02Z716457   5.816   9.321   0.314
    1CAL  O02Z816458   5.938   9.227   0.009
    1CAL  O02Z916459   5.936   9.070   0.168
    1CAL  O02ZA16460   5.937   8.423   0.009
    1CAL  O02ZB16461   4.630   8.344   0.088
    1CAL  O02ZC16462   4.380   8.843   0.397
    1CAL  O02ZD16463   4.371   8.937   0.706
    1CAL  O02ZE16464   5.066   8.668   0.168
    1CAL  O02ZF16465   5.565   9.469   0.168
    1CAL  O02ZG16466   5.566   9.626   0.010
    1CAL  O02ZH16467   5.623   8.441   0.396
    1CAL  O02ZI16468   5.816   8.362   0.475
    1CAL  O02ZJ16469   5.373   9.549   0.088
    1CAL  O02ZK16470   5.122   8.441   0.396
    1CAL  O02ZL16471   5.315   8.520   0.317
    1CAL  O02ZM16472   4.629   9.338   0.703
    1CAL  O02ZN16473   5.437   8.422   0.010
    1CAL  O02ZO16474   5.437   8.265   0.168
    1CAL  O02ZP16475   5.630   8.344   0.088
    1CAL  O02ZQ16476   5.372   8.937   0.705
    1CAL  O02ZR16477   5.567   8.860   0.781
    1CAL  O02ZS16478   5.316   8.362   0.475
    1CAL  O02ZT16479   5.564   9.018   0.622
    1CAL  O02ZU16480   4.066   8.668   0.168
    1CAL  O02ZV16481   5.566   8.668   0.168
    1CAL  O02ZW16482   4.187   8.922   0.317
    1CAL  O02ZX16483   4.064   9.018   0.622
    1CAL  O02ZY16484   4.066   8.860   0.782
    1CAL  O02ZZ16485   4.129   8.535   0.704
    1CAL  O02Za16486   4.130   8.344   0.089
    1CAL  O02Zb16487   4.129   9.148   0.089
    1CAL  O02Zc16488   5.565   8.825   0.010
    1CAL  O02Zd16489   4.316   9.321   0.315
    1CAL  O02Ze16490   5.873   9.549   0.088
    1CAL  O02Zf16491   5.872   8.134   0.704
    1CAL  O02Zg16492   4.122   9.243   0.393
    1CAL  O02Zh16493   5.936   9.417   0.622
    1CAL  O02Zi16494   4.065   8.825   0.010
    1CAL  O02Zj16495   5.373   8.746   0.089
    1CAL  O02Zk16496   4.315   9.164   0.473
    1CAL  O02Zl16497   4.435   9.418   0.622
    1CAL  O02Zm16498   4.629   8.535   0.703
    1CAL  O02Zn16499   5.372   8.133   0.705
    1CAL  O02Zo16500   5.437   8.615   0.622
    1CAL  O02Zp16501   5.435   8.458   0.782
    1CAL  O02Zq16502   5.630   8.535   0.703
    1CAL  O02Zr16503   4.880   8.038   0.396
    1CAL  O02Zs16504   4.687   9.566   0.475
    1CAL  O02Zt16505   5.435   9.417   0.622
    1CAL  O02Zu16506   5.629   9.338   0.702
    1CAL  O02Zv16507   4.687   8.117   0.317
    1CAL  O02Zw16508   4.564   8.213   0.623
    1CAL  O02Zx16509   4.567   8.056   0.782
    1CAL  O02Zy16510   4.371   8.134   0.705
    1CAL  O02Zz16511   4.563   9.018   0.622
    1CAL  O02a016512   4.568   8.860   0.782
    1CAL  O02a116513   4.872   8.746   0.089
    1CAL  O02a216514   5.567   8.055   0.782
    1CAL  O02a316515   5.565   8.213   0.623
    1CAL  O02a416516   4.434   8.458   0.782
    1CAL  O02a516517   4.436   8.616   0.623
    1CAL  O02a616518   5.687   8.117   0.317
    1CAL  O02a716519   5.687   9.566   0.475
    1CAL  O02a816520   5.880   8.038   0.396
    1CAL  O02a916521   4.380   8.039   0.396
    1CAL  O02aA16522   4.187   9.566   0.475
    1CAL  O02aB16523   4.186   8.117   0.317
    1CAL  O02aC16524   5.187   8.117   0.317
    1CAL  O02aD16525   5.187   9.566   0.475
    1CAL  O02aE16526   5.380   8.039   0.396
    1CAL  O02aF16527   5.065   8.825   0.010
    1CAL  O02aG16528   5.816   8.520   0.317
    1CAL  O02aH16529   4.821   9.511   0.931
    1CAL  O02aI16530   4.812   9.359   1.097
    1CAL  O02aJ16531   4.622   9.443   1.011
    1CAL  O02aK16532   4.679   9.110   0.930
    1CAL  O02aL16533   4.688   8.959   1.096
    1CAL  O02aM16534   4.878   9.041   1.009
    1CAL  O02aN16535   4.878   8.238   1.010
    1CAL  O02aO16536   4.688   8.155   1.097
    1CAL  O02aP16537   4.679   8.306   0.931
    1CAL  O02aQ16538   4.622   8.640   1.010
    1CAL  O02aR16539   4.812   8.556   1.096
    1CAL  O02aS16540   4.821   8.708   0.931
    1CAL  O02aT16541   5.680   9.110   0.930
    1CAL  O02aU16542   5.878   9.041   1.010
    1CAL  O02aV16543   5.688   8.958   1.096
    1CAL  O02aW16544   5.623   9.442   1.010
    1CAL  O02aX16545   5.812   9.359   1.096
    1CAL  O02aY16546   5.821   9.511   0.931
    1CAL  O02aZ16547   5.679   8.306   0.931
    1CAL  O02aa16548   5.878   8.238   1.010
    1CAL  O02ab16549   5.688   8.155   1.097
    1CAL  O02ac16550   5.622   8.639   1.010
    1CAL  O02ad16551   5.812   8.556   1.096
    1CAL  O02ae16552   5.821   8.708   0.931
    1CAL  O02af16553   5.312   9.359   1.097
    1CAL  O02ag16554   5.122   9.442   1.011
    1CAL  O02ah16555   5.321   9.510   0.931
    1CAL  O02ai16556   5.180   9.109   0.931
    1CAL  O02aj16557   5.189   8.957   1.097
    1CAL  O02ak16558   5.379   9.041   1.011
    1CAL  O02al16559   5.312   8.556   1.097
    1CAL  O02am16560   5.321   8.707   0.931
    1CAL  O02an16561   5.122   8.640   1.010
    1CAL  O02ao16562   5.180   8.306   0.932
    1CAL  O02ap16563   5.188   8.154   1.097
    1CAL  O02aq16564   5.378   8.238   1.012
    1CAL  O02ar16565   4.311   9.359   1.098
    1CAL  O02as16566   4.122   9.443   1.011
    1CAL  O02at16567   4.321   9.510   0.932
    1CAL  O02au16568   4.180   9.109   0.932
    1CAL  O02av16569   4.189   8.957   1.097
    1CAL  O02aw16570   4.379   9.041   1.013
    1CAL  O02ax16571   4.311   8.557   1.098
    1CAL  O02ay16572   4.122   8.640   1.010
    1CAL  O02az16573   4.321   8.708   0.931
    1CAL  O02b016574   4.378   8.238   1.013
    1CAL  O02b116575   4.188   8.154   1.098
    1CAL  O02b216576   4.180   8.306   0.933
    1CAL  Ca0qf16577   5.003   8.841   1.008
    1CAL  Ca0qg16578   5.751   8.545   0.089
    1CAL  Ca0qh16579   5.497   9.242   1.009
    1CAL  Ca0qi16580   4.003   8.841   1.009
    1CAL  Ca0qj16581   4.751   9.538   0.704
    1CAL  Ca0qk16582   5.751   8.947   0.089
    1CAL  Ca0ql16583   5.501   8.642   0.396
    1CAL  Ca0qm16584   5.501   9.444   0.396
    1CAL  Ca0qn16585   4.250   9.137   0.703
    1CAL  Ca0qo16586   5.001   9.444   0.396
    1CAL  Ca0qp16587   4.503   8.038   1.009
    1CAL  Ca0qq16588   4.251   8.545   0.089
    1CAL  Ca0qr16589   4.251   8.736   0.704
    1CAL  Ca0qs16590   5.998   8.439   1.009
    1CAL  Ca0qt16591   5.998   9.242   1.009
    1CAL  Ca0qu16592   5.750   9.137   0.702
    1CAL  Ca0qv16593   5.251   8.143   0.089
    1CAL  Ca0qw16594   6.001   9.444   0.396
    1CAL  Ca0qx16595   5.751   8.143   0.089
    1CAL  Ca0qy16596   4.496   8.440   1.009
    1CAL  Ca0qz16597   4.003   8.038   1.010
    1CAL  Ca0r016598   5.752   8.736   0.704
    1CAL  Ca0r116599   4.251   8.947   0.089
    1CAL  Ca0r216600   6.001   8.642   0.396
    1CAL  Ca0r316601   5.501   9.043   0.395
    1CAL  Ca0r416602   4.251   9.539   0.704
    1CAL  Ca0r516603   5.751   9.348   0.090
    1CAL  Ca0r616604   4.501   9.043   0.395
    1CAL  Ca0r716605   4.497   9.243   1.009
    1CAL  Ca0r816606   6.001   8.240   0.396
    1CAL  Ca0r916607   4.501   9.444   0.396
    1CAL  Ca0rA16608   5.497   8.439   1.009
    1CAL  Ca0rB16609   5.251   8.947   0.089
    1CAL  Ca0rC16610   4.751   8.947   0.089
    1CAL  Ca0rD16611   5.001   8.240   0.396
    1CAL  Ca0rE16612   5.001   9.043   0.395
    1CAL  Ca0rF16613   4.501   8.642   0.396
    1CAL  Ca0rG16614   5.001   8.642   0.396
    1CAL  Ca0rH16615   4.750   9.137   0.703
    1CAL  Ca0rI16616   4.251   8.143   0.089
    1CAL  Ca0rJ16617   4.751   8.545   0.089
    1CAL  Ca0rK16618   5.251   8.545   0.089
    1CAL  Ca0rL16619   5.250   9.137   0.703
    1CAL  Ca0rM16620   5.251   9.538   0.704
    1CAL  Ca0rN16621   5.750   8.334   0.704
    1CAL  Ca0rO16622   5.003   8.038   1.009
    1CAL  Ca0rP16623   4.749   8.334   0.704
    1CAL  Ca0rQ16624   4.504   8.841   1.008
    1CAL  Ca0rR16625   4.501   8.240   0.396
    1CAL  Ca0rS16626   4.751   8.143   0.089
    1CAL  Ca0rT16627   5.251   9.348   0.090
    1CAL  Ca0rU16628   5.250   8.334   0.704
    1CAL  Ca0rV16629   4.997   8.439   1.009
    1CAL  Ca0rW16630   4.751   9.348   0.090
    1CAL  Ca0rX16631   4.997   9.242   1.009
    1CAL  Ca0rY16632   4.251   9.348   0.090
    1CAL  Ca0rZ16633   5.501   8.240   0.396
    1CAL  Ca0ra16634   5.504   8.841   1.008
    1CAL  Ca0rb16635   5.503   8.037   1.009
    1CAL  Ca0rc16636   4.751   8.736   0.704
    1CAL  Ca0rd16637   5.751   9.539   0.704
    1CAL  Ca0re16638   5.251   8.736   0.704
    1CAL  Ca0rf16639   4.250   8.334   0.704
    1CAL  Ca0rg16640   6.001   9.043   0.395
    1CAL  C00rh16641   6.001   9.548   1.317
    1CAL  C00ri16642   5.251   8.038   1.624
    1CAL  C00rj16643   4.251   8.038   1.624
    1CAL  C00rk16644   5.500   8.536   1.930
    1CAL  C00rl16645   5.500   9.339   1.930
    1CAL  C00rm16646   4.751   8.038   1.624
    1CAL  C00rn16647   5.001   8.746   1.317
    1CAL  C00ro16648   5.251   9.243   1.621
    1CAL  C00rp16649   4.751   9.243   1.622
    1CAL  C00rq16650   4.501   8.938   1.931
    1CAL  C00rr16651   4.501   8.344   1.317
    1CAL  C00rs16652   5.001   9.148   1.317
    1CAL  C00rt16653   5.001   8.344   1.317
    1CAL  C00ru16654   4.251   8.441   1.624
    1CAL  C00rv16655   4.501   8.134   1.931
    1CAL  C00rw16656   5.001   8.938   1.930
    1CAL  C00rx16657   5.751   8.038   1.624
    1CAL  C00ry16658   5.501   8.134   1.931
    1CAL  C00rz16659   4.251   8.843   1.624
    1CAL  C00s016660   6.000   8.536   1.931
    1CAL  C00s116661   6.001   8.938   1.930
    1CAL  C00s216662   6.001   8.344   1.317
    1CAL  C00s316663   6.001   9.148   1.317
    1CAL  C00s416664   4.251   9.243   1.622
    1CAL  C00s516665   4.500   8.536   1.930
    1CAL  C00s616666   5.501   8.746   1.317
    1CAL  C00s716667   6.001   8.746   1.317
    1CAL  C00s816668   5.751   8.441   1.624
    1CAL  C00s916669   5.251   8.441   1.624
    1CAL  C00sA16670   5.501   8.344   1.317
    1CAL  C00sB16671   5.501   8.938   1.930
    1CAL  C00sC16672   4.499   9.339   1.930
    1CAL  C00sD16673   5.501   9.548   1.317
    1CAL  C00sE16674   4.751   8.441   1.624
    1CAL  C00sF16675   5.251   8.843   1.624
    1CAL  C00sG16676   4.501   9.148   1.317
    1CAL  C00sH16677   5.751   9.243   1.621
    1CAL  C00sI16678   5.001   9.548   1.317
    1CAL  C00sJ16679   6.000   9.339   1.931
    1CAL  C00sK16680   5.001   8.134   1.930
    1CAL  C00sL16681   5.000   9.339   1.930
    1CAL  C00sM16682   5.000   8.536   1.931
    1CAL  C00sN16683   5.751   8.843   1.624
    1CAL  C00sO16684   4.501   9.548   1.317
    1CAL  C00sP16685   5.501   9.148   1.317
    1CAL  C00sQ16686   4.501   8.746   1.317
    1CAL  C00sR16687   4.751   8.843   1.624
    1CAL  C00sS16688   6.001   8.134   1.931
    1CAL  C00sT16689   4.752   8.634   2.241
    1CAL  C00sU16690   4.748   8.233   2.241
    1CAL  C00sV16691   4.748   9.036   2.240
    1CAL  C00sW16692   4.752   9.437   2.241
    1CAL  C00sX16693   5.752   8.634   2.241
    1CAL  C00sY16694   5.748   8.233   2.241
    1CAL  C00sZ16695   5.752   9.437   2.241
    1CAL  C00sa16696   5.749   9.036   2.240
    1CAL  C00sb16697   5.252   9.437   2.241
    1CAL  C00sc16698   5.249   9.035   2.241
    1CAL  C00sd16699   5.252   8.634   2.241
    1CAL  C00se16700   5.248   8.232   2.242
    1CAL  C00sf16701   4.252   9.437   2.242
    1CAL  C00sg16702   4.249   9.035   2.242
    1CAL  C00sh16703   4.252   8.635   2.241
    1CAL  C00si16704   4.248   8.232   2.243
    1CAL  O02b316705   4.186   8.765   1.703
    1CAL  O02b416706   5.187   8.922   1.545
    1CAL  O02b516707   5.186   8.765   1.703
    1CAL  O02b616708   5.380   8.843   1.625
    1CAL  O02b716709   4.565   9.469   1.396
    1CAL  O02b816710   4.372   9.549   1.316
    1CAL  O02b916711   4.565   8.825   1.238
    1CAL  O02bA16712   4.687   8.922   1.545
    1CAL  O02bB16713   4.686   8.765   1.703
    1CAL  O02bC16714   4.880   8.843   1.625
    1CAL  O02bD16715   4.566   9.626   1.238
    1CAL  O02bE16716   4.565   8.668   1.396
    1CAL  O02bF16717   4.372   8.746   1.317
    1CAL  O02bG16718   5.129   9.338   1.931
    1CAL  O02bH16719   4.936   9.417   1.850
    1CAL  O02bI16720   4.937   8.615   1.850
    1CAL  O02bJ16721   4.934   8.458   2.010
    1CAL  O02bK16722   5.129   8.535   1.932
    1CAL  O02bL16723   4.934   9.261   2.010
    1CAL  O02bM16724   4.622   8.441   1.624
    1CAL  O02bN16725   5.064   9.017   1.850
    1CAL  O02bO16726   5.123   9.243   1.621
    1CAL  O02bP16727   5.315   9.164   1.701
    1CAL  O02bQ16728   5.316   9.321   1.543
    1CAL  O02bR16729   4.437   8.265   1.396
    1CAL  O02bS16730   4.436   8.422   1.238
    1CAL  O02bT16731   4.622   9.243   1.621
    1CAL  O02bU16732   4.815   9.164   1.701
    1CAL  O02bV16733   4.816   9.321   1.543
    1CAL  O02bW16734   4.315   8.520   1.545
    1CAL  O02bX16735   4.815   8.362   1.703
    1CAL  O02bY16736   4.937   9.227   1.237
    1CAL  O02bZ16737   5.130   9.148   1.317
    1CAL  O02ba16738   4.315   8.362   1.704
    1CAL  O02bb16739   4.122   8.441   1.624
    1CAL  O02bc16740   4.815   8.520   1.545
    1CAL  O02bd16741   4.937   8.423   1.237
    1CAL  O02be16742   4.937   8.265   1.396
    1CAL  O02bf16743   5.130   8.344   1.317
    1CAL  O02bg16744   4.871   8.937   1.931
    1CAL  O02bh16745   5.067   8.860   2.009
    1CAL  O02bi16746   4.936   9.070   1.396
    1CAL  O02bj16747   5.687   8.922   1.545
    1CAL  O02bk16748   5.686   8.765   1.703
    1CAL  O02bl16749   5.880   8.843   1.625
    1CAL  O02bm16750   5.935   9.260   2.010
    1CAL  O02bn16751   5.937   8.615   1.851
    1CAL  O02bo16752   5.935   8.457   2.010
    1CAL  O02bp16753   4.129   9.338   1.932
    1CAL  O02bq16754   4.065   8.213   1.851
    1CAL  O02br16755   5.437   9.227   1.237
    1CAL  O02bs16756   5.436   9.070   1.396
    1CAL  O02bt16757   5.630   9.148   1.317
    1CAL  O02bu16758   4.066   8.056   2.011
    1CAL  O02bv16759   5.435   9.261   2.010
    1CAL  O02bw16760   4.066   9.626   1.238
    1CAL  O02bx16761   4.065   9.469   1.396
    1CAL  O02by16762   4.872   9.549   1.316
    1CAL  O02bz16763   5.872   8.937   1.932
    1CAL  O02c016764   5.937   8.265   1.396
    1CAL  O02c116765   5.065   8.213   1.851
    1CAL  O02c216766   4.437   9.227   1.237
    1CAL  O02c316767   4.436   9.070   1.396
    1CAL  O02c416768   4.630   9.148   1.317
    1CAL  O02c516769   5.066   8.055   2.010
    1CAL  O02c616770   4.434   9.261   2.010
    1CAL  O02c716771   4.872   8.134   1.931
    1CAL  O02c816772   5.873   8.746   1.317
    1CAL  O02c916773   5.066   9.626   1.238
    1CAL  O02cA16774   5.065   9.469   1.396
    1CAL  O02cB16775   5.623   9.243   1.621
    1CAL  O02cC16776   5.815   9.164   1.701
    1CAL  O02cD16777   5.816   9.321   1.542
    1CAL  O02cE16778   5.938   9.227   1.237
    1CAL  O02cF16779   5.936   9.070   1.396
    1CAL  O02cG16780   5.937   8.423   1.237
    1CAL  O02cH16781   4.630   8.344   1.316
    1CAL  O02cI16782   4.380   8.843   1.625
    1CAL  O02cJ16783   4.371   8.937   1.934
    1CAL  O02cK16784   5.066   8.668   1.396
    1CAL  O02cL16785   5.565   9.469   1.396
    1CAL  O02cM16786   5.566   9.626   1.238
    1CAL  O02cN16787   5.623   8.441   1.624
    1CAL  O02cO16788   5.816   8.362   1.703
    1CAL  O02cP16789   5.373   9.549   1.316
    1CAL  O02cQ16790   5.122   8.441   1.624
    1CAL  O02cR16791   5.315   8.520   1.545
    1CAL  O02cS16792   4.629   9.338   1.931
    1CAL  O02cT16793   5.437   8.422   1.238
    1CAL  O02cU16794   5.437   8.265   1.396
    1CAL  O02cV16795   5.630   8.344   1.316
    1CAL  O02cW16796   5.372   8.937   1.933
    1CAL  O02cX16797   5.567   8.860   2.009
    1CAL  O02cY16798   5.316   8.362   1.703
    1CAL  O02cZ16799   5.564   9.018   1.850
    1CAL  O02ca16800   4.066   8.668   1.396
    1CAL  O02cb16801   5.566   8.668   1.396
    1CAL  O02cc16802   4.187   8.922   1.545
    1CAL  O02cd16803   4.064   9.018   1.850
    1CAL  O02ce16804   4.066   8.860   2.010
    1CAL  O02cf16805   4.129   8.535   1.932
    1CAL  O02cg16806   4.130   8.344   1.317
    1CAL  O02ch16807   4.129   9.148   1.317
    1CAL  O02ci16808   5.565   8.825   1.238
    1CAL  O02cj16809   4.316   9.321   1.543
    1CAL  O02ck16810   5.873   9.549   1.316
    1CAL  O02cl16811   5.872   8.134   1.932
    1CAL  O02cm16812   4.122   9.243   1.621
    1CAL  O02cn16813   5.936   9.417   1.850
    1CAL  O02co16814   4.065   8.825   1.238
    1CAL  O02cp16815   5.373   8.746   1.317
    1CAL  O02cq16816   4.315   9.164   1.701
    1CAL  O02cr16817   4.435   9.418   1.850
    1CAL  O02cs16818   4.629   8.535   1.931
    1CAL  O02ct16819   5.372   8.133   1.933
    1CAL  O02cu16820   5.437   8.615   1.850
    1CAL  O02cv16821   5.435   8.458   2.010
    1CAL  O02cw16822   5.630   8.535   1.931
    1CAL  O02cx16823   4.880   8.038   1.624
    1CAL  O02cy16824   4.687   9.566   1.703
    1CAL  O02cz16825   5.435   9.417   1.850
    1CAL  O02d016826   5.629   9.338   1.930
    1CAL  O02d116827   4.687   8.117   1.545
    1CAL  O02d216828   4.564   8.213   1.851
    1CAL  O02d316829   4.567   8.056   2.010
    1CAL  O02d416830   4.371   8.134   1.933
    1CAL  O02d516831   4.563   9.018   1.850
    1CAL  O02d616832   4.568   8.860   2.010
    1CAL  O02d716833   4.872   8.746   1.317
    1CAL  O02d816834   5.567   8.055   2.010
    1CAL  O02d916835   5.565   8.213   1.851
    1CAL  O02dA16836   4.434   8.458   2.010
    1CAL  O02dB16837   4.436   8.616   1.851
    1CAL  O02dC16838   5.687   8.117   1.545
    1CAL  O02dD16839   5.687   9.566   1.703
    1CAL  O02dE16840   5.880   8.038   1.624
    1CAL  O02dF16841   4.380   8.039   1.624
    1CAL  O02dG16842   4.187   9.566   1.703
    1CAL  O02dH16843   4.186   8.117   1.545
    1CAL  O02dI16844   5.187   8.117   1.545
    1CAL  O02dJ16845   5.187   9.566   1.703
    1CAL  O02dK16846   5.380   8.039   1.624
    1CAL  O02dL16847   5.065   8.825   1.238
    1CAL  O02dM16848   5.816   8.520   1.545
    1CAL  O02dN16849   4.821   9.511   2.159
    1CAL  O02dO16850   4.812   9.359   2.325
    1CAL  O02dP16851   4.622   9.443   2.239
    1CAL  O02dQ16852   4.679   9.110   2.158
    1CAL  O02dR16853   4.688   8.959   2.324
    1CAL  O02dS16854   4.878   9.041   2.237
    1CAL  O02dT16855   4.878   8.238   2.238
    1CAL  O02dU16856   4.688   8.155   2.325
    1CAL  O02dV16857   4.679   8.306   2.159
    1CAL  O02dW16858   4.622   8.640   2.238
    1CAL  O02dX16859   4.812   8.556   2.324
    1CAL  O02dY16860   4.821   8.708   2.159
    1CAL  O02dZ16861   5.680   9.110   2.158
    1CAL  O02da16862   5.878   9.041   2.238
    1CAL  O02db16863   5.688   8.958   2.324
    1CAL  O02dc16864   5.623   9.442   2.238
    1CAL  O02dd16865   5.812   9.359   2.324
    1CAL  O02de16866   5.821   9.511   2.159
    1CAL  O02df16867   5.679   8.306   2.159
    1CAL  O02dg16868   5.878   8.238   2.238
    1CAL  O02dh16869   5.688   8.155   2.325
    1CAL  O02di16870   5.622   8.639   2.238
    1CAL  O02dj16871   5.812   8.556   2.324
    1CAL  O02dk16872   5.821   8.708   2.159
    1CAL  O02dl16873   5.312   9.359   2.325
    1CAL  O02dm16874   5.122   9.442   2.239
    1CAL  O02dn16875   5.321   9.510   2.159
    1CAL  O02do16876   5.180   9.109   2.159
    1CAL  O02dp16877   5.189   8.957   2.325
    1CAL  O02dq16878   5.379   9.041   2.239
    1CAL  O02dr16879   5.312   8.556   2.325
    1CAL  O02ds16880   5.321   8.707   2.159
    1CAL  O02dt16881   5.122   8.640   2.238
    1CAL  O02du16882   5.180   8.306   2.160
    1CAL  O02dv16883   5.188   8.154   2.325
    1CAL  O02dw16884   5.378   8.238   2.240
    1CAL  O02dx16885   4.311   9.359   2.326
    1CAL  O02dy16886   4.122   9.443   2.239
    1CAL  O02dz16887   4.321   9.510   2.160
    1CAL  O02e016888   4.180   9.109   2.160
    1CAL  O02e116889   4.189   8.957   2.325
    1CAL  O02e216890   4.379   9.041   2.241
    1CAL  O02e316891   4.311   8.557   2.326
    1CAL  O02e416892   4.122   8.640   2.238
    1CAL  O02e516893   4.321   8.708   2.159
    1CAL  O02e616894   4.378   8.238   2.241
    1CAL  O02e716895   4.188   8.154   2.326
    1CAL  O02e816896   4.180   8.306   2.161
    1CAL  Ca0rh16897   5.003   8.841   2.236
    1CAL  Ca0ri16898   5.751   8.545   1.317
    1CAL  Ca0rj16899   5.497   9.242   2.237
    1CAL  Ca0rk16900   4.003   8.841   2.237
    1CAL  Ca0rl16901   4.751   9.538   1.932
    1CAL  Ca0rm16902   5.751   8.947   1.317
    1CAL  Ca0rn16903   5.501   8.642   1.624
    1CAL  Ca0ro16904   5.501   9.444   1.624
    1CAL  Ca0rp16905   4.250   9.137   1.931
    1CAL  Ca0rq16906   5.001   9.444   1.624
    1CAL  Ca0rr16907   4.503   8.038   2.237
    1CAL  Ca0rs16908   4.251   8.545   1.317
    1CAL  Ca0rt16909   4.251   8.736   1.932
    1CAL  Ca0ru16910   5.998   8.439   2.237
    1CAL  Ca0rv16911   5.998   9.242   2.237
    1CAL  Ca0rw16912   5.750   9.137   1.930
    1CAL  Ca0rx16913   5.251   8.143   1.317
    1CAL  Ca0ry16914   6.001   9.444   1.624
    1CAL  Ca0rz16915   5.751   8.143   1.317
    1CAL  Ca0s016916   4.496   8.440   2.237
    1CAL  Ca0s116917   4.003   8.038   2.238
    1CAL  Ca0s216918   5.752   8.736   1.932
    1CAL  Ca0s316919   4.251   8.947   1.317
    1CAL  Ca0s416920   6.001   8.642   1.624
    1CAL  Ca0s516921   5.501   9.043   1.623
    1CAL  Ca0s616922   4.251   9.539   1.932
    1CAL  Ca0s716923   5.751   9.348   1.318
    1CAL  Ca0s816924   4.501   9.043   1.623
    1CAL  Ca0s916925   4.497   9.243   2.237
    1CAL  Ca0sA16926   6.001   8.240   1.624
    1CAL  Ca0sB16927   4.501   9.444   1.624
    1CAL  Ca0sC16928   5.497   8.439   2.237
    1CAL  Ca0sD16929   5.251   8.947   1.317
    1CAL  Ca0sE16930   4.751   8.947   1.317
    1CAL  Ca0sF16931   5.001   8.240   1.624
    1CAL  Ca0sG16932   5.001   9.043   1.623
    1CAL  Ca0sH16933   4.501   8.642   1.624
    1CAL  Ca0sI16934   5.001   8.642   1.624
    1CAL  Ca0sJ16935   4.750   9.137   1.931
    1CAL  Ca0sK16936   4.251   8.143   1.317
    1CAL  Ca0sL16937   4.751   8.545   1.317
    1CAL  Ca0sM16938   5.251   8.545   1.317
    1CAL  Ca0sN16939   5.250   9.137   1.931
    1CAL  Ca0sO16940   5.251   9.538   1.932
    1CAL  Ca0sP16941   5.750   8.334   1.932
    1CAL  Ca0sQ16942   5.003   8.038   2.237
    1CAL  Ca0sR16943   4.749   8.334   1.932
    1CAL  Ca0sS16944   4.504   8.841   2.236
    1CAL  Ca0sT16945   4.501   8.240   1.624
    1CAL  Ca0sU16946   4.751   8.143   1.317
    1CAL  Ca0sV16947   5.251   9.348   1.318
    1CAL  Ca0sW16948   5.250   8.334   1.932
    1CAL  Ca0sX16949   4.997   8.439   2.237
    1CAL  Ca0sY16950   4.751   9.348   1.318
    1CAL  Ca0sZ16951   4.997   9.242   2.237
    1CAL  Ca0sa16952   4.251   9.348   1.318
    1CAL  Ca0sb16953   5.501   8.240   1.624
    1CAL  Ca0sc16954   5.504   8.841   2.236
    1CAL  Ca0sd16955   5.503   8.037   2.237
    1CAL  Ca0se16956   4.751   8.736   1.932
    1CAL  Ca0sf16957   5.751   9.539   1.932
    1CAL  Ca0sg16958   5.251   8.736   1.932
    1CAL  Ca0sh16959   4.250   8.334   1.932
    1CAL  Ca0si16960   6.001   9.043   1.623
    1CAL  C00sj16961   6.001   9.548   2.545
    1CAL  C00sk16962   5.251   8.038   2.852
    1CAL  C00sl16963   4.251   8.038   2.852
    1CAL  C00sm16964   5.500   8.536   3.158
    1CAL  C00sn16965   5.500   9.339   3.158
    1CAL  C00so16966   4.751   8.038   2.852
    1CAL  C00sp16967   5.001   8.746   2.545
    1CAL  C00sq16968   5.251   9.243   2.849
    1CAL  C00sr16969   4.751   9.243   2.850
    1CAL  C00ss16970   4.501   8.938   3.159
    1CAL  C00st16971   4.501   8.344   2.545
    1CAL  C00su16972   5.001   9.148   2.545
    1CAL  C00sv16973   5.001   8.344   2.545
    1CAL  C00sw16974   4.251   8.441   2.852
    1CAL  C00sx16975   4.501   8.134   3.159
    1CAL  C00sy16976   5.001   8.938   3.158
    1CAL  C00sz16977   5.751   8.038   2.852
    1CAL  C00t016978   5.501   8.134   3.159
    1CAL  C00t116979   4.251   8.843   2.852
    1CAL  C00t216980   6.000   8.536   3.159
    1CAL  C00t316981   6.001   8.938   3.158
    1CAL  C00t416982   6.001   8.344   2.545
    1CAL  C00t516983   6.001   9.148   2.545
    1CAL  C00t616984   4.251   9.243   2.850
    1CAL  C00t716985   4.500   8.536   3.158
    1CAL  C00t816986   5.501   8.746   2.545
    1CAL  C00t916987   6.001   8.746   2.545
    1CAL  C00tA16988   5.751   8.441   2.852
    1CAL  C00tB16989   5.251   8.441   2.852
    1CAL  C00tC16990   5.501   8.344   2.545
    1CAL  C00tD16991   5.501   8.938   3.158
    1CAL  C00tE16992   4.499   9.339   3.158
    1CAL  C00tF16993   5.501   9.548   2.545
    1CAL  C00tG16994   4.751   8.441   2.852
    1CAL  C00tH16995   5.251   8.843   2.852
    1CAL  C00tI16996   4.501   9.148   2.545
    1CAL  C00tJ16997   5.751   9.243   2.849
    1CAL  C00tK16998   5.001   9.548   2.545
    1CAL  C00tL16999   6.000   9.339   3.159
    1CAL  C00tM17000   5.001   8.134   3.158
    1CAL  C00tN17001   5.000   9.339   3.158
    1CAL  C00tO17002   5.000   8.536   3.159
    1CAL  C00tP17003   5.751   8.843   2.852
    1CAL  C00tQ17004   4.501   9.548   2.545
    1CAL  C00tR17005   5.501   9.148   2.545
    1CAL  C00tS17006   4.501   8.746   2.545
    1CAL  C00tT17007   4.751   8.843   2.852
    1CAL  C00tU17008   6.001   8.134   3.159
    1CAL  C00tV17009   4.752   8.634   3.469
    1CAL  C00tW17010   4.748   8.233   3.469
    1CAL  C00tX17011   4.748   9.036   3.468
    1CAL  C00tY17012   4.752   9.437   3.469
    1CAL  C00tZ17013   5.752   8.634   3.469
    1CAL  C00ta17014   5.748   8.233   3.469
    1CAL  C00tb17015   5.752   9.437   3.469
    1CAL  C00tc17016   5.749   9.036   3.468
    1CAL  C00td17017   5.252   9.437   3.469
    1CAL  C00te17018   5.249   9.035   3.469
    1CAL  C00tf17019   5.252   8.634   3.469
    1CAL  C00tg17020   5.248   8.232   3.470
    1CAL  C00th17021   4.252   9.437   3.470
    1CAL  C00ti17022   4.249   9.035   3.470
    1CAL  C00tj17023   4.252   8.635   3.469
    1CAL  C00tk17024   4.248   8.232   3.471
    1CAL  O02e917025   4.186   8.765   2.931
    1CAL  O02eA17026   5.187   8.922   2.773
    1CAL  O02eB17027   5.186   8.765   2.931
    1CAL  O02eC17028   5.380   8.843   2.853
    1CAL  O02eD17029   4.565   9.469   2.624
    1CAL  O02eE17030   4.372   9.549   2.544
    1CAL  O02eF17031   4.565   8.825   2.466
    1CAL  O02eG17032   4.687   8.922   2.773
    1CAL  O02eH17033   4.686   8.765   2.931
    1CAL  O02eI17034   4.880   8.843   2.853
    1CAL  O02eJ17035   4.566   9.626   2.466
    1CAL  O02eK17036   4.565   8.668   2.624
    1CAL  O02eL17037   4.372   8.746   2.545
    1CAL  O02eM17038   5.129   9.338   3.159
    1CAL  O02eN17039   4.936   9.417   3.078
    1CAL  O02eO17040   4.937   8.615   3.078
    1CAL  O02eP17041   4.934   8.458   3.238
    1CAL  O02eQ17042   5.129   8.535   3.160
    1CAL  O02eR17043   4.934   9.261   3.238
    1CAL  O02eS17044   4.622   8.441   2.852
    1CAL  O02eT17045   5.064   9.017   3.078
    1CAL  O02eU17046   5.123   9.243   2.849
    1CAL  O02eV17047   5.315   9.164   2.929
    1CAL  O02eW17048   5.316   9.321   2.771
    1CAL  O02eX17049   4.437   8.265   2.624
    1CAL  O02eY17050   4.436   8.422   2.466
    1CAL  O02eZ17051   4.622   9.243   2.849
    1CAL  O02ea17052   4.815   9.164   2.929
    1CAL  O02eb17053   4.816   9.321   2.771
    1CAL  O02ec17054   4.315   8.520   2.773
    1CAL  O02ed17055   4.815   8.362   2.931
    1CAL  O02ee17056   4.937   9.227   2.465
    1CAL  O02ef17057   5.130   9.148   2.545
    1CAL  O02eg17058   4.315   8.362   2.932
    1CAL  O02eh17059   4.122   8.441   2.852
    1CAL  O02ei17060   4.815   8.520   2.773
    1CAL  O02ej17061   4.937   8.423   2.465
    1CAL  O02ek17062   4.937   8.265   2.624
    1CAL  O02el17063   5.130   8.344   2.545
    1CAL  O02em17064   4.871   8.937   3.159
    1CAL  O02en17065   5.067   8.860   3.237
    1CAL  O02eo17066   4.936   9.070   2.624
    1CAL  O02ep17067   5.687   8.922   2.773
    1CAL  O02eq17068   5.686   8.765   2.931
    1CAL  O02er17069   5.880   8.843   2.853
    1CAL  O02es17070   5.935   9.260   3.238
    1CAL  O02et17071   5.937   8.615   3.079
    1CAL  O02eu17072   5.935   8.457   3.238
    1CAL  O02ev17073   4.129   9.338   3.160
    1CAL  O02ew17074   4.065   8.213   3.079
    1CAL  O02ex17075   5.437   9.227   2.465
    1CAL  O02ey17076   5.436   9.070   2.624
    1CAL  O02ez17077   5.630   9.148   2.545
    1CAL  O02f017078   4.066   8.056   3.239
    1CAL  O02f117079   5.435   9.261   3.238
    1CAL  O02f217080   4.066   9.626   2.466
    1CAL  O02f317081   4.065   9.469   2.624
    1CAL  O02f417082   4.872   9.549   2.544
    1CAL  O02f517083   5.872   8.937   3.160
    1CAL  O02f617084   5.937   8.265   2.624
    1CAL  O02f717085   5.065   8.213   3.079
    1CAL  O02f817086   4.437   9.227   2.465
    1CAL  O02f917087   4.436   9.070   2.624
    1CAL  O02fA17088   4.630   9.148   2.545
    1CAL  O02fB17089   5.066   8.055   3.238
    1CAL  O02fC17090   4.434   9.261   3.238
    1CAL  O02fD17091   4.872   8.134   3.159
    1CAL  O02fE17092   5.873   8.746   2.545
    1CAL  O02fF17093   5.066   9.626   2.466
    1CAL  O02fG17094   5.065   9.469   2.624
    1CAL  O02fH17095   5.623   9.243   2.849
    1CAL  O02fI17096   5.815   9.164   2.929
    1CAL  O02fJ17097   5.816   9.321   2.770
    1CAL  O02fK17098   5.938   9.227   2.465
    1CAL  O02fL17099   5.936   9.070   2.624
    1CAL  O02fM17100   5.937   8.423   2.465
    1CAL  O02fN17101   4.630   8.344   2.544
    1CAL  O02fO17102   4.380   8.843   2.853
    1CAL  O02fP17103   4.371   8.937   3.162
    1CAL  O02fQ17104   5.066   8.668   2.624
    1CAL  O02fR17105   5.565   9.469   2.624
    1CAL  O02fS17106   5.566   9.626   2.466
    1CAL  O02fT17107   5.623   8.441   2.852
    1CAL  O02fU17108   5.816   8.362   2.931
    1CAL  O02fV17109   5.373   9.549   2.544
    1CAL  O02fW17110   5.122   8.441   2.852
    1CAL  O02fX17111   5.315   8.520   2.773
    1CAL  O02fY17112   4.629   9.338   3.159
    1CAL  O02fZ17113   5.437   8.422   2.466
    1CAL  O02fa17114   5.437   8.265   2.624
    1CAL  O02fb17115   5.630   8.344   2.544
    1CAL  O02fc17116   5.372   8.937   3.161
    1CAL  O02fd17117   5.567   8.860   3.237
    1CAL  O02fe17118   5.316   8.362   2.931
    1CAL  O02ff17119   5.564   9.018   3.078
    1CAL  O02fg17120   4.066   8.668   2.624
    1CAL  O02fh17121   5.566   8.668   2.624
    1CAL  O02fi17122   4.187   8.922   2.773
    1CAL  O02fj17123   4.064   9.018   3.078
    1CAL  O02fk17124   4.066   8.860   3.238
    1CAL  O02fl17125   4.129   8.535   3.160
    1CAL  O02fm17126   4.130   8.344   2.545
    1CAL  O02fn17127   4.129   9.148   2.545
    1CAL  O02fo17128   5.565   8.825   2.466
    1CAL  O02fp17129   4.316   9.321   2.771
    1CAL  O02fq17130   5.873   9.549   2.544
    1CAL  O02fr17131   5.872   8.134   3.160
    1CAL  O02fs17132   4.122   9.243   2.849
    1CAL  O02ft17133   5.936   9.417   3.078
    1CAL  O02fu17134   4.065   8.825   2.466
    1CAL  O02fv17135   5.373   8.746   2.545
    1CAL  O02fw17136   4.315   9.164   2.929
    1CAL  O02fx17137   4.435   9.418   3.078
    1CAL  O02fy17138   4.629   8.535   3.159
    1CAL  O02fz17139   5.372   8.133   3.161
    1CAL  O02g017140   5.437   8.615   3.078
    1CAL  O02g117141   5.435   8.458   3.238
    1CAL  O02g217142   5.630   8.535   3.159
    1CAL  O02g317143   4.880   8.038   2.852
    1CAL  O02g417144   4.687   9.566   2.931
    1CAL  O02g517145   5.435   9.417   3.078
    1CAL  O02g617146   5.629   9.338   3.158
    1CAL  O02g717147   4.687   8.117   2.773
    1CAL  O02g817148   4.564   8.213   3.079
    1CAL  O02g917149   4.567   8.056   3.238
    1CAL  O02gA17150   4.371   8.134   3.161
    1CAL  O02gB17151   4.563   9.018   3.078
    1CAL  O02gC17152   4.568   8.860   3.238
    1CAL  O02gD17153   4.872   8.746   2.545
    1CAL  O02gE17154   5.567   8.055   3.238
    1CAL  O02gF17155   5.565   8.213   3.079
    1CAL  O02gG17156   4.434   8.458   3.238
    1CAL  O02gH17157   4.436   8.616   3.079
    1CAL  O02gI17158   5.687   8.117   2.773
    1CAL  O02gJ17159   5.687   9.566   2.931
    1CAL  O02gK17160   5.880   8.038   2.852
    1CAL  O02gL17161   4.380   8.039   2.852
    1CAL  O02gM17162   4.187   9.566   2.931
    1CAL  O02gN17163   4.186   8.117   2.773
    1CAL  O02gO17164   5.187   8.117   2.773
    1CAL  O02gP17165   5.187   9.566   2.931
    1CAL  O02gQ17166   5.380   8.039   2.852
    1CAL  O02gR17167   5.065   8.825   2.466
    1CAL  O02gS17168   5.816   8.520   2.773
    1CAL  O02gT17169   4.821   9.511   3.387
    1CAL  O02gU17170   4.812   9.359   3.553
    1CAL  O02gV17171   4.622   9.443   3.467
    1CAL  O02gW17172   4.679   9.110   3.386
    1CAL  O02gX17173   4.688   8.959   3.552
    1CAL  O02gY17174   4.878   9.041   3.465
    1CAL  O02gZ17175   4.878   8.238   3.466
    1CAL  O02ga17176   4.688   8.155   3.553
    1CAL  O02gb17177   4.679   8.306   3.387
    1CAL  O02gc17178   4.622   8.640   3.466
    1CAL  O02gd17179   4.812   8.556   3.552
    1CAL  O02ge17180   4.821   8.708   3.387
    1CAL  O02gf17181   5.680   9.110   3.386
    1CAL  O02gg17182   5.878   9.041   3.466
    1CAL  O02gh17183   5.688   8.958   3.552
    1CAL  O02gi17184   5.623   9.442   3.466
    1CAL  O02gj17185   5.812   9.359   3.552
    1CAL  O02gk17186   5.821   9.511   3.387
    1CAL  O02gl17187   5.679   8.306   3.387
    1CAL  O02gm17188   5.878   8.238   3.466
    1CAL  O02gn17189   5.688   8.155   3.553
    1CAL  O02go17190   5.622   8.639   3.466
    1CAL  O02gp17191   5.812   8.556   3.552
    1CAL  O02gq17192   5.821   8.708   3.387
    1CAL  O02gr17193   5.312   9.359   3.553
    1CAL  O02gs17194   5.122   9.442   3.467
    1CAL  O02gt17195   5.321   9.510   3.387
    1CAL  O02gu17196   5.180   9.109   3.387
    1CAL  O02gv17197   5.189   8.957   3.553
    1CAL  O02gw17198   5.379   9.041   3.467
    1CAL  O02gx17199   5.312   8.556   3.553
    1CAL  O02gy17200   5.321   8.707   3.387
    1CAL  O02gz17201   5.122   8.640   3.466
    1CAL  O02h017202   5.180   8.306   3.388
    1CAL  O02h117203   5.188   8.154   3.553
    1CAL  O02h217204   5.378   8.238   3.468
    1CAL  O02h317205   4.311   9.359   3.554
    1CAL  O02h417206   4.122   9.443   3.467
    1CAL  O02h517207   4.321   9.510   3.388
    1CAL  O02h617208   4.180   9.109   3.388
    1CAL  O02h717209   4.189   8.957   3.553
    1CAL  O02h817210   4.379   9.041   3.469
    1CAL  O02h917211   4.311   8.557   3.554
    1CAL  O02hA17212   4.122   8.640   3.466
    1CAL  O02hB17213   4.321   8.708   3.387
    1CAL  O02hC17214   4.378   8.238   3.469
    1CAL  O02hD17215   4.188   8.154   3.554
    1CAL  O02hE17216   4.180   8.306   3.389
    1CAL  Ca0sj17217   5.003   8.841   3.464
    1CAL  Ca0sk17218   5.751   8.545   2.545
    1CAL  Ca0sl17219   5.497   9.242   3.465
    1CAL  Ca0sm17220   4.003   8.841   3.465
    1CAL  Ca0sn17221   4.751   9.538   3.160
    1CAL  Ca0so17222   5.751   8.947   2.545
    1CAL  Ca0sp17223   5.501   8.642   2.852
    1CAL  Ca0sq17224   5.501   9.444   2.852
    1CAL  Ca0sr17225   4.250   9.137   3.159
    1CAL  Ca0ss17226   5.001   9.444   2.852
    1CAL  Ca0st17227   4.503   8.038   3.465
    1CAL  Ca0su17228   4.251   8.545   2.545
    1CAL  Ca0sv17229   4.251   8.736   3.160
    1CAL  Ca0sw17230   5.998   8.439   3.465
    1CAL  Ca0sx17231   5.998   9.242   3.465
    1CAL  Ca0sy17232   5.750   9.137   3.158
    1CAL  Ca0sz17233   5.251   8.143   2.545
    1CAL  Ca0t017234   6.001   9.444   2.852
    1CAL  Ca0t117235   5.751   8.143   2.545
    1CAL  Ca0t217236   4.496   8.440   3.465
    1CAL  Ca0t317237   4.003   8.038   3.466
    1CAL  Ca0t417238   5.752   8.736   3.160
    1CAL  Ca0t517239   4.251   8.947   2.545
    1CAL  Ca0t617240   6.001   8.642   2.852
    1CAL  Ca0t717241   5.501   9.043   2.851
    1CAL  Ca0t817242   4.251   9.539   3.160
    1CAL  Ca0t917243   5.751   9.348   2.546
    1CAL  Ca0tA17244   4.501   9.043   2.851
    1CAL  Ca0tB17245   4.497   9.243   3.465
    1CAL  Ca0tC17246   6.001   8.240   2.852
    1CAL  Ca0tD17247   4.501   9.444   2.852
    1CAL  Ca0tE17248   5.497   8.439   3.465
    1CAL  Ca0tF17249   5.251   8.947   2.545
    1CAL  Ca0tG17250   4.751   8.947   2.545
    1CAL  Ca0tH17251   5.001   8.240   2.852
    1CAL  Ca0tI17252   5.001   9.043   2.851
    1CAL  Ca0tJ17253   4.501   8.642   2.852
    1CAL  Ca0tK17254   5.001   8.642   2.852
    1CAL  Ca0tL17255   4.750   9.137   3.159
    1CAL  Ca0tM17256   4.251   8.143   2.545
    1CAL  Ca0tN17257   4.751   8.545   2.545
    1CAL  Ca0tO17258   5.251   8.545   2.545
    1CAL  Ca0tP17259   5.250   9.137   3.159
    1CAL  Ca0tQ17260   5.251   9.538   3.160
    1CAL  Ca0tR17261   5.750   8.334   3.160
    1CAL  Ca0tS17262   5.003   8.038   3.465
    1CAL  Ca0tT17263   4.749   8.334   3.160
    1CAL  Ca0tU17264   4.504   8.841   3.464
    1CAL  Ca0tV17265   4.501   8.240   2.852
    1CAL  Ca0tW17266   4.751   8.143   2.545
    1CAL  Ca0tX17267   5.251   9.348   2.546
    1CAL  Ca0tY17268   5.250   8.334   3.160
    1CAL  Ca0tZ17269   4.997   8.439   3.465
    1CAL  Ca0ta17270   4.751   9.348   2.546
    1CAL  Ca0tb17271   4.997   9.242   3.465
    1CAL  Ca0tc17272   4.251   9.348   2.546
    1CAL  Ca0td17273   5.501   8.240   2.852
    1CAL  Ca0te17274   5.504   8.841   3.464
    1CAL  Ca0tf17275   5.503   8.037   3.465
    1CAL  Ca0tg17276   4.751   8.736   3.160
    1CAL  Ca0th17277   5.751   9.539   3.160
    1CAL  Ca0ti17278   5.251   8.736   3.160
    1CAL  Ca0tj17279   4.250   8.334   3.160
    1CAL  Ca0tk17280   6.001   9.043   2.851
    1CAL  C00tl17281   8.001   1.517   0.089
    1CAL  C00tm17282   7.251   0.007   0.396
    1CAL  C00tn17283   6.251   0.007   0.396
    1CAL  C00to17284   7.500   0.505   0.702
    1CAL  C00tp17285   7.500   1.308   0.702
    1CAL  C00tq17286   6.751   0.007   0.396
    1CAL  C00tr17287   7.001   0.715   0.089
    1CAL  C00ts17288   7.251   1.212   0.393
    1CAL  C00tt17289   6.751   1.212   0.394
    1CAL  C00tu17290   6.501   0.907   0.703
    1CAL  C00tv17291   6.501   0.313   0.089
    1CAL  C00tw17292   7.001   1.117   0.089
    1CAL  C00tx17293   7.001   0.313   0.089
    1CAL  C00ty17294   6.251   0.410   0.396
    1CAL  C00tz17295   6.501   0.103   0.703
    1CAL  C00u017296   7.001   0.907   0.702
    1CAL  C00u117297   7.751   0.007   0.396
    1CAL  C00u217298   7.501   0.103   0.703
    1CAL  C00u317299   6.251   0.812   0.396
    1CAL  C00u417300   8.000   0.505   0.703
    1CAL  C00u517301   8.001   0.907   0.702
    1CAL  C00u617302   8.001   0.313   0.089
    1CAL  C00u717303   8.001   1.117   0.089
    1CAL  C00u817304   6.251   1.212   0.394
    1CAL  C00u917305   6.500   0.505   0.702
    1CAL  C00uA17306   7.501   0.715   0.089
    1CAL  C00uB17307   8.001   0.715   0.089
    1CAL  C00uC17308   7.751   0.410   0.396
    1CAL  C00uD17309   7.251   0.410   0.396
    1CAL  C00uE17310   7.501   0.313   0.089
    1CAL  C00uF17311   7.501   0.907   0.702
    1CAL  C00uG17312   6.499   1.308   0.702
    1CAL  C00uH17313   7.501   1.517   0.089
    1CAL  C00uI17314   6.751   0.410   0.396
    1CAL  C00uJ17315   7.251   0.812   0.396
    1CAL  C00uK17316   6.501   1.117   0.089
    1CAL  C00uL17317   7.751   1.212   0.393
    1CAL  C00uM17318   7.001   1.517   0.089
    1CAL  C00uN17319   8.000   1.308   0.703
    1CAL  C00uO17320   7.001   0.103   0.702
    1CAL  C00uP17321   7.000   1.308   0.702
    1CAL  C00uQ17322   7.000   0.505   0.703
    1CAL  C00uR17323   7.751   0.812   0.396
    1CAL  C00uS17324   6.501   1.517   0.089
    1CAL  C00uT17325   7.501   1.117   0.089
    1CAL  C00uU17326   6.501   0.715   0.089
    1CAL  C00uV17327   6.751   0.812   0.396
    1CAL  C00uW17328   8.001   0.103   0.703
    1CAL  C00uX17329   6.752   0.603   1.013
    1CAL  C00uY17330   6.748   0.202   1.013
    1CAL  C00uZ17331   6.748   1.005   1.012
    1CAL  C00ua17332   6.752   1.406   1.013
    1CAL  C00ub17333   7.752   0.603   1.013
    1CAL  C00uc17334   7.748   0.202   1.013
    1CAL  C00ud17335   7.752   1.406   1.013
    1CAL  C00ue17336   7.749   1.005   1.012
    1CAL  C00uf17337   7.252   1.406   1.013
    1CAL  C00ug17338   7.249   1.004   1.013
    1CAL  C00uh17339   7.252   0.603   1.013
    1CAL  C00ui17340   7.248   0.201   1.014
    1CAL  C00uj17341   6.252   1.406   1.014
    1CAL  C00uk17342   6.249   1.004   1.014
    1CAL  C00ul17343   6.252   0.604   1.013
    1CAL  C00um17344   6.248   0.201   1.015
    1CAL  O02hF17345   6.186   0.734   0.475
    1CAL  O02hG17346   7.187   0.891   0.317
    1CAL  O02hH17347   7.186   0.734   0.475
    1CAL  O02hI17348   7.380   0.812   0.397
    1CAL  O02hJ17349   6.565   1.438   0.168
    1CAL  O02hK17350   6.372   1.518   0.088
    1CAL  O02hL17351   6.565   0.794   0.010
    1CAL  O02hM17352   6.687   0.891   0.317
    1CAL  O02hN17353   6.686   0.734   0.475
    1CAL  O02hO17354   6.880   0.812   0.397
    1CAL  O02hP17355   6.566   1.595   0.010
    1CAL  O02hQ17356   6.565   0.637   0.168
    1CAL  O02hR17357   6.372   0.715   0.089
    1CAL  O02hS17358   7.129   1.307   0.703
    1CAL  O02hT17359   6.936   1.386   0.622
    1CAL  O02hU17360   6.937   0.584   0.622
    1CAL  O02hV17361   6.934   0.427   0.782
    1CAL  O02hW17362   7.129   0.504   0.704
    1CAL  O02hX17363   6.934   1.230   0.782
    1CAL  O02hY17364   6.622   0.410   0.396
    1CAL  O02hZ17365   7.064   0.986   0.622
    1CAL  O02ha17366   7.123   1.212   0.393
    1CAL  O02hb17367   7.315   1.133   0.473
    1CAL  O02hc17368   7.316   1.290   0.315
    1CAL  O02hd17369   6.437   0.234   0.168
    1CAL  O02he17370   6.436   0.391   0.010
    1CAL  O02hf17371   6.622   1.212   0.393
    1CAL  O02hg17372   6.815   1.133   0.473
    1CAL  O02hh17373   6.816   1.290   0.315
    1CAL  O02hi17374   6.315   0.489   0.317
    1CAL  O02hj17375   6.815   0.331   0.475
    1CAL  O02hk17376   6.937   1.196   0.009
    1CAL  O02hl17377   7.130   1.117   0.089
    1CAL  O02hm17378   6.315   0.331   0.476
    1CAL  O02hn17379   6.122   0.410   0.396
    1CAL  O02ho17380   6.815   0.489   0.317
    1CAL  O02hp17381   6.937   0.392   0.009
    1CAL  O02hq17382   6.937   0.234   0.168
    1CAL  O02hr17383   7.130   0.313   0.089
    1CAL  O02hs17384   6.871   0.906   0.703
    1CAL  O02ht17385   7.067   0.829   0.781
    1CAL  O02hu17386   6.936   1.039   0.168
    1CAL  O02hv17387   7.687   0.891   0.317
    1CAL  O02hw17388   7.686   0.734   0.475
    1CAL  O02hx17389   7.880   0.812   0.397
    1CAL  O02hy17390   7.935   1.229   0.782
    1CAL  O02hz17391   7.937   0.584   0.623
    1CAL  O02i017392   7.935   0.426   0.782
    1CAL  O02i117393   6.129   1.307   0.704
    1CAL  O02i217394   6.065   0.182   0.623
    1CAL  O02i317395   7.437   1.196   0.009
    1CAL  O02i417396   7.436   1.039   0.168
    1CAL  O02i517397   7.630   1.117   0.089
    1CAL  O02i617398   6.066   0.025   0.783
    1CAL  O02i717399   7.435   1.230   0.782
    1CAL  O02i817400   6.066   1.595   0.010
    1CAL  O02i917401   6.065   1.438   0.168
    1CAL  O02iA17402   6.872   1.518   0.088
    1CAL  O02iB17403   7.872   0.906   0.704
    1CAL  O02iC17404   7.937   0.234   0.168
    1CAL  O02iD17405   7.065   0.182   0.623
    1CAL  O02iE17406   6.437   1.196   0.009
    1CAL  O02iF17407   6.436   1.039   0.168
    1CAL  O02iG17408   6.630   1.117   0.089
    1CAL  O02iH17409   7.066   0.024   0.782
    1CAL  O02iI17410   6.434   1.230   0.782
    1CAL  O02iJ17411   6.872   0.103   0.703
    1CAL  O02iK17412   7.873   0.715   0.089
    1CAL  O02iL17413   7.066   1.595   0.010
    1CAL  O02iM17414   7.065   1.438   0.168
    1CAL  O02iN17415   7.623   1.212   0.393
    1CAL  O02iO17416   7.815   1.133   0.473
    1CAL  O02iP17417   7.816   1.290   0.314
    1CAL  O02iQ17418   7.938   1.196   0.009
    1CAL  O02iR17419   7.936   1.039   0.168
    1CAL  O02iS17420   7.937   0.392   0.009
    1CAL  O02iT17421   6.630   0.313   0.088
    1CAL  O02iU17422   6.380   0.812   0.397
    1CAL  O02iV17423   6.371   0.906   0.706
    1CAL  O02iW17424   7.066   0.637   0.168
    1CAL  O02iX17425   7.565   1.438   0.168
    1CAL  O02iY17426   7.566   1.595   0.010
    1CAL  O02iZ17427   7.623   0.410   0.396
    1CAL  O02ia17428   7.816   0.331   0.475
    1CAL  O02ib17429   7.373   1.518   0.088
    1CAL  O02ic17430   7.122   0.410   0.396
    1CAL  O02id17431   7.315   0.489   0.317
    1CAL  O02ie17432   6.629   1.307   0.703
    1CAL  O02if17433   7.437   0.391   0.010
    1CAL  O02ig17434   7.437   0.234   0.168
    1CAL  O02ih17435   7.630   0.313   0.088
    1CAL  O02ii17436   7.372   0.906   0.705
    1CAL  O02ij17437   7.567   0.829   0.781
    1CAL  O02ik17438   7.316   0.331   0.475
    1CAL  O02il17439   7.564   0.987   0.622
    1CAL  O02im17440   6.066   0.637   0.168
    1CAL  O02in17441   7.566   0.637   0.168
    1CAL  O02io17442   6.187   0.891   0.317
    1CAL  O02ip17443   6.064   0.987   0.622
    1CAL  O02iq17444   6.066   0.829   0.782
    1CAL  O02ir17445   6.129   0.504   0.704
    1CAL  O02is17446   6.130   0.313   0.089
    1CAL  O02it17447   6.129   1.117   0.089
    1CAL  O02iu17448   7.565   0.794   0.010
    1CAL  O02iv17449   6.316   1.290   0.315
    1CAL  O02iw17450   7.873   1.518   0.088
    1CAL  O02ix17451   7.872   0.103   0.704
    1CAL  O02iy17452   6.122   1.212   0.393
    1CAL  O02iz17453   7.936   1.386   0.622
    1CAL  O02j017454   6.065   0.794   0.010
    1CAL  O02j117455   7.373   0.715   0.089
    1CAL  O02j217456   6.315   1.133   0.473
    1CAL  O02j317457   6.435   1.387   0.622
    1CAL  O02j417458   6.629   0.504   0.703
    1CAL  O02j517459   7.372   0.102   0.705
    1CAL  O02j617460   7.437   0.584   0.622
    1CAL  O02j717461   7.435   0.427   0.782
    1CAL  O02j817462   7.630   0.504   0.703
    1CAL  O02j917463   6.880   0.007   0.396
    1CAL  O02jA17464   6.687   1.535   0.475
    1CAL  O02jB17465   7.435   1.386   0.622
    1CAL  O02jC17466   7.629   1.307   0.702
    1CAL  O02jD17467   6.687   0.086   0.317
    1CAL  O02jE17468   6.564   0.182   0.623
    1CAL  O02jF17469   6.567   0.025   0.782
    1CAL  O02jG17470   6.371   0.103   0.705
    1CAL  O02jH17471   6.563   0.987   0.622
    1CAL  O02jI17472   6.568   0.829   0.782
    1CAL  O02jJ17473   6.872   0.715   0.089
    1CAL  O02jK17474   7.567   0.024   0.782
    1CAL  O02jL17475   7.565   0.182   0.623
    1CAL  O02jM17476   6.434   0.427   0.782
    1CAL  O02jN17477   6.436   0.585   0.623
    1CAL  O02jO17478   7.687   0.086   0.317
    1CAL  O02jP17479   7.687   1.535   0.475
    1CAL  O02jQ17480   7.880   0.007   0.396
    1CAL  O02jR17481   6.380   0.008   0.396
    1CAL  O02jS17482   6.187   1.535   0.475
    1CAL  O02jT17483   6.186   0.086   0.317
    1CAL  O02jU17484   7.187   0.086   0.317
    1CAL  O02jV17485   7.187   1.535   0.475
    1CAL  O02jW17486   7.380   0.008   0.396
    1CAL  O02jX17487   7.065   0.794   0.010
    1CAL  O02jY17488   7.816   0.489   0.317
    1CAL  O02jZ17489   6.821   1.480   0.931
    1CAL  O02ja17490   6.812   1.328   1.097
    1CAL  O02jb17491   6.622   1.412   1.011
    1CAL  O02jc17492   6.679   1.079   0.930
    1CAL  O02jd17493   6.688   0.928   1.096
    1CAL  O02je17494   6.878   1.010   1.009
    1CAL  O02jf17495   6.878   0.207   1.010
    1CAL  O02jg17496   6.688   0.124   1.097
    1CAL  O02jh17497   6.679   0.275   0.931
    1CAL  O02ji17498   6.622   0.609   1.010
    1CAL  O02jj17499   6.812   0.525   1.096
    1CAL  O02jk17500   6.821   0.677   0.931
    1CAL  O02jl17501   7.680   1.079   0.930
    1CAL  O02jm17502   7.878   1.010   1.010
    1CAL  O02jn17503   7.688   0.927   1.096
    1CAL  O02jo17504   7.623   1.411   1.010
    1CAL  O02jp17505   7.812   1.328   1.096
    1CAL  O02jq17506   7.821   1.480   0.931
    1CAL  O02jr17507   7.679   0.275   0.931
    1CAL  O02js17508   7.878   0.207   1.010
    1CAL  O02jt17509   7.688   0.124   1.097
    1CAL  O02ju17510   7.622   0.608   1.010
    1CAL  O02jv17511   7.812   0.525   1.096
    1CAL  O02jw17512   7.821   0.677   0.931
    1CAL  O02jx17513   7.312   1.328   1.097
    1CAL  O02jy17514   7.122   1.411   1.011
    1CAL  O02jz17515   7.321   1.479   0.931
    1CAL  O02k017516   7.180   1.078   0.931
    1CAL  O02k117517   7.189   0.926   1.097
    1CAL  O02k217518   7.379   1.010   1.011
    1CAL  O02k317519   7.312   0.525   1.097
    1CAL  O02k417520   7.321   0.676   0.931
    1CAL  O02k517521   7.122   0.609   1.010
    1CAL  O02k617522   7.180   0.275   0.932
    1CAL  O02k717523   7.188   0.123   1.097
    1CAL  O02k817524   7.378   0.207   1.012
    1CAL  O02k917525   6.311   1.328   1.098
    1CAL  O02kA17526   6.122   1.412   1.011
    1CAL  O02kB17527   6.321   1.479   0.932
    1CAL  O02kC17528   6.180   1.078   0.932
    1CAL  O02kD17529   6.189   0.926   1.097
    1CAL  O02kE17530   6.379   1.010   1.013
    1CAL  O02kF17531   6.311   0.526   1.098
    1CAL  O02kG17532   6.122   0.609   1.010
    1CAL  O02kH17533   6.321   0.677   0.931
    1CAL  O02kI17534   6.378   0.207   1.013
    1CAL  O02kJ17535   6.188   0.123   1.098
    1CAL  O02kK17536   6.180   0.275   0.933
    1CAL  Ca0tl17537   7.003   0.810   1.008
    1CAL  Ca0tm17538   7.751   0.514   0.089
    1CAL  Ca0tn17539   7.497   1.211   1.009
    1CAL  Ca0to17540   6.003   0.810   1.009
    1CAL  Ca0tp17541   6.751   1.507   0.704
    1CAL  Ca0tq17542   7.751   0.916   0.089
    1CAL  Ca0tr17543   7.501   0.611   0.396
    1CAL  Ca0ts17544   7.501   1.413   0.396
    1CAL  Ca0tt17545   6.250   1.106   0.703
    1CAL  Ca0tu17546   7.001   1.413   0.396
    1CAL  Ca0tv17547   6.503   0.007   1.009
    1CAL  Ca0tw17548   6.251   0.514   0.089
    1CAL  Ca0tx17549   6.251   0.705   0.704
    1CAL  Ca0ty17550   7.998   0.408   1.009
    1CAL  Ca0tz17551   7.998   1.211   1.009
    1CAL  Ca0u017552   7.750   1.106   0.702
    1CAL  Ca0u117553   7.251   0.112   0.089
    1CAL  Ca0u217554   8.001   1.413   0.396
    1CAL  Ca0u317555   7.751   0.112   0.089
    1CAL  Ca0u417556   6.496   0.409   1.009
    1CAL  Ca0u517557   6.003   0.007   1.010
    1CAL  Ca0u617558   7.752   0.705   0.704
    1CAL  Ca0u717559   6.251   0.916   0.089
    1CAL  Ca0u817560   8.001   0.611   0.396
    1CAL  Ca0u917561   7.501   1.012   0.395
    1CAL  Ca0uA17562   6.251   1.508   0.704
    1CAL  Ca0uB17563   7.751   1.317   0.090
    1CAL  Ca0uC17564   6.501   1.012   0.395
    1CAL  Ca0uD17565   6.497   1.212   1.009
    1CAL  Ca0uE17566   8.001   0.209   0.396
    1CAL  Ca0uF17567   6.501   1.413   0.396
    1CAL  Ca0uG17568   7.497   0.408   1.009
    1CAL  Ca0uH17569   7.251   0.916   0.089
    1CAL  Ca0uI17570   6.751   0.916   0.089
    1CAL  Ca0uJ17571   7.001   0.209   0.396
    1CAL  Ca0uK17572   7.001   1.012   0.395
    1CAL  Ca0uL17573   6.501   0.611   0.396
    1CAL  Ca0uM17574   7.001   0.611   0.396
    1CAL  Ca0uN17575   6.750   1.106   0.703
    1CAL  Ca0uO17576   6.251   0.112   0.089
    1CAL  Ca0uP17577   6.751   0.514   0.089
    1CAL  Ca0uQ17578   7.251   0.514   0.089
    1CAL  Ca0uR17579   7.250   1.106   0.703
    1CAL  Ca0uS17580   7.251   1.507   0.704
    1CAL  Ca0uT17581   7.750   0.303   0.704
    1CAL  Ca0uU17582   7.003   0.007   1.009
    1CAL  Ca0uV17583   6.749   0.303   0.704
    1CAL  Ca0uW17584   6.504   0.810   1.008
    1CAL  Ca0uX17585   6.501   0.209   0.396
    1CAL  Ca0uY17586   6.751   0.112   0.089
    1CAL  Ca0uZ17587   7.251   1.317   0.090
    1CAL  Ca0ua17588   7.250   0.303   0.704
    1CAL  Ca0ub17589   6.997   0.408   1.009
    1CAL  Ca0uc17590   6.751   1.317   0.090
    1CAL  Ca0ud17591   6.997   1.211   1.009
    1CAL  Ca0ue17592   6.251   1.317   0.090
    1CAL  Ca0uf17593   7.501   0.209   0.396
    1CAL  Ca0ug17594   7.504   0.810   1.008
    1CAL  Ca0uh17595   7.503   0.006   1.009
    1CAL  Ca0ui17596   6.751   0.705   0.704
    1CAL  Ca0uj17597   7.751   1.508   0.704
    1CAL  Ca0uk17598   7.251   0.705   0.704
    1CAL  Ca0ul17599   6.250   0.303   0.704
    1CAL  Ca0um17600   8.001   1.012   0.395
    1CAL  C00un17601   8.001   1.517   1.317
    1CAL  C00uo17602   7.251   0.007   1.624
    1CAL  C00up17603   6.251   0.007   1.624
    1CAL  C00uq17604   7.500   0.505   1.930
    1CAL  C00ur17605   7.500   1.308   1.930
    1CAL  C00us17606   6.751   0.007   1.624
    1CAL  C00ut17607   7.001   0.715   1.317
    1CAL  C00uu17608   7.251   1.212   1.621
    1CAL  C00uv17609   6.751   1.212   1.622
    1CAL  C00uw17610   6.501   0.907   1.931
    1CAL  C00ux17611   6.501   0.313   1.317
    1CAL  C00uy17612   7.001   1.117   1.317
    1CAL  C00uz17613   7.001   0.313   1.317
    1CAL  C00v017614   6.251   0.410   1.624
    1CAL  C00v117615   6.501   0.103   1.931
    1CAL  C00v217616   7.001   0.907   1.930
    1CAL  C00v317617   7.751   0.007   1.624
    1CAL  C00v417618   7.501   0.103   1.931
    1CAL  C00v517619   6.251   0.812   1.624
    1CAL  C00v617620   8.000   0.505   1.931
    1CAL  C00v717621   8.001   0.907   1.930
    1CAL  C00v817622   8.001   0.313   1.317
    1CAL  C00v917623   8.001   1.117   1.317
    1CAL  C00vA17624   6.251   1.212   1.622
    1CAL  C00vB17625   6.500   0.505   1.930
    1CAL  C00vC17626   7.501   0.715   1.317
    1CAL  C00vD17627   8.001   0.715   1.317
    1CAL  C00vE17628   7.751   0.410   1.624
    1CAL  C00vF17629   7.251   0.410   1.624
    1CAL  C00vG17630   7.501   0.313   1.317
    1CAL  C00vH17631   7.501   0.907   1.930
    1CAL  C00vI17632   6.499   1.308   1.930
    1CAL  C00vJ17633   7.501   1.517   1.317
    1CAL  C00vK17634   6.751   0.410   1.624
    1CAL  C00vL17635   7.251   0.812   1.624
    1CAL  C00vM17636   6.501   1.117   1.317
    1CAL  C00vN17637   7.751   1.212   1.621
    1CAL  C00vO17638   7.001   1.517   1.317
    1CAL  C00vP17639   8.000   1.308   1.931
    1CAL  C00vQ17640   7.001   0.103   1.930
    1CAL  C00vR17641   7.000   1.308   1.930
    1CAL  C00vS17642   7.000   0.505   1.931
    1CAL  C00vT17643   7.751   0.812   1.624
    1CAL  C00vU17644   6.501   1.517   1.317
    1CAL  C00vV17645   7.501   1.117   1.317
    1CAL  C00vW17646   6.501   0.715   1.317
    1CAL  C00vX17647   6.751   0.812   1.624
    1CAL  C00vY17648   8.001   0.103   1.931
    1CAL  C00vZ17649   6.752   0.603   2.241
    1CAL  C00va17650   6.748   0.202   2.241
    1CAL  C00vb17651   6.748   1.005   2.240
    1CAL  C00vc17652   6.752   1.406   2.241
    1CAL  C00vd17653   7.752   0.603   2.241
    1CAL  C00ve17654   7.748   0.202   2.241
    1CAL  C00vf17655   7.752   1.406   2.241
    1CAL  C00vg17656   7.749   1.005   2.240
    1CAL  C00vh17657   7.252   1.406   2.241
    1CAL  C00vi17658   7.249   1.004   2.241
    1CAL  C00vj17659   7.252   0.603   2.241
    1CAL  C00vk17660   7.248   0.201   2.242
    1CAL  C00vl17661   6.252   1.406   2.242
    1CAL  C00vm17662   6.249   1.004   2.242
    1CAL  C00vn17663   6.252   0.604   2.241
    1CAL  C00vo17664   6.248   0.201   2.243
    1CAL  O02kL17665   6.186   0.734   1.703
    1CAL  O02kM17666   7.187   0.891   1.545
    1CAL  O02kN17667   7.186   0.734   1.703
    1CAL  O02kO17668   7.380   0.812   1.625
    1CAL  O02kP17669   6.565   1.438   1.396
    1CAL  O02kQ17670   6.372   1.518   1.316
    1CAL  O02kR17671   6.565   0.794   1.238
    1CAL  O02kS17672   6.687   0.891   1.545
    1CAL  O02kT17673   6.686   0.734   1.703
    1CAL  O02kU17674   6.880   0.812   1.625
    1CAL  O02kV17675   6.566   1.595   1.238
    1CAL  O02kW17676   6.565   0.637   1.396
    1CAL  O02kX17677   6.372   0.715   1.317
    1CAL  O02kY17678   7.129   1.307   1.931
    1CAL  O02kZ17679   6.936   1.386   1.850
    1CAL  O02ka17680   6.937   0.584   1.850
    1CAL  O02kb17681   6.934   0.427   2.010
    1CAL  O02kc17682   7.129   0.504   1.932
    1CAL  O02kd17683   6.934   1.230   2.010
    1CAL  O02ke17684   6.622   0.410   1.624
    1CAL  O02kf17685   7.064   0.986   1.850
    1CAL  O02kg17686   7.123   1.212   1.621
    1CAL  O02kh17687   7.315   1.133   1.701
    1CAL  O02ki17688   7.316   1.290   1.543
    1CAL  O02kj17689   6.437   0.234   1.396
    1CAL  O02kk17690   6.436   0.391   1.238
    1CAL  O02kl17691   6.622   1.212   1.621
    1CAL  O02km17692   6.815   1.133   1.701
    1CAL  O02kn17693   6.816   1.290   1.543
    1CAL  O02ko17694   6.315   0.489   1.545
    1CAL  O02kp17695   6.815   0.331   1.703
    1CAL  O02kq17696   6.937   1.196   1.237
    1CAL  O02kr17697   7.130   1.117   1.317
    1CAL  O02ks17698   6.315   0.331   1.704
    1CAL  O02kt17699   6.122   0.410   1.624
    1CAL  O02ku17700   6.815   0.489   1.545
    1CAL  O02kv17701   6.937   0.392   1.237
    1CAL  O02kw17702   6.937   0.234   1.396
    1CAL  O02kx17703   7.130   0.313   1.317
    1CAL  O02ky17704   6.871   0.906   1.931
    1CAL  O02kz17705   7.067   0.829   2.009
    1CAL  O02l017706   6.936   1.039   1.396
    1CAL  O02l117707   7.687   0.891   1.545
    1CAL  O02l217708   7.686   0.734   1.703
    1CAL  O02l317709   7.880   0.812   1.625
    1CAL  O02l417710   7.935   1.229   2.010
    1CAL  O02l517711   7.937   0.584   1.851
    1CAL  O02l617712   7.935   0.426   2.010
    1CAL  O02l717713   6.129   1.307   1.932
    1CAL  O02l817714   6.065   0.182   1.851
    1CAL  O02l917715   7.437   1.196   1.237
    1CAL  O02lA17716   7.436   1.039   1.396
    1CAL  O02lB17717   7.630   1.117   1.317
    1CAL  O02lC17718   6.066   0.025   2.011
    1CAL  O02lD17719   7.435   1.230   2.010
    1CAL  O02lE17720   6.066   1.595   1.238
    1CAL  O02lF17721   6.065   1.438   1.396
    1CAL  O02lG17722   6.872   1.518   1.316
    1CAL  O02lH17723   7.872   0.906   1.932
    1CAL  O02lI17724   7.937   0.234   1.396
    1CAL  O02lJ17725   7.065   0.182   1.851
    1CAL  O02lK17726   6.437   1.196   1.237
    1CAL  O02lL17727   6.436   1.039   1.396
    1CAL  O02lM17728   6.630   1.117   1.317
    1CAL  O02lN17729   7.066   0.024   2.010
    1CAL  O02lO17730   6.434   1.230   2.010
    1CAL  O02lP17731   6.872   0.103   1.931
    1CAL  O02lQ17732   7.873   0.715   1.317
    1CAL  O02lR17733   7.066   1.595   1.238
    1CAL  O02lS17734   7.065   1.438   1.396
    1CAL  O02lT17735   7.623   1.212   1.621
    1CAL  O02lU17736   7.815   1.133   1.701
    1CAL  O02lV17737   7.816   1.290   1.542
    1CAL  O02lW17738   7.938   1.196   1.237
    1CAL  O02lX17739   7.936   1.039   1.396
    1CAL  O02lY17740   7.937   0.392   1.237
    1CAL  O02lZ17741   6.630   0.313   1.316
    1CAL  O02la17742   6.380   0.812   1.625
    1CAL  O02lb17743   6.371   0.906   1.934
    1CAL  O02lc17744   7.066   0.637   1.396
    1CAL  O02ld17745   7.565   1.438   1.396
    1CAL  O02le17746   7.566   1.595   1.238
    1CAL  O02lf17747   7.623   0.410   1.624
    1CAL  O02lg17748   7.816   0.331   1.703
    1CAL  O02lh17749   7.373   1.518   1.316
    1CAL  O02li17750   7.122   0.410   1.624
    1CAL  O02lj17751   7.315   0.489   1.545
    1CAL  O02lk17752   6.629   1.307   1.931
    1CAL  O02ll17753   7.437   0.391   1.238
    1CAL  O02lm17754   7.437   0.234   1.396
    1CAL  O02ln17755   7.630   0.313   1.316
    1CAL  O02lo17756   7.372   0.906   1.933
    1CAL  O02lp17757   7.567   0.829   2.009
    1CAL  O02lq17758   7.316   0.331   1.703
    1CAL  O02lr17759   7.564   0.987   1.850
    1CAL  O02ls17760   6.066   0.637   1.396
    1CAL  O02lt17761   7.566   0.637   1.396
    1CAL  O02lu17762   6.187   0.891   1.545
    1CAL  O02lv17763   6.064   0.987   1.850
    1CAL  O02lw17764   6.066   0.829   2.010
    1CAL  O02lx17765   6.129   0.504   1.932
    1CAL  O02ly17766   6.130   0.313   1.317
    1CAL  O02lz17767   6.129   1.117   1.317
    1CAL  O02m017768   7.565   0.794   1.238
    1CAL  O02m117769   6.316   1.290   1.543
    1CAL  O02m217770   7.873   1.518   1.316
    1CAL  O02m317771   7.872   0.103   1.932
    1CAL  O02m417772   6.122   1.212   1.621
    1CAL  O02m517773   7.936   1.386   1.850
    1CAL  O02m617774   6.065   0.794   1.238
    1CAL  O02m717775   7.373   0.715   1.317
    1CAL  O02m817776   6.315   1.133   1.701
    1CAL  O02m917777   6.435   1.387   1.850
    1CAL  O02mA17778   6.629   0.504   1.931
    1CAL  O02mB17779   7.372   0.102   1.933
    1CAL  O02mC17780   7.437   0.584   1.850
    1CAL  O02mD17781   7.435   0.427   2.010
    1CAL  O02mE17782   7.630   0.504   1.931
    1CAL  O02mF17783   6.880   0.007   1.624
    1CAL  O02mG17784   6.687   1.535   1.703
    1CAL  O02mH17785   7.435   1.386   1.850
    1CAL  O02mI17786   7.629   1.307   1.930
    1CAL  O02mJ17787   6.687   0.086   1.545
    1CAL  O02mK17788   6.564   0.182   1.851
    1CAL  O02mL17789   6.567   0.025   2.010
    1CAL  O02mM17790   6.371   0.103   1.933
    1CAL  O02mN17791   6.563   0.987   1.850
    1CAL  O02mO17792   6.568   0.829   2.010
    1CAL  O02mP17793   6.872   0.715   1.317
    1CAL  O02mQ17794   7.567   0.024   2.010
    1CAL  O02mR17795   7.565   0.182   1.851
    1CAL  O02mS17796   6.434   0.427   2.010
    1CAL  O02mT17797   6.436   0.585   1.851
    1CAL  O02mU17798   7.687   0.086   1.545
    1CAL  O02mV17799   7.687   1.535   1.703
    1CAL  O02mW17800   7.880   0.007   1.624
    1CAL  O02mX17801   6.380   0.008   1.624
    1CAL  O02mY17802   6.187   1.535   1.703
    1CAL  O02mZ17803   6.186   0.086   1.545
    1CAL  O02ma17804   7.187   0.086   1.545
    1CAL  O02mb17805   7.187   1.535   1.703
    1CAL  O02mc17806   7.380   0.008   1.624
    1CAL  O02md17807   7.065   0.794   1.238
    1CAL  O02me17808   7.816   0.489   1.545
    1CAL  O02mf17809   6.821   1.480   2.159
    1CAL  O02mg17810   6.812   1.328   2.325
    1CAL  O02mh17811   6.622   1.412   2.239
    1CAL  O02mi17812   6.679   1.079   2.158
    1CAL  O02mj17813   6.688   0.928   2.324
    1CAL  O02mk17814   6.878   1.010   2.237
    1CAL  O02ml17815   6.878   0.207   2.238
    1CAL  O02mm17816   6.688   0.124   2.325
    1CAL  O02mn17817   6.679   0.275   2.159
    1CAL  O02mo17818   6.622   0.609   2.238
    1CAL  O02mp17819   6.812   0.525   2.324
    1CAL  O02mq17820   6.821   0.677   2.159
    1CAL  O02mr17821   7.680   1.079   2.158
    1CAL  O02ms17822   7.878   1.010   2.238
    1CAL  O02mt17823   7.688   0.927   2.324
    1CAL  O02mu17824   7.623   1.411   2.238
    1CAL  O02mv17825   7.812   1.328   2.324
    1CAL  O02mw17826   7.821   1.480   2.159
    1CAL  O02mx17827   7.679   0.275   2.159
    1CAL  O02my17828   7.878   0.207   2.238
    1CAL  O02mz17829   7.688   0.124   2.325
    1CAL  O02n017830   7.622   0.608   2.238
    1CAL  O02n117831   7.812   0.525   2.324
    1CAL  O02n217832   7.821   0.677   2.159
    1CAL  O02n317833   7.312   1.328   2.325
    1CAL  O02n417834   7.122   1.411   2.239
    1CAL  O02n517835   7.321   1.479   2.159
    1CAL  O02n617836   7.180   1.078   2.159
    1CAL  O02n717837   7.189   0.926   2.325
    1CAL  O02n817838   7.379   1.010   2.239
    1CAL  O02n917839   7.312   0.525   2.325
    1CAL  O02nA17840   7.321   0.676   2.159
    1CAL  O02nB17841   7.122   0.609   2.238
    1CAL  O02nC17842   7.180   0.275   2.160
    1CAL  O02nD17843   7.188   0.123   2.325
    1CAL  O02nE17844   7.378   0.207   2.240
    1CAL  O02nF17845   6.311   1.328   2.326
    1CAL  O02nG17846   6.122   1.412   2.239
    1CAL  O02nH17847   6.321   1.479   2.160
    1CAL  O02nI17848   6.180   1.078   2.160
    1CAL  O02nJ17849   6.189   0.926   2.325
    1CAL  O02nK17850   6.379   1.010   2.241
    1CAL  O02nL17851   6.311   0.526   2.326
    1CAL  O02nM17852   6.122   0.609   2.238
    1CAL  O02nN17853   6.321   0.677   2.159
    1CAL  O02nO17854   6.378   0.207   2.241
    1CAL  O02nP17855   6.188   0.123   2.326
    1CAL  O02nQ17856   6.180   0.275   2.161
    1CAL  Ca0un17857   7.003   0.810   2.236
    1CAL  Ca0uo17858   7.751   0.514   1.317
    1CAL  Ca0up17859   7.497   1.211   2.237
    1CAL  Ca0uq17860   6.003   0.810   2.237
    1CAL  Ca0ur17861   6.751   1.507   1.932
    1CAL  Ca0us17862   7.751   0.916   1.317
    1CAL  Ca0ut17863   7.501   0.611   1.624
    1CAL  Ca0uu17864   7.501   1.413   1.624
    1CAL  Ca0uv17865   6.250   1.106   1.931
    1CAL  Ca0uw17866   7.001   1.413   1.624
    1CAL  Ca0ux17867   6.503   0.007   2.237
    1CAL  Ca0uy17868   6.251   0.514   1.317
    1CAL  Ca0uz17869   6.251   0.705   1.932
    1CAL  Ca0v017870   7.998   0.408   2.237
    1CAL  Ca0v117871   7.998   1.211   2.237
    1CAL  Ca0v217872   7.750   1.106   1.930
    1CAL  Ca0v317873   7.251   0.112   1.317
    1CAL  Ca0v417874   8.001   1.413   1.624
    1CAL  Ca0v517875   7.751   0.112   1.317
    1CAL  Ca0v617876   6.496   0.409   2.237
    1CAL  Ca0v717877   6.003   0.007   2.238
    1CAL  Ca0v817878   7.752   0.705   1.932
    1CAL  Ca0v917879   6.251   0.916   1.317
    1CAL  Ca0vA17880   8.001   0.611   1.624
    1CAL  Ca0vB17881   7.501   1.012   1.623
    1CAL  Ca0vC17882   6.251   1.508   1.932
    1CAL  Ca0vD17883   7.751   1.317   1.318
    1CAL  Ca0vE17884   6.501   1.012   1.623
    1CAL  Ca0vF17885   6.497   1.212   2.237
    1CAL  Ca0vG17886   8.001   0.209   1.624
    1CAL  Ca0vH17887   6.501   1.413   1.624
    1CAL  Ca0vI17888   7.497   0.408   2.237
    1CAL  Ca0vJ17889   7.251   0.916   1.317
    1CAL  Ca0vK17890   6.751   0.916   1.317
    1CAL  Ca0vL17891   7.001   0.209   1.624
    1CAL  Ca0vM17892   7.001   1.012   1.623
    1CAL  Ca0vN17893   6.501   0.611   1.624
    1CAL  Ca0vO17894   7.001   0.611   1.624
    1CAL  Ca0vP17895   6.750   1.106   1.931
    1CAL  Ca0vQ17896   6.251   0.112   1.317
    1CAL  Ca0vR17897   6.751   0.514   1.317
    1CAL  Ca0vS17898   7.251   0.514   1.317
    1CAL  Ca0vT17899   7.250   1.106   1.931
    1CAL  Ca0vU17900   7.251   1.507   1.932
    1CAL  Ca0vV17901   7.750   0.303   1.932
    1CAL  Ca0vW17902   7.003   0.007   2.237
    1CAL  Ca0vX17903   6.749   0.303   1.932
    1CAL  Ca0vY17904   6.504   0.810   2.236
    1CAL  Ca0vZ17905   6.501   0.209   1.624
    1CAL  Ca0va17906   6.751   0.112   1.317
    1CAL  Ca0vb17907   7.251   1.317   1.318
    1CAL  Ca0vc17908   7.250   0.303   1.932
    1CAL  Ca0vd17909   6.997   0.408   2.237
    1CAL  Ca0ve17910   6.751   1.317   1.318
    1CAL  Ca0vf17911   6.997   1.211   2.237
    1CAL  Ca0vg17912   6.251   1.317   1.318
    1CAL  Ca0vh17913   7.501   0.209   1.624
    1CAL  Ca0vi17914   7.504   0.810   2.236
    1CAL  Ca0vj17915   7.503   0.006   2.237
    1CAL  Ca0vk17916   6.751   0.705   1.932
    1CAL  Ca0vl17917   7.751   1.508   1.932
    1CAL  Ca0vm17918   7.251   0.705   1.932
    1CAL  Ca0vn17919   6.250   0.303   1.932
    1CAL  Ca0vo17920   8.001   1.012   1.623
    1CAL  C00vp17921   8.001   1.517   2.545
    1CAL  C00vq17922   7.251   0.007   2.852
    1CAL  C00vr17923   6.251   0.007   2.852
    1CAL  C00vs17924   7.500   0.505   3.158
    1CAL  C00vt17925   7.500   1.308   3.158
    1CAL  C00vu17926   6.751   0.007   2.852
    1CAL  C00vv17927   7.001   0.715   2.545
    1CAL  C00vw17928   7.251   1.212   2.849
    1CAL  C00vx17929   6.751   1.212   2.850
    1CAL  C00vy17930   6.501   0.907   3.159
    1CAL  C00vz17931   6.501   0.313   2.545
    1CAL  C00w017932   7.001   1.117   2.545
    1CAL  C00w117933   7.001   0.313   2.545
    1CAL  C00w217934   6.251   0.410   2.852
    1CAL  C00w317935   6.501   0.103   3.159
    1CAL  C00w417936   7.001   0.907   3.158
    1CAL  C00w517937   7.751   0.007   2.852
    1CAL  C00w617938   7.501   0.103   3.159
    1CAL  C00w717939   6.251   0.812   2.852
    1CAL  C00w817940   8.000   0.505   3.159
    1CAL  C00w917941   8.001   0.907   3.158
    1CAL  C00wA17942   8.001   0.313   2.545
    1CAL  C00wB17943   8.001   1.117   2.545
    1CAL  C00wC17944   6.251   1.212   2.850
    1CAL  C00wD17945   6.500   0.505   3.158
    1CAL  C00wE17946   7.501   0.715   2.545
    1CAL  C00wF17947   8.001   0.715   2.545
    1CAL  C00wG17948   7.751   0.410   2.852
    1CAL  C00wH17949   7.251   0.410   2.852
    1CAL  C00wI17950   7.501   0.313   2.545
    1CAL  C00wJ17951   7.501   0.907   3.158
    1CAL  C00wK17952   6.499   1.308   3.158
    1CAL  C00wL17953   7.501   1.517   2.545
    1CAL  C00wM17954   6.751   0.410   2.852
    1CAL  C00wN17955   7.251   0.812   2.852
    1CAL  C00wO17956   6.501   1.117   2.545
    1CAL  C00wP17957   7.751   1.212   2.849
    1CAL  C00wQ17958   7.001   1.517   2.545
    1CAL  C00wR17959   8.000   1.308   3.159
    1CAL  C00wS17960   7.001   0.103   3.158
    1CAL  C00wT17961   7.000   1.308   3.158
    1CAL  C00wU17962   7.000   0.505   3.159
    1CAL  C00wV17963   7.751   0.812   2.852
    1CAL  C00wW17964   6.501   1.517   2.545
    1CAL  C00wX17965   7.501   1.117   2.545
    1CAL  C00wY17966   6.501   0.715   2.545
    1CAL  C00wZ17967   6.751   0.812   2.852
    1CAL  C00wa17968   8.001   0.103   3.159
    1CAL  C00wb17969   6.752   0.603   3.469
    1CAL  C00wc17970   6.748   0.202   3.469
    1CAL  C00wd17971   6.748   1.005   3.468
    1CAL  C00we17972   6.752   1.406   3.469
    1CAL  C00wf17973   7.752   0.603   3.469
    1CAL  C00wg17974   7.748   0.202   3.469
    1CAL  C00wh17975   7.752   1.406   3.469
    1CAL  C00wi17976   7.749   1.005   3.468
    1CAL  C00wj17977   7.252   1.406   3.469
    1CAL  C00wk17978   7.249   1.004   3.469
    1CAL  C00wl17979   7.252   0.603   3.469
    1CAL  C00wm17980   7.248   0.201   3.470
    1CAL  C00wn17981   6.252   1.406   3.470
    1CAL  C00wo17982   6.249   1.004   3.470
    1CAL  C00wp17983   6.252   0.604   3.469
    1CAL  C00wq17984   6.248   0.201   3.471
    1CAL  O02nR17985   6.186   0.734   2.931
    1CAL  O02nS17986   7.187   0.891   2.773
    1CAL  O02nT17987   7.186   0.734   2.931
    1CAL  O02nU17988   7.380   0.812   2.853
    1CAL  O02nV17989   6.565   1.438   2.624
    1CAL  O02nW17990   6.372   1.518   2.544
    1CAL  O02nX17991   6.565   0.794   2.466
    1CAL  O02nY17992   6.687   0.891   2.773
    1CAL  O02nZ17993   6.686   0.734   2.931
    1CAL  O02na17994   6.880   0.812   2.853
    1CAL  O02nb17995   6.566   1.595   2.466
    1CAL  O02nc17996   6.565   0.637   2.624
    1CAL  O02nd17997   6.372   0.715   2.545
    1CAL  O02ne17998   7.129   1.307   3.159
    1CAL  O02nf17999   6.936   1.386   3.078
    1CAL  O02ng18000   6.937   0.584   3.078
    1CAL  O02nh18001   6.934   0.427   3.238
    1CAL  O02ni18002   7.129   0.504   3.160
    1CAL  O02nj18003   6.934   1.230   3.238
    1CAL  O02nk18004   6.622   0.410   2.852
    1CAL  O02nl18005   7.064   0.986   3.078
    1CAL  O02nm18006   7.123   1.212   2.849
    1CAL  O02nn18007   7.315   1.133   2.929
    1CAL  O02no18008   7.316   1.290   2.771
    1CAL  O02np18009   6.437   0.234   2.624
    1CAL  O02nq18010   6.436   0.391   2.466
    1CAL  O02nr18011   6.622   1.212   2.849
    1CAL  O02ns18012   6.815   1.133   2.929
    1CAL  O02nt18013   6.816   1.290   2.771
    1CAL  O02nu18014   6.315   0.489   2.773
    1CAL  O02nv18015   6.815   0.331   2.931
    1CAL  O02nw18016   6.937   1.196   2.465
    1CAL  O02nx18017   7.130   1.117   2.545
    1CAL  O02ny18018   6.315   0.331   2.932
    1CAL  O02nz18019   6.122   0.410   2.852
    1CAL  O02o018020   6.815   0.489   2.773
    1CAL  O02o118021   6.937   0.392   2.465
    1CAL  O02o218022   6.937   0.234   2.624
    1CAL  O02o318023   7.130   0.313   2.545
    1CAL  O02o418024   6.871   0.906   3.159
    1CAL  O02o518025   7.067   0.829   3.237
    1CAL  O02o618026   6.936   1.039   2.624
    1CAL  O02o718027   7.687   0.891   2.773
    1CAL  O02o818028   7.686   0.734   2.931
    1CAL  O02o918029   7.880   0.812   2.853
    1CAL  O02oA18030   7.935   1.229   3.238
    1CAL  O02oB18031   7.937   0.584   3.079
    1CAL  O02oC18032   7.935   0.426   3.238
    1CAL  O02oD18033   6.129   1.307   3.160
    1CAL  O02oE18034   6.065   0.182   3.079
    1CAL  O02oF18035   7.437   1.196   2.465
    1CAL  O02oG18036   7.436   1.039   2.624
    1CAL  O02oH18037   7.630   1.117   2.545
    1CAL  O02oI18038   6.066   0.025   3.239
    1CAL  O02oJ18039   7.435   1.230   3.238
    1CAL  O02oK18040   6.066   1.595   2.466
    1CAL  O02oL18041   6.065   1.438   2.624
    1CAL  O02oM18042   6.872   1.518   2.544
    1CAL  O02oN18043   7.872   0.906   3.160
    1CAL  O02oO18044   7.937   0.234   2.624
    1CAL  O02oP18045   7.065   0.182   3.079
    1CAL  O02oQ18046   6.437   1.196   2.465
    1CAL  O02oR18047   6.436   1.039   2.624
    1CAL  O02oS18048   6.630   1.117   2.545
    1CAL  O02oT18049   7.066   0.024   3.238
    1CAL  O02oU18050   6.434   1.230   3.238
    1CAL  O02oV18051   6.872   0.103   3.159
    1CAL  O02oW18052   7.873   0.715   2.545
    1CAL  O02oX18053   7.066   1.595   2.466
    1CAL  O02oY18054   7.065   1.438   2.624
    1CAL  O02oZ18055   7.623   1.212   2.849
    1CAL  O02oa18056   7.815   1.133   2.929
    1CAL  O02ob18057   7.816   1.290   2.770
    1CAL  O02oc18058   7.938   1.196   2.465
    1CAL  O02od18059   7.936   1.039   2.624
    1CAL  O02oe18060   7.937   0.392   2.465
    1CAL  O02of18061   6.630   0.313   2.544
    1CAL  O02og18062   6.380   0.812   2.853
    1CAL  O02oh18063   6.371   0.906   3.162
    1CAL  O02oi18064   7.066   0.637   2.624
    1CAL  O02oj18065   7.565   1.438   2.624
    1CAL  O02ok18066   7.566   1.595   2.466
    1CAL  O02ol18067   7.623   0.410   2.852
    1CAL  O02om18068   7.816   0.331   2.931
    1CAL  O02on18069   7.373   1.518   2.544
    1CAL  O02oo18070   7.122   0.410   2.852
    1CAL  O02op18071   7.315   0.489   2.773
    1CAL  O02oq18072   6.629   1.307   3.159
    1CAL  O02or18073   7.437   0.391   2.466
    1CAL  O02os18074   7.437   0.234   2.624
    1CAL  O02ot18075   7.630   0.313   2.544
    1CAL  O02ou18076   7.372   0.906   3.161
    1CAL  O02ov18077   7.567   0.829   3.237
    1CAL  O02ow18078   7.316   0.331   2.931
    1CAL  O02ox18079   7.564   0.987   3.078
    1CAL  O02oy18080   6.066   0.637   2.624
    1CAL  O02oz18081   7.566   0.637   2.624
    1CAL  O02p018082   6.187   0.891   2.773
    1CAL  O02p118083   6.064   0.987   3.078
    1CAL  O02p218084   6.066   0.829   3.238
    1CAL  O02p318085   6.129   0.504   3.160
    1CAL  O02p418086   6.130   0.313   2.545
    1CAL  O02p518087   6.129   1.117   2.545
    1CAL  O02p618088   7.565   0.794   2.466
    1CAL  O02p718089   6.316   1.290   2.771
    1CAL  O02p818090   7.873   1.518   2.544
    1CAL  O02p918091   7.872   0.103   3.160
    1CAL  O02pA18092   6.122   1.212   2.849
    1CAL  O02pB18093   7.936   1.386   3.078
    1CAL  O02pC18094   6.065   0.794   2.466
    1CAL  O02pD18095   7.373   0.715   2.545
    1CAL  O02pE18096   6.315   1.133   2.929
    1CAL  O02pF18097   6.435   1.387   3.078
    1CAL  O02pG18098   6.629   0.504   3.159
    1CAL  O02pH18099   7.372   0.102   3.161
    1CAL  O02pI18100   7.437   0.584   3.078
    1CAL  O02pJ18101   7.435   0.427   3.238
    1CAL  O02pK18102   7.630   0.504   3.159
    1CAL  O02pL18103   6.880   0.007   2.852
    1CAL  O02pM18104   6.687   1.535   2.931
    1CAL  O02pN18105   7.435   1.386   3.078
    1CAL  O02pO18106   7.629   1.307   3.158
    1CAL  O02pP18107   6.687   0.086   2.773
    1CAL  O02pQ18108   6.564   0.182   3.079
    1CAL  O02pR18109   6.567   0.025   3.238
    1CAL  O02pS18110   6.371   0.103   3.161
    1CAL  O02pT18111   6.563   0.987   3.078
    1CAL  O02pU18112   6.568   0.829   3.238
    1CAL  O02pV18113   6.872   0.715   2.545
    1CAL  O02pW18114   7.567   0.024   3.238
    1CAL  O02pX18115   7.565   0.182   3.079
    1CAL  O02pY18116   6.434   0.427   3.238
    1CAL  O02pZ18117   6.436   0.585   3.079
    1CAL  O02pa18118   7.687   0.086   2.773
    1CAL  O02pb18119   7.687   1.535   2.931
    1CAL  O02pc18120   7.880   0.007   2.852
    1CAL  O02pd18121   6.380   0.008   2.852
    1CAL  O02pe18122   6.187   1.535   2.931
    1CAL  O02pf18123   6.186   0.086   2.773
    1CAL  O02pg18124   7.187   0.086   2.773
    1CAL  O02ph18125   7.187   1.535   2.931
    1CAL  O02pi18126   7.380   0.008   2.852
    1CAL  O02pj18127   7.065   0.794   2.466
    1CAL  O02pk18128   7.816   0.489   2.773
    1CAL  O02pl18129   6.821   1.480   3.387
    1CAL  O02pm18130   6.812   1.328   3.553
    1CAL  O02pn18131   6.622   1.412   3.467
    1CAL  O02po18132   6.679   1.079   3.386
    1CAL  O02pp18133   6.688   0.928   3.552
    1CAL  O02pq18134   6.878   1.010   3.465
    1CAL  O02pr18135   6.878   0.207   3.466
    1CAL  O02ps18136   6.688   0.124   3.553
    1CAL  O02pt18137   6.679   0.275   3.387
    1CAL  O02pu18138   6.622   0.609   3.466
    1CAL  O02pv18139   6.812   0.525   3.552
    1CAL  O02pw18140   6.821   0.677   3.387
    1CAL  O02px18141   7.680   1.079   3.386
    1CAL  O02py18142   7.878   1.010   3.466
    1CAL  O02pz18143   7.688   0.927   3.552
    1CAL  O02q018144   7.623   1.411   3.466
    1CAL  O02q118145   7.812   1.328   3.552
    1CAL  O02q218146   7.821   1.480   3.387
    1CAL  O02q318147   7.679   0.275   3.387
    1CAL  O02q418148   7.878   0.207   3.466
    1CAL  O02q518149   7.688   0.124   3.553
    1CAL  O02q618150   7.622   0.608   3.466
    1CAL  O02q718151   7.812   0.525   3.552
    1CAL  O02q818152   7.821   0.677   3.387
    1CAL  O02q918153   7.312   1.328   3.553
    1CAL  O02qA18154   7.122   1.411   3.467
    1CAL  O02qB18155   7.321   1.479   3.387
    1CAL  O02qC18156   7.180   1.078   3.387
    1CAL  O02qD18157   7.189   0.926   3.553
    1CAL  O02qE18158   7.379   1.010   3.467
    1CAL  O02qF18159   7.312   0.525   3.553
    1CAL  O02qG18160   7.321   0.676   3.387
    1CAL  O02qH18161   7.122   0.609   3.466
    1CAL  O02qI18162   7.180   0.275   3.388
    1CAL  O02qJ18163   7.188   0.123   3.553
    1CAL  O02qK18164   7.378   0.207   3.468
    1CAL  O02qL18165   6.311   1.328   3.554
    1CAL  O02qM18166   6.122   1.412   3.467
    1CAL  O02qN18167   6.321   1.479   3.388
    1CAL  O02qO18168   6.180   1.078   3.388
    1CAL  O02qP18169   6.189   0.926   3.553
    1CAL  O02qQ18170   6.379   1.010   3.469
    1CAL  O02qR18171   6.311   0.526   3.554
    1CAL  O02qS18172   6.122   0.609   3.466
    1CAL  O02qT18173   6.321   0.677   3.387
    1CAL  O02qU18174   6.378   0.207   3.469
    1CAL  O02qV18175   6.188   0.123   3.554
    1CAL  O02qW18176   6.180   0.275   3.389
    1CAL  Ca0vp18177   7.003   0.810   3.464
    1CAL  Ca0vq18178   7.751   0.514   2.545
    1CAL  Ca0vr18179   7.497   1.211   3.465
    1CAL  Ca0vs18180   6.003   0.810   3.465
    1CAL  Ca0vt18181   6.751   1.507   3.160
    1CAL  Ca0vu18182   7.751   0.916   2.545
    1CAL  Ca0vv18183   7.501   0.611   2.852
    1CAL  Ca0vw18184   7.501   1.413   2.852
    1CAL  Ca0vx18185   6.250   1.106   3.159
    1CAL  Ca0vy18186   7.001   1.413   2.852
    1CAL  Ca0vz18187   6.503   0.007   3.465
    1CAL  Ca0w018188   6.251   0.514   2.545
    1CAL  Ca0w118189   6.251   0.705   3.160
    1CAL  Ca0w218190   7.998   0.408   3.465
    1CAL  Ca0w318191   7.998   1.211   3.465
    1CAL  Ca0w418192   7.750   1.106   3.158
    1CAL  Ca0w518193   7.251   0.112   2.545
    1CAL  Ca0w618194   8.001   1.413   2.852
    1CAL  Ca0w718195   7.751   0.112   2.545
    1CAL  Ca0w818196   6.496   0.409   3.465
    1CAL  Ca0w918197   6.003   0.007   3.466
    1CAL  Ca0wA18198   7.752   0.705   3.160
    1CAL  Ca0wB18199   6.251   0.916   2.545
    1CAL  Ca0wC18200   8.001   0.611   2.852
    1CAL  Ca0wD18201   7.501   1.012   2.851
    1CAL  Ca0wE18202   6.251   1.508   3.160
    1CAL  Ca0wF18203   7.751   1.317   2.546
    1CAL  Ca0wG18204   6.501   1.012   2.851
    1CAL  Ca0wH18205   6.497   1.212   3.465
    1CAL  Ca0wI18206   8.001   0.209   2.852
    1CAL  Ca0wJ18207   6.501   1.413   2.852
    1CAL  Ca0wK18208   7.497   0.408   3.465
    1CAL  Ca0wL18209   7.251   0.916   2.545
    1CAL  Ca0wM18210   6.751   0.916   2.545
    1CAL  Ca0wN18211   7.001   0.209   2.852
    1CAL  Ca0wO18212   7.001   1.012   2.851
    1CAL  Ca0wP18213   6.501   0.611   2.852
    1CAL  Ca0wQ18214   7.001   0.611   2.852
    1CAL  Ca0wR18215   6.750   1.106   3.159
    1CAL  Ca0wS18216   6.251   0.112   2.545
    1CAL  Ca0wT18217   6.751   0.514   2.545
    1CAL  Ca0wU18218   7.251   0.514   2.545
    1CAL  Ca0wV18219   7.250   1.106   3.159
    1CAL  Ca0wW18220   7.251   1.507   3.160
    1CAL  Ca0wX18221   7.750   0.303   3.160
    1CAL  Ca0wY18222   7.003   0.007   3.465
    1CAL  Ca0wZ18223   6.749   0.303   3.160
    1CAL  Ca0wa18224   6.504   0.810   3.464
    1CAL  Ca0wb18225   6.501   0.209   2.852
    1CAL  Ca0wc18226   6.751   0.112   2.545
    1CAL  Ca0wd18227   7.251   1.317   2.546
    1CAL  Ca0we18228   7.250   0.303   3.160
    1CAL  Ca0wf18229   6.997   0.408   3.465
    1CAL  Ca0wg18230   6.751   1.317   2.546
    1CAL  Ca0wh18231   6.997   1.211   3.465
    1CAL  Ca0wi18232   6.251   1.317   2.546
    1CAL  Ca0wj18233   7.501   0.209   2.852
    1CAL  Ca0wk18234   7.504   0.810   3.464
    1CAL  Ca0wl18235   7.503   0.006   3.465
    1CAL  Ca0wm18236   6.751   0.705   3.160
    1CAL  Ca0wn18237   7.751   1.508   3.160
    1CAL  Ca0wo18238   7.251   0.705   3.160
    1CAL  Ca0wp18239   6.250   0.303   3.160
    1CAL  Ca0wq18240   8.001   1.012   2.851
    1CAL  C00wr18241   8.001   3.123   0.089
    1CAL  C00ws18242   7.251   1.613   0.396
    1CAL  C00wt18243   6.251   1.613   0.396
    1CAL  C00wu18244   7.500   2.111   0.702
    1CAL  C00wv18245   7.500   2.914   0.702
    1CAL  C00ww18246   6.751   1.613   0.396
    1CAL  C00wx18247   7.001   2.321   0.089
    1CAL  C00wy18248   7.251   2.818   0.393
    1CAL  C00wz18249   6.751   2.818   0.394
    1CAL  C00x018250   6.501   2.513   0.703
    1CAL  C00x118251   6.501   1.919   0.089
    1CAL  C00x218252   7.001   2.723   0.089
    1CAL  C00x318253   7.001   1.919   0.089
    1CAL  C00x418254   6.251   2.016   0.396
    1CAL  C00x518255   6.501   1.709   0.703
    1CAL  C00x618256   7.001   2.513   0.702
    1CAL  C00x718257   7.751   1.613   0.396
    1CAL  C00x818258   7.501   1.709   0.703
    1CAL  C00x918259   6.251   2.418   0.396
    1CAL  C00xA18260   8.000   2.111   0.703
    1CAL  C00xB18261   8.001   2.513   0.702
    1CAL  C00xC18262   8.001   1.919   0.089
    1CAL  C00xD18263   8.001   2.723   0.089
    1CAL  C00xE18264   6.251   2.818   0.394
    1CAL  C00xF18265   6.500   2.111   0.702
    1CAL  C00xG18266   7.501   2.321   0.089
    1CAL  C00xH18267   8.001   2.321   0.089
    1CAL  C00xI18268   7.751   2.016   0.396
    1CAL  C00xJ18269   7.251   2.016   0.396
    1CAL  C00xK18270   7.501   1.919   0.089
    1CAL  C00xL18271   7.501   2.513   0.702
    1CAL  C00xM18272   6.499   2.914   0.702
    1CAL  C00xN18273   7.501   3.123   0.089
    1CAL  C00xO18274   6.751   2.016   0.396
    1CAL  C00xP18275   7.251   2.418   0.396
    1CAL  C00xQ18276   6.501   2.723   0.089
    1CAL  C00xR18277   7.751   2.818   0.393
    1CAL  C00xS18278   7.001   3.123   0.089
    1CAL  C00xT18279   8.000   2.914   0.703
    1CAL  C00xU18280   7.001   1.709   0.702
    1CAL  C00xV18281   7.000   2.914   0.702
    1CAL  C00xW18282   7.000   2.111   0.703
    1CAL  C00xX18283   7.751   2.418   0.396
    1CAL  C00xY18284   6.501   3.123   0.089
    1CAL  C00xZ18285   7.501   2.723   0.089
    1CAL  C00xa18286   6.501   2.321   0.089
    1CAL  C00xb18287   6.751   2.418   0.396
    1CAL  C00xc18288   8.001   1.709   0.703
    1CAL  C00xd18289   6.752   2.209   1.013
    1CAL  C00xe18290   6.748   1.808   1.013
    1CAL  C00xf18291   6.748   2.611   1.012
    1CAL  C00xg18292   6.752   3.012   1.013
    1CAL  C00xh18293   7.752   2.209   1.013
    1CAL  C00xi18294   7.748   1.808   1.013
    1CAL  C00xj18295   7.752   3.012   1.013
    1CAL  C00xk18296   7.749   2.611   1.012
    1CAL  C00xl18297   7.252   3.012   1.013
    1CAL  C00xm18298   7.249   2.610   1.013
    1CAL  C00xn18299   7.252   2.209   1.013
    1CAL  C00xo18300   7.248   1.807   1.014
    1CAL  C00xp18301   6.252   3.012   1.014
    1CAL  C00xq18302   6.249   2.610   1.014
    1CAL  C00xr18303   6.252   2.210   1.013
    1CAL  C00xs18304   6.248   1.807   1.015
    1CAL  O02qX18305   6.186   2.340   0.475
    1CAL  O02qY18306   7.187   2.497   0.317
    1CAL  O02qZ18307   7.186   2.340   0.475
    1CAL  O02qa18308   7.380   2.418   0.397
    1CAL  O02qb18309   6.565   3.044   0.168
    1CAL  O02qc18310   6.372   3.124   0.088
    1CAL  O02qd18311   6.565   2.400   0.010
    1CAL  O02qe18312   6.687   2.497   0.317
    1CAL  O02qf18313   6.686   2.340   0.475
    1CAL  O02qg18314   6.880   2.418   0.397
    1CAL  O02qh18315   6.566   3.201   0.010
    1CAL  O02qi18316   6.565   2.243   0.168
    1CAL  O02qj18317   6.372   2.321   0.089
    1CAL  O02qk18318   7.129   2.913   0.703
    1CAL  O02ql18319   6.936   2.992   0.622
    1CAL  O02qm18320   6.937   2.190   0.622
    1CAL  O02qn18321   6.934   2.033   0.782
    1CAL  O02qo18322   7.129   2.110   0.704
    1CAL  O02qp18323   6.934   2.836   0.782
    1CAL  O02qq18324   6.622   2.016   0.396
    1CAL  O02qr18325   7.064   2.592   0.622
    1CAL  O02qs18326   7.123   2.818   0.393
    1CAL  O02qt18327   7.315   2.739   0.473
    1CAL  O02qu18328   7.316   2.896   0.315
    1CAL  O02qv18329   6.437   1.840   0.168
    1CAL  O02qw18330   6.436   1.997   0.010
    1CAL  O02qx18331   6.622   2.818   0.393
    1CAL  O02qy18332   6.815   2.739   0.473
    1CAL  O02qz18333   6.816   2.896   0.315
    1CAL  O02r018334   6.315   2.095   0.317
    1CAL  O02r118335   6.815   1.937   0.475
    1CAL  O02r218336   6.937   2.802   0.009
    1CAL  O02r318337   7.130   2.723   0.089
    1CAL  O02r418338   6.315   1.937   0.476
    1CAL  O02r518339   6.122   2.016   0.396
    1CAL  O02r618340   6.815   2.095   0.317
    1CAL  O02r718341   6.937   1.998   0.009
    1CAL  O02r818342   6.937   1.840   0.168
    1CAL  O02r918343   7.130   1.919   0.089
    1CAL  O02rA18344   6.871   2.512   0.703
    1CAL  O02rB18345   7.067   2.435   0.781
    1CAL  O02rC18346   6.936   2.645   0.168
    1CAL  O02rD18347   7.687   2.497   0.317
    1CAL  O02rE18348   7.686   2.340   0.475
    1CAL  O02rF18349   7.880   2.418   0.397
    1CAL  O02rG18350   7.935   2.835   0.782
    1CAL  O02rH18351   7.937   2.190   0.623
    1CAL  O02rI18352   7.935   2.032   0.782
    1CAL  O02rJ18353   6.129   2.913   0.704
    1CAL  O02rK18354   6.065   1.788   0.623
    1CAL  O02rL18355   7.437   2.802   0.009
    1CAL  O02rM18356   7.436   2.645   0.168
    1CAL  O02rN18357   7.630   2.723   0.089
    1CAL  O02rO18358   6.066   1.631   0.783
    1CAL  O02rP18359   7.435   2.836   0.782
    1CAL  O02rQ18360   6.066   3.201   0.010
    1CAL  O02rR18361   6.065   3.044   0.168
    1CAL  O02rS18362   6.872   3.124   0.088
    1CAL  O02rT18363   7.872   2.512   0.704
    1CAL  O02rU18364   7.937   1.840   0.168
    1CAL  O02rV18365   7.065   1.788   0.623
    1CAL  O02rW18366   6.437   2.802   0.009
    1CAL  O02rX18367   6.436   2.645   0.168
    1CAL  O02rY18368   6.630   2.723   0.089
    1CAL  O02rZ18369   7.066   1.630   0.782
    1CAL  O02ra18370   6.434   2.836   0.782
    1CAL  O02rb18371   6.872   1.709   0.703
    1CAL  O02rc18372   7.873   2.321   0.089
    1CAL  O02rd18373   7.066   3.201   0.010
    1CAL  O02re18374   7.065   3.044   0.168
    1CAL  O02rf18375   7.623   2.818   0.393
    1CAL  O02rg18376   7.815   2.739   0.473
    1CAL  O02rh18377   7.816   2.896   0.314
    1CAL  O02ri18378   7.938   2.802   0.009
    1CAL  O02rj18379   7.936   2.645   0.168
    1CAL  O02rk18380   7.937   1.998   0.009
    1CAL  O02rl18381   6.630   1.919   0.088
    1CAL  O02rm18382   6.380   2.418   0.397
    1CAL  O02rn18383   6.371   2.512   0.706
    1CAL  O02ro18384   7.066   2.243   0.168
    1CAL  O02rp18385   7.565   3.044   0.168
    1CAL  O02rq18386   7.566   3.201   0.010
    1CAL  O02rr18387   7.623   2.016   0.396
    1CAL  O02rs18388   7.816   1.937   0.475
    1CAL  O02rt18389   7.373   3.124   0.088
    1CAL  O02ru18390   7.122   2.016   0.396
    1CAL  O02rv18391   7.315   2.095   0.317
    1CAL  O02rw18392   6.629   2.913   0.703
    1CAL  O02rx18393   7.437   1.997   0.010
    1CAL  O02ry18394   7.437   1.840   0.168
    1CAL  O02rz18395   7.630   1.919   0.088
    1CAL  O02s018396   7.372   2.512   0.705
    1CAL  O02s118397   7.567   2.435   0.781
    1CAL  O02s218398   7.316   1.937   0.475
    1CAL  O02s318399   7.564   2.593   0.622
    1CAL  O02s418400   6.066   2.243   0.168
    1CAL  O02s518401   7.566   2.243   0.168
    1CAL  O02s618402   6.187   2.497   0.317
    1CAL  O02s718403   6.064   2.593   0.622
    1CAL  O02s818404   6.066   2.435   0.782
    1CAL  O02s918405   6.129   2.110   0.704
    1CAL  O02sA18406   6.130   1.919   0.089
    1CAL  O02sB18407   6.129   2.723   0.089
    1CAL  O02sC18408   7.565   2.400   0.010
    1CAL  O02sD18409   6.316   2.896   0.315
    1CAL  O02sE18410   7.873   3.124   0.088
    1CAL  O02sF18411   7.872   1.709   0.704
    1CAL  O02sG18412   6.122   2.818   0.393
    1CAL  O02sH18413   7.936   2.992   0.622
    1CAL  O02sI18414   6.065   2.400   0.010
    1CAL  O02sJ18415   7.373   2.321   0.089
    1CAL  O02sK18416   6.315   2.739   0.473
    1CAL  O02sL18417   6.435   2.993   0.622
    1CAL  O02sM18418   6.629   2.110   0.703
    1CAL  O02sN18419   7.372   1.708   0.705
    1CAL  O02sO18420   7.437   2.190   0.622
    1CAL  O02sP18421   7.435   2.033   0.782
    1CAL  O02sQ18422   7.630   2.110   0.703
    1CAL  O02sR18423   6.880   1.613   0.396
    1CAL  O02sS18424   6.687   3.141   0.475
    1CAL  O02sT18425   7.435   2.992   0.622
    1CAL  O02sU18426   7.629   2.913   0.702
    1CAL  O02sV18427   6.687   1.692   0.317
    1CAL  O02sW18428   6.564   1.788   0.623
    1CAL  O02sX18429   6.567   1.631   0.782
    1CAL  O02sY18430   6.371   1.709   0.705
    1CAL  O02sZ18431   6.563   2.593   0.622
    1CAL  O02sa18432   6.568   2.435   0.782
    1CAL  O02sb18433   6.872   2.321   0.089
    1CAL  O02sc18434   7.567   1.630   0.782
    1CAL  O02sd18435   7.565   1.788   0.623
    1CAL  O02se18436   6.434   2.033   0.782
    1CAL  O02sf18437   6.436   2.191   0.623
    1CAL  O02sg18438   7.687   1.692   0.317
    1CAL  O02sh18439   7.687   3.141   0.475
    1CAL  O02si18440   7.880   1.613   0.396
    1CAL  O02sj18441   6.380   1.614   0.396
    1CAL  O02sk18442   6.187   3.141   0.475
    1CAL  O02sl18443   6.186   1.692   0.317
    1CAL  O02sm18444   7.187   1.692   0.317
    1CAL  O02sn18445   7.187   3.141   0.475
    1CAL  O02so18446   7.380   1.614   0.396
    1CAL  O02sp18447   7.065   2.400   0.010
    1CAL  O02sq18448   7.816   2.095   0.317
    1CAL  O02sr18449   6.821   3.086   0.931
    1CAL  O02ss18450   6.812   2.934   1.097
    1CAL  O02st18451   6.622   3.018   1.011
    1CAL  O02su18452   6.679   2.685   0.930
    1CAL  O02sv18453   6.688   2.534   1.096
    1CAL  O02sw18454   6.878   2.616   1.009
    1CAL  O02sx18455   6.878   1.813   1.010
    1CAL  O02sy18456   6.688   1.730   1.097
    1CAL  O02sz18457   6.679   1.881   0.931
    1CAL  O02t018458   6.622   2.215   1.010
    1CAL  O02t118459   6.812   2.131   1.096
    1CAL  O02t218460   6.821   2.283   0.931
    1CAL  O02t318461   7.680   2.685   0.930
    1CAL  O02t418462   7.878   2.616   1.010
    1CAL  O02t518463   7.688   2.533   1.096
    1CAL  O02t618464   7.623   3.017   1.010
    1CAL  O02t718465   7.812   2.934   1.096
    1CAL  O02t818466   7.821   3.086   0.931
    1CAL  O02t918467   7.679   1.881   0.931
    1CAL  O02tA18468   7.878   1.813   1.010
    1CAL  O02tB18469   7.688   1.730   1.097
    1CAL  O02tC18470   7.622   2.214   1.010
    1CAL  O02tD18471   7.812   2.131   1.096
    1CAL  O02tE18472   7.821   2.283   0.931
    1CAL  O02tF18473   7.312   2.934   1.097
    1CAL  O02tG18474   7.122   3.017   1.011
    1CAL  O02tH18475   7.321   3.085   0.931
    1CAL  O02tI18476   7.180   2.684   0.931
    1CAL  O02tJ18477   7.189   2.532   1.097
    1CAL  O02tK18478   7.379   2.616   1.011
    1CAL  O02tL18479   7.312   2.131   1.097
    1CAL  O02tM18480   7.321   2.282   0.931
    1CAL  O02tN18481   7.122   2.215   1.010
    1CAL  O02tO18482   7.180   1.881   0.932
    1CAL  O02tP18483   7.188   1.729   1.097
    1CAL  O02tQ18484   7.378   1.813   1.012
    1CAL  O02tR18485   6.311   2.934   1.098
    1CAL  O02tS18486   6.122   3.018   1.011
    1CAL  O02tT18487   6.321   3.085   0.932
    1CAL  O02tU18488   6.180   2.684   0.932
    1CAL  O02tV18489   6.189   2.532   1.097
    1CAL  O02tW18490   6.379   2.616   1.013
    1CAL  O02tX18491   6.311   2.132   1.098
    1CAL  O02tY18492   6.122   2.215   1.010
    1CAL  O02tZ18493   6.321   2.283   0.931
    1CAL  O02ta18494   6.378   1.813   1.013
    1CAL  O02tb18495   6.188   1.729   1.098
    1CAL  O02tc18496   6.180   1.881   0.933
    1CAL  Ca0wr18497   7.003   2.416   1.008
    1CAL  Ca0ws18498   7.751   2.120   0.089
    1CAL  Ca0wt18499   7.497   2.817   1.009
    1CAL  Ca0wu18500   6.003   2.416   1.009
    1CAL  Ca0wv18501   6.751   3.113   0.704
    1CAL  Ca0ww18502   7.751   2.522   0.089
    1CAL  Ca0wx18503   7.501   2.217   0.396
    1CAL  Ca0wy18504   7.501   3.019   0.396
    1CAL  Ca0wz18505   6.250   2.712   0.703
    1CAL  Ca0x018506   7.001   3.019   0.396
    1CAL  Ca0x118507   6.503   1.613   1.009
    1CAL  Ca0x218508   6.251   2.120   0.089
    1CAL  Ca0x318509   6.251   2.311   0.704
    1CAL  Ca0x418510   7.998   2.014   1.009
    1CAL  Ca0x518511   7.998   2.817   1.009
    1CAL  Ca0x618512   7.750   2.712   0.702
    1CAL  Ca0x718513   7.251   1.718   0.089
    1CAL  Ca0x818514   8.001   3.019   0.396
    1CAL  Ca0x918515   7.751   1.718   0.089
    1CAL  Ca0xA18516   6.496   2.015   1.009
    1CAL  Ca0xB18517   6.003   1.613   1.010
    1CAL  Ca0xC18518   7.752   2.311   0.704
    1CAL  Ca0xD18519   6.251   2.522   0.089
    1CAL  Ca0xE18520   8.001   2.217   0.396
    1CAL  Ca0xF18521   7.501   2.618   0.395
    1CAL  Ca0xG18522   6.251   3.114   0.704
    1CAL  Ca0xH18523   7.751   2.923   0.090
    1CAL  Ca0xI18524   6.501   2.618   0.395
    1CAL  Ca0xJ18525   6.497   2.818   1.009
    1CAL  Ca0xK18526   8.001   1.815   0.396
    1CAL  Ca0xL18527   6.501   3.019   0.396
    1CAL  Ca0xM18528   7.497   2.014   1.009
    1CAL  Ca0xN18529   7.251   2.522   0.089
    1CAL  Ca0xO18530   6.751   2.522   0.089
    1CAL  Ca0xP18531   7.001   1.815   0.396
    1CAL  Ca0xQ18532   7.001   2.618   0.395
    1CAL  Ca0xR18533   6.501   2.217   0.396
    1CAL  Ca0xS18534   7.001   2.217   0.396
    1CAL  Ca0xT18535   6.750   2.712   0.703
    1CAL  Ca0xU18536   6.251   1.718   0.089
    1CAL  Ca0xV18537   6.751   2.120   0.089
    1CAL  Ca0xW18538   7.251   2.120   0.089
    1CAL  Ca0xX18539   7.250   2.712   0.703
    1CAL  Ca0xY18540   7.251   3.113   0.704
    1CAL  Ca0xZ18541   7.750   1.909   0.704
    1CAL  Ca0xa18542   7.003   1.613   1.009
    1CAL  Ca0xb18543   6.749   1.909   0.704
    1CAL  Ca0xc18544   6.504   2.416   1.008
    1CAL  Ca0xd18545   6.501   1.815   0.396
    1CAL  Ca0xe18546   6.751   1.718   0.089
    1CAL  Ca0xf18547   7.251   2.923   0.090
    1CAL  Ca0xg18548   7.250   1.909   0.704
    1CAL  Ca0xh18549   6.997   2.014   1.009
    1CAL  Ca0xi18550   6.751   2.923   0.090
    1CAL  Ca0xj18551   6.997   2.817   1.009
    1CAL  Ca0xk18552   6.251   2.923   0.090
    1CAL  Ca0xl18553   7.501   1.815   0.396
    1CAL  Ca0xm18554   7.504   2.416   1.008
    1CAL  Ca0xn18555   7.503   1.612   1.009
    1CAL  Ca0xo18556   6.751   2.311   0.704
    1CAL  Ca0xp18557   7.751   3.114   0.704
    1CAL  Ca0xq18558   7.251   2.311   0.704
    1CAL  Ca0xr18559   6.250   1.909   0.704
    1CAL  Ca0xs18560   8.001   2.618   0.395
    1CAL  C00xt18561   8.001   3.123   1.317
    1CAL  C00xu18562   7.251   1.613   1.624
    1CAL  C00xv18563   6.251   1.613   1.624
    1CAL  C00xw18564   7.500   2.111   1.930
    1CAL  C00xx18565   7.500   2.914   1.930
    1CAL  C00xy18566   6.751   1.613   1.624
    1CAL  C00xz18567   7.001   2.321   1.317
    1CAL  C00y018568   7.251   2.818   1.621
    1CAL  C00y118569   6.751   2.818   1.622
    1CAL  C00y218570   6.501   2.513   1.931
    1CAL  C00y318571   6.501   1.919   1.317
    1CAL  C00y418572   7.001   2.723   1.317
    1CAL  C00y518573   7.001   1.919   1.317
    1CAL  C00y618574   6.251   2.016   1.624
    1CAL  C00y718575   6.501   1.709   1.931
    1CAL  C00y818576   7.001   2.513   1.930
    1CAL  C00y918577   7.751   1.613   1.624
    1CAL  C00yA18578   7.501   1.709   1.931
    1CAL  C00yB18579   6.251   2.418   1.624
    1CAL  C00yC18580   8.000   2.111   1.931
    1CAL  C00yD18581   8.001   2.513   1.930
    1CAL  C00yE18582   8.001   1.919   1.317
    1CAL  C00yF18583   8.001   2.723   1.317
    1CAL  C00yG18584   6.251   2.818   1.622
    1CAL  C00yH18585   6.500   2.111   1.930
    1CAL  C00yI18586   7.501   2.321   1.317
    1CAL  C00yJ18587   8.001   2.321   1.317
    1CAL  C00yK18588   7.751   2.016   1.624
    1CAL  C00yL18589   7.251   2.016   1.624
    1CAL  C00yM18590   7.501   1.919   1.317
    1CAL  C00yN18591   7.501   2.513   1.930
    1CAL  C00yO18592   6.499   2.914   1.930
    1CAL  C00yP18593   7.501   3.123   1.317
    1CAL  C00yQ18594   6.751   2.016   1.624
    1CAL  C00yR18595   7.251   2.418   1.624
    1CAL  C00yS18596   6.501   2.723   1.317
    1CAL  C00yT18597   7.751   2.818   1.621
    1CAL  C00yU18598   7.001   3.123   1.317
    1CAL  C00yV18599   8.000   2.914   1.931
    1CAL  C00yW18600   7.001   1.709   1.930
    1CAL  C00yX18601   7.000   2.914   1.930
    1CAL  C00yY18602   7.000   2.111   1.931
    1CAL  C00yZ18603   7.751   2.418   1.624
    1CAL  C00ya18604   6.501   3.123   1.317
    1CAL  C00yb18605   7.501   2.723   1.317
    1CAL  C00yc18606   6.501   2.321   1.317
    1CAL  C00yd18607   6.751   2.418   1.624
    1CAL  C00ye18608   8.001   1.709   1.931
    1CAL  C00yf18609   6.752   2.209   2.241
    1CAL  C00yg18610   6.748   1.808   2.241
    1CAL  C00yh18611   6.748   2.611   2.240
    1CAL  C00yi18612   6.752   3.012   2.241
    1CAL  C00yj18613   7.752   2.209   2.241
    1CAL  C00yk18614   7.748   1.808   2.241
    1CAL  C00yl18615   7.752   3.012   2.241
    1CAL  C00ym18616   7.749   2.611   2.240
    1CAL  C00yn18617   7.252   3.012   2.241
    1CAL  C00yo18618   7.249   2.610   2.241
    1CAL  C00yp18619   7.252   2.209   2.241
    1CAL  C00yq18620   7.248   1.807   2.242
    1CAL  C00yr18621   6.252   3.012   2.242
    1CAL  C00ys18622   6.249   2.610   2.242
    1CAL  C00yt18623   6.252   2.210   2.241
    1CAL  C00yu18624   6.248   1.807   2.243
    1CAL  O02td18625   6.186   2.340   1.703
    1CAL  O02te18626   7.187   2.497   1.545
    1CAL  O02tf18627   7.186   2.340   1.703
    1CAL  O02tg18628   7.380   2.418   1.625
    1CAL  O02th18629   6.565   3.044   1.396
    1CAL  O02ti18630   6.372   3.124   1.316
    1CAL  O02tj18631   6.565   2.400   1.238
    1CAL  O02tk18632   6.687   2.497   1.545
    1CAL  O02tl18633   6.686   2.340   1.703
    1CAL  O02tm18634   6.880   2.418   1.625
    1CAL  O02tn18635   6.566   3.201   1.238
    1CAL  O02to18636   6.565   2.243   1.396
    1CAL  O02tp18637   6.372   2.321   1.317
    1CAL  O02tq18638   7.129   2.913   1.931
    1CAL  O02tr18639   6.936   2.992   1.850
    1CAL  O02ts18640   6.937   2.190   1.850
    1CAL  O02tt18641   6.934   2.033   2.010
    1CAL  O02tu18642   7.129   2.110   1.932
    1CAL  O02tv18643   6.934   2.836   2.010
    1CAL  O02tw18644   6.622   2.016   1.624
    1CAL  O02tx18645   7.064   2.592   1.850
    1CAL  O02ty18646   7.123   2.818   1.621
    1CAL  O02tz18647   7.315   2.739   1.701
    1CAL  O02u018648   7.316   2.896   1.543
    1CAL  O02u118649   6.437   1.840   1.396
    1CAL  O02u218650   6.436   1.997   1.238
    1CAL  O02u318651   6.622   2.818   1.621
    1CAL  O02u418652   6.815   2.739   1.701
    1CAL  O02u518653   6.816   2.896   1.543
    1CAL  O02u618654   6.315   2.095   1.545
    1CAL  O02u718655   6.815   1.937   1.703
    1CAL  O02u818656   6.937   2.802   1.237
    1CAL  O02u918657   7.130   2.723   1.317
    1CAL  O02uA18658   6.315   1.937   1.704
    1CAL  O02uB18659   6.122   2.016   1.624
    1CAL  O02uC18660   6.815   2.095   1.545
    1CAL  O02uD18661   6.937   1.998   1.237
    1CAL  O02uE18662   6.937   1.840   1.396
    1CAL  O02uF18663   7.130   1.919   1.317
    1CAL  O02uG18664   6.871   2.512   1.931
    1CAL  O02uH18665   7.067   2.435   2.009
    1CAL  O02uI18666   6.936   2.645   1.396
    1CAL  O02uJ18667   7.687   2.497   1.545
    1CAL  O02uK18668   7.686   2.340   1.703
    1CAL  O02uL18669   7.880   2.418   1.625
    1CAL  O02uM18670   7.935   2.835   2.010
    1CAL  O02uN18671   7.937   2.190   1.851
    1CAL  O02uO18672   7.935   2.032   2.010
    1CAL  O02uP18673   6.129   2.913   1.932
    1CAL  O02uQ18674   6.065   1.788   1.851
    1CAL  O02uR18675   7.437   2.802   1.237
    1CAL  O02uS18676   7.436   2.645   1.396
    1CAL  O02uT18677   7.630   2.723   1.317
    1CAL  O02uU18678   6.066   1.631   2.011
    1CAL  O02uV18679   7.435   2.836   2.010
    1CAL  O02uW18680   6.066   3.201   1.238
    1CAL  O02uX18681   6.065   3.044   1.396
    1CAL  O02uY18682   6.872   3.124   1.316
    1CAL  O02uZ18683   7.872   2.512   1.932
    1CAL  O02ua18684   7.937   1.840   1.396
    1CAL  O02ub18685   7.065   1.788   1.851
    1CAL  O02uc18686   6.437   2.802   1.237
    1CAL  O02ud18687   6.436   2.645   1.396
    1CAL  O02ue18688   6.630   2.723   1.317
    1CAL  O02uf18689   7.066   1.630   2.010
    1CAL  O02ug18690   6.434   2.836   2.010
    1CAL  O02uh18691   6.872   1.709   1.931
    1CAL  O02ui18692   7.873   2.321   1.317
    1CAL  O02uj18693   7.066   3.201   1.238
    1CAL  O02uk18694   7.065   3.044   1.396
    1CAL  O02ul18695   7.623   2.818   1.621
    1CAL  O02um18696   7.815   2.739   1.701
    1CAL  O02un18697   7.816   2.896   1.542
    1CAL  O02uo18698   7.938   2.802   1.237
    1CAL  O02up18699   7.936   2.645   1.396
    1CAL  O02uq18700   7.937   1.998   1.237
    1CAL  O02ur18701   6.630   1.919   1.316
    1CAL  O02us18702   6.380   2.418   1.625
    1CAL  O02ut18703   6.371   2.512   1.934
    1CAL  O02uu18704   7.066   2.243   1.396
    1CAL  O02uv18705   7.565   3.044   1.396
    1CAL  O02uw18706   7.566   3.201   1.238
    1CAL  O02ux18707   7.623   2.016   1.624
    1CAL  O02uy18708   7.816   1.937   1.703
    1CAL  O02uz18709   7.373   3.124   1.316
    1CAL  O02v018710   7.122   2.016   1.624
    1CAL  O02v118711   7.315   2.095   1.545
    1CAL  O02v218712   6.629   2.913   1.931
    1CAL  O02v318713   7.437   1.997   1.238
    1CAL  O02v418714   7.437   1.840   1.396
    1CAL  O02v518715   7.630   1.919   1.316
    1CAL  O02v618716   7.372   2.512   1.933
    1CAL  O02v718717   7.567   2.435   2.009
    1CAL  O02v818718   7.316   1.937   1.703
    1CAL  O02v918719   7.564   2.593   1.850
    1CAL  O02vA18720   6.066   2.243   1.396
    1CAL  O02vB18721   7.566   2.243   1.396
    1CAL  O02vC18722   6.187   2.497   1.545
    1CAL  O02vD18723   6.064   2.593   1.850
    1CAL  O02vE18724   6.066   2.435   2.010
    1CAL  O02vF18725   6.129   2.110   1.932
    1CAL  O02vG18726   6.130   1.919   1.317
    1CAL  O02vH18727   6.129   2.723   1.317
    1CAL  O02vI18728   7.565   2.400   1.238
    1CAL  O02vJ18729   6.316   2.896   1.543
    1CAL  O02vK18730   7.873   3.124   1.316
    1CAL  O02vL18731   7.872   1.709   1.932
    1CAL  O02vM18732   6.122   2.818   1.621
    1CAL  O02vN18733   7.936   2.992   1.850
    1CAL  O02vO18734   6.065   2.400   1.238
    1CAL  O02vP18735   7.373   2.321   1.317
    1CAL  O02vQ18736   6.315   2.739   1.701
    1CAL  O02vR18737   6.435   2.993   1.850
    1CAL  O02vS18738   6.629   2.110   1.931
    1CAL  O02vT18739   7.372   1.708   1.933
    1CAL  O02vU18740   7.437   2.190   1.850
    1CAL  O02vV18741   7.435   2.033   2.010
    1CAL  O02vW18742   7.630   2.110   1.931
    1CAL  O02vX18743   6.880   1.613   1.624
    1CAL  O02vY18744   6.687   3.141   1.703
    1CAL  O02vZ18745   7.435   2.992   1.850
    1CAL  O02va18746   7.629   2.913   1.930
    1CAL  O02vb18747   6.687   1.692   1.545
    1CAL  O02vc18748   6.564   1.788   1.851
    1CAL  O02vd18749   6.567   1.631   2.010
    1CAL  O02ve18750   6.371   1.709   1.933
    1CAL  O02vf18751   6.563   2.593   1.850
    1CAL  O02vg18752   6.568   2.435   2.010
    1CAL  O02vh18753   6.872   2.321   1.317
    1CAL  O02vi18754   7.567   1.630   2.010
    1CAL  O02vj18755   7.565   1.788   1.851
    1CAL  O02vk18756   6.434   2.033   2.010
    1CAL  O02vl18757   6.436   2.191   1.851
    1CAL  O02vm18758   7.687   1.692   1.545
    1CAL  O02vn18759   7.687   3.141   1.703
    1CAL  O02vo18760   7.880   1.613   1.624
    1CAL  O02vp18761   6.380   1.614   1.624
    1CAL  O02vq18762   6.187   3.141   1.703
    1CAL  O02vr18763   6.186   1.692   1.545
    1CAL  O02vs18764   7.187   1.692   1.545
    1CAL  O02vt18765   7.187   3.141   1.703
    1CAL  O02vu18766   7.380   1.614   1.624
    1CAL  O02vv18767   7.065   2.400   1.238
    1CAL  O02vw18768   7.816   2.095   1.545
    1CAL  O02vx18769   6.821   3.086   2.159
    1CAL  O02vy18770   6.812   2.934   2.325
    1CAL  O02vz18771   6.622   3.018   2.239
    1CAL  O02w018772   6.679   2.685   2.158
    1CAL  O02w118773   6.688   2.534   2.324
    1CAL  O02w218774   6.878   2.616   2.237
    1CAL  O02w318775   6.878   1.813   2.238
    1CAL  O02w418776   6.688   1.730   2.325
    1CAL  O02w518777   6.679   1.881   2.159
    1CAL  O02w618778   6.622   2.215   2.238
    1CAL  O02w718779   6.812   2.131   2.324
    1CAL  O02w818780   6.821   2.283   2.159
    1CAL  O02w918781   7.680   2.685   2.158
    1CAL  O02wA18782   7.878   2.616   2.238
    1CAL  O02wB18783   7.688   2.533   2.324
    1CAL  O02wC18784   7.623   3.017   2.238
    1CAL  O02wD18785   7.812   2.934   2.324
    1CAL  O02wE18786   7.821   3.086   2.159
    1CAL  O02wF18787   7.679   1.881   2.159
    1CAL  O02wG18788   7.878   1.813   2.238
    1CAL  O02wH18789   7.688   1.730   2.325
    1CAL  O02wI18790   7.622   2.214   2.238
    1CAL  O02wJ18791   7.812   2.131   2.324
    1CAL  O02wK18792   7.821   2.283   2.159
    1CAL  O02wL18793   7.312   2.934   2.325
    1CAL  O02wM18794   7.122   3.017   2.239
    1CAL  O02wN18795   7.321   3.085   2.159
    1CAL  O02wO18796   7.180   2.684   2.159
    1CAL  O02wP18797   7.189   2.532   2.325
    1CAL  O02wQ18798   7.379   2.616   2.239
    1CAL  O02wR18799   7.312   2.131   2.325
    1CAL  O02wS18800   7.321   2.282   2.159
    1CAL  O02wT18801   7.122   2.215   2.238
    1CAL  O02wU18802   7.180   1.881   2.160
    1CAL  O02wV18803   7.188   1.729   2.325
    1CAL  O02wW18804   7.378   1.813   2.240
    1CAL  O02wX18805   6.311   2.934   2.326
    1CAL  O02wY18806   6.122   3.018   2.239
    1CAL  O02wZ18807   6.321   3.085   2.160
    1CAL  O02wa18808   6.180   2.684   2.160
    1CAL  O02wb18809   6.189   2.532   2.325
    1CAL  O02wc18810   6.379   2.616   2.241
    1CAL  O02wd18811   6.311   2.132   2.326
    1CAL  O02we18812   6.122   2.215   2.238
    1CAL  O02wf18813   6.321   2.283   2.159
    1CAL  O02wg18814   6.378   1.813   2.241
    1CAL  O02wh18815   6.188   1.729   2.326
    1CAL  O02wi18816   6.180   1.881   2.161
    1CAL  Ca0xt18817   7.003   2.416   2.236
    1CAL  Ca0xu18818   7.751   2.120   1.317
    1CAL  Ca0xv18819   7.497   2.817   2.237
    1CAL  Ca0xw18820   6.003   2.416   2.237
    1CAL  Ca0xx18821   6.751   3.113   1.932
    1CAL  Ca0xy18822   7.751   2.522   1.317
    1CAL  Ca0xz18823   7.501   2.217   1.624
    1CAL  Ca0y018824   7.501   3.019   1.624
    1CAL  Ca0y118825   6.250   2.712   1.931
    1CAL  Ca0y218826   7.001   3.019   1.624
    1CAL  Ca0y318827   6.503   1.613   2.237
    1CAL  Ca0y418828   6.251   2.120   1.317
    1CAL  Ca0y518829   6.251   2.311   1.932
    1CAL  Ca0y618830   7.998   2.014   2.237
    1CAL  Ca0y718831   7.998   2.817   2.237
    1CAL  Ca0y818832   7.750   2.712   1.930
    1CAL  Ca0y918833   7.251   1.718   1.317
    1CAL  Ca0yA18834   8.001   3.019   1.624
    1CAL  Ca0yB18835   7.751   1.718   1.317
    1CAL  Ca0yC18836   6.496   2.015   2.237
    1CAL  Ca0yD18837   6.003   1.613   2.238
    1CAL  Ca0yE18838   7.752   2.311   1.932
    1CAL  Ca0yF18839   6.251   2.522   1.317
    1CAL  Ca0yG18840   8.001   2.217   1.624
    1CAL  Ca0yH18841   7.501   2.618   1.623
    1CAL  Ca0yI18842   6.251   3.114   1.932
    1CAL  Ca0yJ18843   7.751   2.923   1.318
    1CAL  Ca0yK18844   6.501   2.618   1.623
    1CAL  Ca0yL18845   6.497   2.818   2.237
    1CAL  Ca0yM18846   8.001   1.815   1.624
    1CAL  Ca0yN18847   6.501   3.019   1.624
    1CAL  Ca0yO18848   7.497   2.014   2.237
    1CAL  Ca0yP18849   7.251   2.522   1.317
    1CAL  Ca0yQ18850   6.751   2.522   1.317
    1CAL  Ca0yR18851   7.001   1.815   1.624
    1CAL  Ca0yS18852   7.001   2.618   1.623
    1CAL  Ca0yT18853   6.501   2.217   1.624
    1CAL  Ca0yU18854   7.001   2.217   1.624
    1CAL  Ca0yV18855   6.750   2.712   1.931
    1CAL  Ca0yW18856   6.251   1.718   1.317
    1CAL  Ca0yX18857   6.751   2.120   1.317
    1CAL  Ca0yY18858   7.251   2.120   1.317
    1CAL  Ca0yZ18859   7.250   2.712   1.931
    1CAL  Ca0ya18860   7.251   3.113   1.932
    1CAL  Ca0yb18861   7.750   1.909   1.932
    1CAL  Ca0yc18862   7.003   1.613   2.237
    1CAL  Ca0yd18863   6.749   1.909   1.932
    1CAL  Ca0ye18864   6.504   2.416   2.236
    1CAL  Ca0yf18865   6.501   1.815   1.624
    1CAL  Ca0yg18866   6.751   1.718   1.317
    1CAL  Ca0yh18867   7.251   2.923   1.318
    1CAL  Ca0yi18868   7.250   1.909   1.932
    1CAL  Ca0yj18869   6.997   2.014   2.237
    1CAL  Ca0yk18870   6.751   2.923   1.318
    1CAL  Ca0yl18871   6.997   2.817   2.237
    1CAL  Ca0ym18872   6.251   2.923   1.318
    1CAL  Ca0yn18873   7.501   1.815   1.624
    1CAL  Ca0yo18874   7.504   2.416   2.236
    1CAL  Ca0yp18875   7.503   1.612   2.237
    1CAL  Ca0yq18876   6.751   2.311   1.932
    1CAL  Ca0yr18877   7.751   3.114   1.932
    1CAL  Ca0ys18878   7.251   2.311   1.932
    1CAL  Ca0yt18879   6.250   1.909   1.932
    1CAL  Ca0yu18880   8.001   2.618   1.623
    1CAL  C00yv18881   8.001   3.123   2.545
    1CAL  C00yw18882   7.251   1.613   2.852
    1CAL  C00yx18883   6.251   1.613   2.852
    1CAL  C00yy18884   7.500   2.111   3.158
    1CAL  C00yz18885   7.500   2.914   3.158
    1CAL  C00z018886   6.751   1.613   2.852
    1CAL  C00z118887   7.001   2.321   2.545
    1CAL  C00z218888   7.251   2.818   2.849
    1CAL  C00z318889   6.751   2.818   2.850
    1CAL  C00z418890   6.501   2.513   3.159
    1CAL  C00z518891   6.501   1.919   2.545
    1CAL  C00z618892   7.001   2.723   2.545
    1CAL  C00z718893   7.001   1.919   2.545
    1CAL  C00z818894   6.251   2.016   2.852
    1CAL  C00z918895   6.501   1.709   3.159
    1CAL  C00zA18896   7.001   2.513   3.158
    1CAL  C00zB18897   7.751   1.613   2.852
    1CAL  C00zC18898   7.501   1.709   3.159
    1CAL  C00zD18899   6.251   2.418   2.852
    1CAL  C00zE18900   8.000   2.111   3.159
    1CAL  C00zF18901   8.001   2.513   3.158
    1CAL  C00zG18902   8.001   1.919   2.545
    1CAL  C00zH18903   8.001   2.723   2.545
    1CAL  C00zI18904   6.251   2.818   2.850
    1CAL  C00zJ18905   6.500   2.111   3.158
    1CAL  C00zK18906   7.501   2.321   2.545
    1CAL  C00zL18907   8.001   2.321   2.545
    1CAL  C00zM18908   7.751   2.016   2.852
    1CAL  C00zN18909   7.251   2.016   2.852
    1CAL  C00zO18910   7.501   1.919   2.545
    1CAL  C00zP18911   7.501   2.513   3.158
    1CAL  C00zQ18912   6.499   2.914   3.158
    1CAL  C00zR18913   7.501   3.123   2.545
    1CAL  C00zS18914   6.751   2.016   2.852
    1CAL  C00zT18915   7.251   2.418   2.852
    1CAL  C00zU18916   6.501   2.723   2.545
    1CAL  C00zV18917   7.751   2.818   2.849
    1CAL  C00zW18918   7.001   3.123   2.545
    1CAL  C00zX18919   8.000   2.914   3.159
    1CAL  C00zY18920   7.001   1.709   3.158
    1CAL  C00zZ18921   7.000   2.914   3.158
    1CAL  C00za18922   7.000   2.111   3.159
    1CAL  C00zb18923   7.751   2.418   2.852
    1CAL  C00zc18924   6.501   3.123   2.545
    1CAL  C00zd18925   7.501   2.723   2.545
    1CAL  C00ze18926   6.501   2.321   2.545
    1CAL  C00zf18927   6.751   2.418   2.852
    1CAL  C00zg18928   8.001   1.709   3.159
    1CAL  C00zh18929   6.752   2.209   3.469
    1CAL  C00zi18930   6.748   1.808   3.469
    1CAL  C00zj18931   6.748   2.611   3.468
    1CAL  C00zk18932   6.752   3.012   3.469
    1CAL  C00zl18933   7.752   2.209   3.469
    1CAL  C00zm18934   7.748   1.808   3.469
    1CAL  C00zn18935   7.752   3.012   3.469
    1CAL  C00zo18936   7.749   2.611   3.468
    1CAL  C00zp18937   7.252   3.012   3.469
    1CAL  C00zq18938   7.249   2.610   3.469
    1CAL  C00zr18939   7.252   2.209   3.469
    1CAL  C00zs18940   7.248   1.807   3.470
    1CAL  C00zt18941   6.252   3.012   3.470
    1CAL  C00zu18942   6.249   2.610   3.470
    1CAL  C00zv18943   6.252   2.210   3.469
    1CAL  C00zw18944   6.248   1.807   3.471
    1CAL  O02wj18945   6.186   2.340   2.931
    1CAL  O02wk18946   7.187   2.497   2.773
    1CAL  O02wl18947   7.186   2.340   2.931
    1CAL  O02wm18948   7.380   2.418   2.853
    1CAL  O02wn18949   6.565   3.044   2.624
    1CAL  O02wo18950   6.372   3.124   2.544
    1CAL  O02wp18951   6.565   2.400   2.466
    1CAL  O02wq18952   6.687   2.497   2.773
    1CAL  O02wr18953   6.686   2.340   2.931
    1CAL  O02ws18954   6.880   2.418   2.853
    1CAL  O02wt18955   6.566   3.201   2.466
    1CAL  O02wu18956   6.565   2.243   2.624
    1CAL  O02wv18957   6.372   2.321   2.545
    1CAL  O02ww18958   7.129   2.913   3.159
    1CAL  O02wx18959   6.936   2.992   3.078
    1CAL  O02wy18960   6.937   2.190   3.078
    1CAL  O02wz18961   6.934   2.033   3.238
    1CAL  O02x018962   7.129   2.110   3.160
    1CAL  O02x118963   6.934   2.836   3.238
    1CAL  O02x218964   6.622   2.016   2.852
    1CAL  O02x318965   7.064   2.592   3.078
    1CAL  O02x418966   7.123   2.818   2.849
    1CAL  O02x518967   7.315   2.739   2.929
    1CAL  O02x618968   7.316   2.896   2.771
    1CAL  O02x718969   6.437   1.840   2.624
    1CAL  O02x818970   6.436   1.997   2.466
    1CAL  O02x918971   6.622   2.818   2.849
    1CAL  O02xA18972   6.815   2.739   2.929
    1CAL  O02xB18973   6.816   2.896   2.771
    1CAL  O02xC18974   6.315   2.095   2.773
    1CAL  O02xD18975   6.815   1.937   2.931
    1CAL  O02xE18976   6.937   2.802   2.465
    1CAL  O02xF18977   7.130   2.723   2.545
    1CAL  O02xG18978   6.315   1.937   2.932
    1CAL  O02xH18979   6.122   2.016   2.852
    1CAL  O02xI18980   6.815   2.095   2.773
    1CAL  O02xJ18981   6.937   1.998   2.465
    1CAL  O02xK18982   6.937   1.840   2.624
    1CAL  O02xL18983   7.130   1.919   2.545
    1CAL  O02xM18984   6.871   2.512   3.159
    1CAL  O02xN18985   7.067   2.435   3.237
    1CAL  O02xO18986   6.936   2.645   2.624
    1CAL  O02xP18987   7.687   2.497   2.773
    1CAL  O02xQ18988   7.686   2.340   2.931
    1CAL  O02xR18989   7.880   2.418   2.853
    1CAL  O02xS18990   7.935   2.835   3.238
    1CAL  O02xT18991   7.937   2.190   3.079
    1CAL  O02xU18992   7.935   2.032   3.238
    1CAL  O02xV18993   6.129   2.913   3.160
    1CAL  O02xW18994   6.065   1.788   3.079
    1CAL  O02xX18995   7.437   2.802   2.465
    1CAL  O02xY18996   7.436   2.645   2.624
    1CAL  O02xZ18997   7.630   2.723   2.545
    1CAL  O02xa18998   6.066   1.631   3.239
    1CAL  O02xb18999   7.435   2.836   3.238
    1CAL  O02xc19000   6.066   3.201   2.466
    1CAL  O02xd19001   6.065   3.044   2.624
    1CAL  O02xe19002   6.872   3.124   2.544
    1CAL  O02xf19003   7.872   2.512   3.160
    1CAL  O02xg19004   7.937   1.840   2.624
    1CAL  O02xh19005   7.065   1.788   3.079
    1CAL  O02xi19006   6.437   2.802   2.465
    1CAL  O02xj19007   6.436   2.645   2.624
    1CAL  O02xk19008   6.630   2.723   2.545
    1CAL  O02xl19009   7.066   1.630   3.238
    1CAL  O02xm19010   6.434   2.836   3.238
    1CAL  O02xn19011   6.872   1.709   3.159
    1CAL  O02xo19012   7.873   2.321   2.545
    1CAL  O02xp19013   7.066   3.201   2.466
    1CAL  O02xq19014   7.065   3.044   2.624
    1CAL  O02xr19015   7.623   2.818   2.849
    1CAL  O02xs19016   7.815   2.739   2.929
    1CAL  O02xt19017   7.816   2.896   2.770
    1CAL  O02xu19018   7.938   2.802   2.465
    1CAL  O02xv19019   7.936   2.645   2.624
    1CAL  O02xw19020   7.937   1.998   2.465
    1CAL  O02xx19021   6.630   1.919   2.544
    1CAL  O02xy19022   6.380   2.418   2.853
    1CAL  O02xz19023   6.371   2.512   3.162
    1CAL  O02y019024   7.066   2.243   2.624
    1CAL  O02y119025   7.565   3.044   2.624
    1CAL  O02y219026   7.566   3.201   2.466
    1CAL  O02y319027   7.623   2.016   2.852
    1CAL  O02y419028   7.816   1.937   2.931
    1CAL  O02y519029   7.373   3.124   2.544
    1CAL  O02y619030   7.122   2.016   2.852
    1CAL  O02y719031   7.315   2.095   2.773
    1CAL  O02y819032   6.629   2.913   3.159
    1CAL  O02y919033   7.437   1.997   2.466
    1CAL  O02yA19034   7.437   1.840   2.624
    1CAL  O02yB19035   7.630   1.919   2.544
    1CAL  O02yC19036   7.372   2.512   3.161
    1CAL  O02yD19037   7.567   2.435   3.237
    1CAL  O02yE19038   7.316   1.937   2.931
    1CAL  O02yF19039   7.564   2.593   3.078
    1CAL  O02yG19040   6.066   2.243   2.624
    1CAL  O02yH19041   7.566   2.243   2.624
    1CAL  O02yI19042   6.187   2.497   2.773
    1CAL  O02yJ19043   6.064   2.593   3.078
    1CAL  O02yK19044   6.066   2.435   3.238
    1CAL  O02yL19045   6.129   2.110   3.160
    1CAL  O02yM19046   6.130   1.919   2.545
    1CAL  O02yN19047   6.129   2.723   2.545
    1CAL  O02yO19048   7.565   2.400   2.466
    1CAL  O02yP19049   6.316   2.896   2.771
    1CAL  O02yQ19050   7.873   3.124   2.544
    1CAL  O02yR19051   7.872   1.709   3.160
    1CAL  O02yS19052   6.122   2.818   2.849
    1CAL  O02yT19053   7.936   2.992   3.078
    1CAL  O02yU19054   6.065   2.400   2.466
    1CAL  O02yV19055   7.373   2.321   2.545
    1CAL  O02yW19056   6.315   2.739   2.929
    1CAL  O02yX19057   6.435   2.993   3.078
    1CAL  O02yY19058   6.629   2.110   3.159
    1CAL  O02yZ19059   7.372   1.708   3.161
    1CAL  O02ya19060   7.437   2.190   3.078
    1CAL  O02yb19061   7.435   2.033   3.238
    1CAL  O02yc19062   7.630   2.110   3.159
    1CAL  O02yd19063   6.880   1.613   2.852
    1CAL  O02ye19064   6.687   3.141   2.931
    1CAL  O02yf19065   7.435   2.992   3.078
    1CAL  O02yg19066   7.629   2.913   3.158
    1CAL  O02yh19067   6.687   1.692   2.773
    1CAL  O02yi19068   6.564   1.788   3.079
    1CAL  O02yj19069   6.567   1.631   3.238
    1CAL  O02yk19070   6.371   1.709   3.161
    1CAL  O02yl19071   6.563   2.593   3.078
    1CAL  O02ym19072   6.568   2.435   3.238
    1CAL  O02yn19073   6.872   2.321   2.545
    1CAL  O02yo19074   7.567   1.630   3.238
    1CAL  O02yp19075   7.565   1.788   3.079
    1CAL  O02yq19076   6.434   2.033   3.238
    1CAL  O02yr19077   6.436   2.191   3.079
    1CAL  O02ys19078   7.687   1.692   2.773
    1CAL  O02yt19079   7.687   3.141   2.931
    1CAL  O02yu19080   7.880   1.613   2.852
    1CAL  O02yv19081   6.380   1.614   2.852
    1CAL  O02yw19082   6.187   3.141   2.931
    1CAL  O02yx19083   6.186   1.692   2.773
    1CAL  O02yy19084   7.187   1.692   2.773
    1CAL  O02yz19085   7.187   3.141   2.931
    1CAL  O02z019086   7.380   1.614   2.852
    1CAL  O02z119087   7.065   2.400   2.466
    1CAL  O02z219088   7.816   2.095   2.773
    1CAL  O02z319089   6.821   3.086   3.387
    1CAL  O02z419090   6.812   2.934   3.553
    1CAL  O02z519091   6.622   3.018   3.467
    1CAL  O02z619092   6.679   2.685   3.386
    1CAL  O02z719093   6.688   2.534   3.552
    1CAL  O02z819094   6.878   2.616   3.465
    1CAL  O02z919095   6.878   1.813   3.466
    1CAL  O02zA19096   6.688   1.730   3.553
    1CAL  O02zB19097   6.679   1.881   3.387
    1CAL  O02zC19098   6.622   2.215   3.466
    1CAL  O02zD19099   6.812   2.131   3.552
    1CAL  O02zE19100   6.821   2.283   3.387
    1CAL  O02zF19101   7.680   2.685   3.386
    1CAL  O02zG19102   7.878   2.616   3.466
    1CAL  O02zH19103   7.688   2.533   3.552
    1CAL  O02zI19104   7.623   3.017   3.466
    1CAL  O02zJ19105   7.812   2.934   3.552
    1CAL  O02zK19106   7.821   3.086   3.387
    1CAL  O02zL19107   7.679   1.881   3.387
    1CAL  O02zM19108   7.878   1.813   3.466
    1CAL  O02zN19109   7.688   1.730   3.553
    1CAL  O02zO19110   7.622   2.214   3.466
    1CAL  O02zP19111   7.812   2.131   3.552
    1CAL  O02zQ19112   7.821   2.283   3.387
    1CAL  O02zR19113   7.312   2.934   3.553
    1CAL  O02zS19114   7.122   3.017   3.467
    1CAL  O02zT19115   7.321   3.085   3.387
    1CAL  O02zU19116   7.180   2.684   3.387
    1CAL  O02zV19117   7.189   2.532   3.553
    1CAL  O02zW19118   7.379   2.616   3.467
    1CAL  O02zX19119   7.312   2.131   3.553
    1CAL  O02zY19120   7.321   2.282   3.387
    1CAL  O02zZ19121   7.122   2.215   3.466
    1CAL  O02za19122   7.180   1.881   3.388
    1CAL  O02zb19123   7.188   1.729   3.553
    1CAL  O02zc19124   7.378   1.813   3.468
    1CAL  O02zd19125   6.311   2.934   3.554
    1CAL  O02ze19126   6.122   3.018   3.467
    1CAL  O02zf19127   6.321   3.085   3.388
    1CAL  O02zg19128   6.180   2.684   3.388
    1CAL  O02zh19129   6.189   2.532   3.553
    1CAL  O02zi19130   6.379   2.616   3.469
    1CAL  O02zj19131   6.311   2.132   3.554
    1CAL  O02zk19132   6.122   2.215   3.466
    1CAL  O02zl19133   6.321   2.283   3.387
    1CAL  O02zm19134   6.378   1.813   3.469
    1CAL  O02zn19135   6.188   1.729   3.554
    1CAL  O02zo19136   6.180   1.881   3.389
    1CAL  Ca0yv19137   7.003   2.416   3.464
    1CAL  Ca0yw19138   7.751   2.120   2.545
    1CAL  Ca0yx19139   7.497   2.817   3.465
    1CAL  Ca0yy19140   6.003   2.416   3.465
    1CAL  Ca0yz19141   6.751   3.113   3.160
    1CAL  Ca0z019142   7.751   2.522   2.545
    1CAL  Ca0z119143   7.501   2.217   2.852
    1CAL  Ca0z219144   7.501   3.019   2.852
    1CAL  Ca0z319145   6.250   2.712   3.159
    1CAL  Ca0z419146   7.001   3.019   2.852
    1CAL  Ca0z519147   6.503   1.613   3.465
    1CAL  Ca0z619148   6.251   2.120   2.545
    1CAL  Ca0z719149   6.251   2.311   3.160
    1CAL  Ca0z819150   7.998   2.014   3.465
    1CAL  Ca0z919151   7.998   2.817   3.465
    1CAL  Ca0zA19152   7.750   2.712   3.158
    1CAL  Ca0zB19153   7.251   1.718   2.545
    1CAL  Ca0zC19154   8.001   3.019   2.852
    1CAL  Ca0zD19155   7.751   1.718   2.545
    1CAL  Ca0zE19156   6.496   2.015   3.465
    1CAL  Ca0zF19157   6.003   1.613   3.466
    1CAL  Ca0zG19158   7.752   2.311   3.160
    1CAL  Ca0zH19159   6.251   2.522   2.545
    1CAL  Ca0zI19160   8.001   2.217   2.852
    1CAL  Ca0zJ19161   7.501   2.618   2.851
    1CAL  Ca0zK19162   6.251   3.114   3.160
    1CAL  Ca0zL19163   7.751   2.923   2.546
    1CAL  Ca0zM19164   6.501   2.618   2.851
    1CAL  Ca0zN19165   6.497   2.818   3.465
    1CAL  Ca0zO19166   8.001   1.815   2.852
    1CAL  Ca0zP19167   6.501   3.019   2.852
    1CAL  Ca0zQ19168   7.497   2.014   3.465
    1CAL  Ca0zR19169   7.251   2.522   2.545
    1CAL  Ca0zS19170   6.751   2.522   2.545
    1CAL  Ca0zT19171   7.001   1.815   2.852
    1CAL  Ca0zU19172   7.001   2.618   2.851
    1CAL  Ca0zV19173   6.501   2.217   2.852
    1CAL  Ca0zW19174   7.001   2.217   2.852
    1CAL  Ca0zX19175   6.750   2.712   3.159
    1CAL  Ca0zY19176   6.251   1.718   2.545
    1CAL  Ca0zZ19177   6.751   2.120   2.545
    1CAL  Ca0za19178   7.251   2.120   2.545
    1CAL  Ca0zb19179   7.250   2.712   3.159
    1CAL  Ca0zc19180   7.251   3.113   3.160
    1CAL  Ca0zd19181   7.750   1.909   3.160
    1CAL  Ca0ze19182   7.003   1.613   3.465
    1CAL  Ca0zf19183   6.749   1.909   3.160
    1CAL  Ca0zg19184   6.504   2.416   3.464
    1CAL  Ca0zh19185   6.501   1.815   2.852
    1CAL  Ca0zi19186   6.751   1.718   2.545
    1CAL  Ca0zj19187   7.251   2.923   2.546
    1CAL  Ca0zk19188   7.250   1.909   3.160
    1CAL  Ca0zl19189   6.997   2.014   3.465
    1CAL  Ca0zm19190   6.751   2.923   2.546
    1CAL  Ca0zn19191   6.997   2.817   3.465
    1CAL  Ca0zo19192   6.251   2.923   2.546
    1CAL  Ca0zp19193   7.501   1.815   2.852
    1CAL  Ca0zq19194   7.504   2.416   3.464
    1CAL  Ca0zr19195   7.503   1.612   3.465
    1CAL  Ca0zs19196   6.751   2.311   3.160
    1CAL  Ca0zt19197   7.751   3.114   3.160
    1CAL  Ca0zu19198   7.251   2.311   3.160
    1CAL  Ca0zv19199   6.250   1.909   3.160
    1CAL  Ca0zw19200   8.001   2.618   2.851
    1CAL  C00zx19201   8.001   4.730   0.089
    1CAL  C00zy19202   7.251   3.220   0.396
    1CAL  C00zz19203   6.251   3.220   0.396
    1CAL  C010019204   7.500   3.718   0.702
    1CAL  C010119205   7.500   4.521   0.702
    1CAL  C010219206   6.751   3.220   0.396
    1CAL  C010319207   7.001   3.928   0.089
    1CAL  C010419208   7.251   4.425   0.393
    1CAL  C010519209   6.751   4.425   0.394
    1CAL  C010619210   6.501   4.120   0.703
    1CAL  C010719211   6.501   3.526   0.089
    1CAL  C010819212   7.001   4.330   0.089
    1CAL  C010919213   7.001   3.526   0.089
    1CAL  C010A19214   6.251   3.623   0.396
    1CAL  C010B19215   6.501   3.316   0.703
    1CAL  C010C19216   7.001   4.120   0.702
    1CAL  C010D19217   7.751   3.220   0.396
    1CAL  C010E19218   7.501   3.316   0.703
    1CAL  C010F19219   6.251   4.025   0.396
    1CAL  C010G19220   8.000   3.718   0.703
    1CAL  C010H19221   8.001   4.120   0.702
    1CAL  C010I19222   8.001   3.526   0.089
    1CAL  C010J19223   8.001   4.330   0.089
    1CAL  C010K19224   6.251   4.425   0.394
    1CAL  C010L19225   6.500   3.718   0.702
    1CAL  C010M19226   7.501   3.928   0.089
    1CAL  C010N19227   8.001   3.928   0.089
    1CAL  C010O19228   7.751   3.623   0.396
    1CAL  C010P19229   7.251   3.623   0.396
    1CAL  C010Q19230   7.501   3.526   0.089
    1CAL  C010R19231   7.501   4.120   0.702
    1CAL  C010S19232   6.499   4.521   0.702
    1CAL  C010T19233   7.501   4.730   0.089
    1CAL  C010U19234   6.751   3.623   0.396
    1CAL  C010V19235   7.251   4.025   0.396
    1CAL  C010W19236   6.501   4.330   0.089
    1CAL  C010X19237   7.751   4.425   0.393
    1CAL  C010Y19238   7.001   4.730   0.089
    1CAL  C010Z19239   8.000   4.521   0.703
    1CAL  C010a19240   7.001   3.316   0.702
    1CAL  C010b19241   7.000   4.521   0.702
    1CAL  C010c19242   7.000   3.718   0.703
    1CAL  C010d19243   7.751   4.025   0.396
    1CAL  C010e19244   6.501   4.730   0.089
    1CAL  C010f19245   7.501   4.330   0.089
    1CAL  C010g19246   6.501   3.928   0.089
    1CAL  C010h19247   6.751   4.025   0.396
    1CAL  C010i19248   8.001   3.316   0.703
    1CAL  C010j19249   6.752   3.816   1.013
    1CAL  C010k19250   6.748   3.415   1.013
    1CAL  C010l19251   6.748   4.218   1.012
    1CAL  C010m19252   6.752   4.619   1.013
    1CAL  C010n19253   7.752   3.816   1.013
    1CAL  C010o19254   7.748   3.415   1.013
    1CAL  C010p19255   7.752   4.619   1.013
    1CAL  C010q19256   7.749   4.218   1.012
    1CAL  C010r19257   7.252   4.619   1.013
    1CAL  C010s19258   7.249   4.217   1.013
    1CAL  C010t19259   7.252   3.816   1.013
    1CAL  C010u19260   7.248   3.414   1.014
    1CAL  C010v19261   6.252   4.619   1.014
    1CAL  C010w19262   6.249   4.217   1.014
    1CAL  C010x19263   6.252   3.817   1.013
    1CAL  C010y19264   6.248   3.414   1.015
    1CAL  O02zp19265   6.186   3.947   0.475
    1CAL  O02zq19266   7.187   4.104   0.317
    1CAL  O02zr19267   7.186   3.947   0.475
    1CAL  O02zs19268   7.380   4.025   0.397
    1CAL  O02zt19269   6.565   4.651   0.168
    1CAL  O02zu19270   6.372   4.731   0.088
    1CAL  O02zv19271   6.565   4.007   0.010
    1CAL  O02zw19272   6.687   4.104   0.317
    1CAL  O02zx19273   6.686   3.947   0.475
    1CAL  O02zy19274   6.880   4.025   0.397
    1CAL  O02zz19275   6.566   4.808   0.010
    1CAL  O030019276   6.565   3.850   0.168
    1CAL  O030119277   6.372   3.928   0.089
    1CAL  O030219278   7.129   4.520   0.703
    1CAL  O030319279   6.936   4.599   0.622
    1CAL  O030419280   6.937   3.797   0.622
    1CAL  O030519281   6.934   3.640   0.782
    1CAL  O030619282   7.129   3.717   0.704
    1CAL  O030719283   6.934   4.443   0.782
    1CAL  O030819284   6.622   3.623   0.396
    1CAL  O030919285   7.064   4.199   0.622
    1CAL  O030A19286   7.123   4.425   0.393
    1CAL  O030B19287   7.315   4.346   0.473
    1CAL  O030C19288   7.316   4.503   0.315
    1CAL  O030D19289   6.437   3.447   0.168
    1CAL  O030E19290   6.436   3.604   0.010
    1CAL  O030F19291   6.622   4.425   0.393
    1CAL  O030G19292   6.815   4.346   0.473
    1CAL  O030H19293   6.816   4.503   0.315
    1CAL  O030I19294   6.315   3.702   0.317
    1CAL  O030J19295   6.815   3.544   0.475
    1CAL  O030K19296   6.937   4.409   0.009
    1CAL  O030L19297   7.130   4.330   0.089
    1CAL  O030M19298   6.315   3.544   0.476
    1CAL  O030N19299   6.122   3.623   0.396
    1CAL  O030O19300   6.815   3.702   0.317
    1CAL  O030P19301   6.937   3.605   0.009
    1CAL  O030Q19302   6.937   3.447   0.168
    1CAL  O030R19303   7.130   3.526   0.089
    1CAL  O030S19304   6.871   4.119   0.703
    1CAL  O030T19305   7.067   4.042   0.781
    1CAL  O030U19306   6.936   4.252   0.168
    1CAL  O030V19307   7.687   4.104   0.317
    1CAL  O030W19308   7.686   3.947   0.475
    1CAL  O030X19309   7.880   4.025   0.397
    1CAL  O030Y19310   7.935   4.442   0.782
    1CAL  O030Z19311   7.937   3.797   0.623
    1CAL  O030a19312   7.935   3.639   0.782
    1CAL  O030b19313   6.129   4.520   0.704
    1CAL  O030c19314   6.065   3.395   0.623
    1CAL  O030d19315   7.437   4.409   0.009
    1CAL  O030e19316   7.436   4.252   0.168
    1CAL  O030f19317   7.630   4.330   0.089
    1CAL  O030g19318   6.066   3.238   0.783
    1CAL  O030h19319   7.435   4.443   0.782
    1CAL  O030i19320   6.066   4.808   0.010
    1CAL  O030j19321   6.065   4.651   0.168
    1CAL  O030k19322   6.872   4.731   0.088
    1CAL  O030l19323   7.872   4.119   0.704
    1CAL  O030m19324   7.937   3.447   0.168
    1CAL  O030n19325   7.065   3.395   0.623
    1CAL  O030o19326   6.437   4.409   0.009
    1CAL  O030p19327   6.436   4.252   0.168
    1CAL  O030q19328   6.630   4.330   0.089
    1CAL  O030r19329   7.066   3.237   0.782
    1CAL  O030s19330   6.434   4.443   0.782
    1CAL  O030t19331   6.872   3.316   0.703
    1CAL  O030u19332   7.873   3.928   0.089
    1CAL  O030v19333   7.066   4.808   0.010
    1CAL  O030w19334   7.065   4.651   0.168
    1CAL  O030x19335   7.623   4.425   0.393
    1CAL  O030y19336   7.815   4.346   0.473
    1CAL  O030z19337   7.816   4.503   0.314
    1CAL  O031019338   7.938   4.409   0.009
    1CAL  O031119339   7.936   4.252   0.168
    1CAL  O031219340   7.937   3.605   0.009
    1CAL  O031319341   6.630   3.526   0.088
    1CAL  O031419342   6.380   4.025   0.397
    1CAL  O031519343   6.371   4.119   0.706
    1CAL  O031619344   7.066   3.850   0.168
    1CAL  O031719345   7.565   4.651   0.168
    1CAL  O031819346   7.566   4.808   0.010
    1CAL  O031919347   7.623   3.623   0.396
    1CAL  O031A19348   7.816   3.544   0.475
    1CAL  O031B19349   7.373   4.731   0.088
    1CAL  O031C19350   7.122   3.623   0.396
    1CAL  O031D19351   7.315   3.702   0.317
    1CAL  O031E19352   6.629   4.520   0.703
    1CAL  O031F19353   7.437   3.604   0.010
    1CAL  O031G19354   7.437   3.447   0.168
    1CAL  O031H19355   7.630   3.526   0.088
    1CAL  O031I19356   7.372   4.119   0.705
    1CAL  O031J19357   7.567   4.042   0.781
    1CAL  O031K19358   7.316   3.544   0.475
    1CAL  O031L19359   7.564   4.200   0.622
    1CAL  O031M19360   6.066   3.850   0.168
    1CAL  O031N19361   7.566   3.850   0.168
    1CAL  O031O19362   6.187   4.104   0.317
    1CAL  O031P19363   6.064   4.200   0.622
    1CAL  O031Q19364   6.066   4.042   0.782
    1CAL  O031R19365   6.129   3.717   0.704
    1CAL  O031S19366   6.130   3.526   0.089
    1CAL  O031T19367   6.129   4.330   0.089
    1CAL  O031U19368   7.565   4.007   0.010
    1CAL  O031V19369   6.316   4.503   0.315
    1CAL  O031W19370   7.873   4.731   0.088
    1CAL  O031X19371   7.872   3.316   0.704
    1CAL  O031Y19372   6.122   4.425   0.393
    1CAL  O031Z19373   7.936   4.599   0.622
    1CAL  O031a19374   6.065   4.007   0.010
    1CAL  O031b19375   7.373   3.928   0.089
    1CAL  O031c19376   6.315   4.346   0.473
    1CAL  O031d19377   6.435   4.600   0.622
    1CAL  O031e19378   6.629   3.717   0.703
    1CAL  O031f19379   7.372   3.315   0.705
    1CAL  O031g19380   7.437   3.797   0.622
    1CAL  O031h19381   7.435   3.640   0.782
    1CAL  O031i19382   7.630   3.717   0.703
    1CAL  O031j19383   6.880   3.220   0.396
    1CAL  O031k19384   6.687   4.748   0.475
    1CAL  O031l19385   7.435   4.599   0.622
    1CAL  O031m19386   7.629   4.520   0.702
    1CAL  O031n19387   6.687   3.299   0.317
    1CAL  O031o19388   6.564   3.395   0.623
    1CAL  O031p19389   6.567   3.238   0.782
    1CAL  O031q19390   6.371   3.316   0.705
    1CAL  O031r19391   6.563   4.200   0.622
    1CAL  O031s19392   6.568   4.042   0.782
    1CAL  O031t19393   6.872   3.928   0.089
    1CAL  O031u19394   7.567   3.237   0.782
    1CAL  O031v19395   7.565   3.395   0.623
    1CAL  O031w19396   6.434   3.640   0.782
    1CAL  O031x19397   6.436   3.798   0.623
    1CAL  O031y19398   7.687   3.299   0.317
    1CAL  O031z19399   7.687   4.748   0.475
    1CAL  O032019400   7.880   3.220   0.396
    1CAL  O032119401   6.380   3.221   0.396
    1CAL  O032219402   6.187   4.748   0.475
    1CAL  O032319403   6.186   3.299   0.317
    1CAL  O032419404   7.187   3.299   0.317
    1CAL  O032519405   7.187   4.748   0.475
    1CAL  O032619406   7.380   3.221   0.396
    1CAL  O032719407   7.065   4.007   0.010
    1CAL  O032819408   7.816   3.702   0.317
    1CAL  O032919409   6.821   4.693   0.931
    1CAL  O032A19410   6.812   4.541   1.097
    1CAL  O032B19411   6.622   4.625   1.011
    1CAL  O032C19412   6.679   4.292   0.930
    1CAL  O032D19413   6.688   4.141   1.096
    1CAL  O032E19414   6.878   4.223   1.009
    1CAL  O032F19415   6.878   3.420   1.010
    1CAL  O032G19416   6.688   3.337   1.097
    1CAL  O032H19417   6.679   3.488   0.931
    1CAL  O032I19418   6.622   3.822   1.010
    1CAL  O032J19419   6.812   3.738   1.096
    1CAL  O032K19420   6.821   3.890   0.931
    1CAL  O032L19421   7.680   4.292   0.930
    1CAL  O032M19422   7.878   4.223   1.010
    1CAL  O032N19423   7.688   4.140   1.096
    1CAL  O032O19424   7.623   4.624   1.010
    1CAL  O032P19425   7.812   4.541   1.096
    1CAL  O032Q19426   7.821   4.693   0.931
    1CAL  O032R19427   7.679   3.488   0.931
    1CAL  O032S19428   7.878   3.420   1.010
    1CAL  O032T19429   7.688   3.337   1.097
    1CAL  O032U19430   7.622   3.821   1.010
    1CAL  O032V19431   7.812   3.738   1.096
    1CAL  O032W19432   7.821   3.890   0.931
    1CAL  O032X19433   7.312   4.541   1.097
    1CAL  O032Y19434   7.122   4.624   1.011
    1CAL  O032Z19435   7.321   4.692   0.931
    1CAL  O032a19436   7.180   4.291   0.931
    1CAL  O032b19437   7.189   4.139   1.097
    1CAL  O032c19438   7.379   4.223   1.011
    1CAL  O032d19439   7.312   3.738   1.097
    1CAL  O032e19440   7.321   3.889   0.931
    1CAL  O032f19441   7.122   3.822   1.010
    1CAL  O032g19442   7.180   3.488   0.932
    1CAL  O032h19443   7.188   3.336   1.097
    1CAL  O032i19444   7.378   3.420   1.012
    1CAL  O032j19445   6.311   4.541   1.098
    1CAL  O032k19446   6.122   4.625   1.011
    1CAL  O032l19447   6.321   4.692   0.932
    1CAL  O032m19448   6.180   4.291   0.932
    1CAL  O032n19449   6.189   4.139   1.097
    1CAL  O032o19450   6.379   4.223   1.013
    1CAL  O032p19451   6.311   3.739   1.098
    1CAL  O032q19452   6.122   3.822   1.010
    1CAL  O032r19453   6.321   3.890   0.931
    1CAL  O032s19454   6.378   3.420   1.013
    1CAL  O032t19455   6.188   3.336   1.098
    1CAL  O032u19456   6.180   3.488   0.933
    1CAL  Ca0zx19457   7.003   4.023   1.008
    1CAL  Ca0zy19458   7.751   3.727   0.089
    1CAL  Ca0zz19459   7.497   4.424   1.009
    1CAL  Ca10019460   6.003   4.023   1.009
    1CAL  Ca10119461   6.751   4.720   0.704
    1CAL  Ca10219462   7.751   4.129   0.089
    1CAL  Ca10319463   7.501   3.824   0.396
    1CAL  Ca10419464   7.501   4.626   0.396
    1CAL  Ca10519465   6.250   4.319   0.703
    1CAL  Ca10619466   7.001   4.626   0.396
    1CAL  Ca10719467   6.503   3.220   1.009
    1CAL  Ca10819468   6.251   3.727   0.089
    1CAL  Ca10919469   6.251   3.918   0.704
    1CAL  Ca10A19470   7.998   3.621   1.009
    1CAL  Ca10B19471   7.998   4.424   1.009
    1CAL  Ca10C19472   7.750   4.319   0.702
    1CAL  Ca10D19473   7.251   3.325   0.089
    1CAL  Ca10E19474   8.001   4.626   0.396
    1CAL  Ca10F19475   7.751   3.325   0.089
    1CAL  Ca10G19476   6.496   3.622   1.009
    1CAL  Ca10H19477   6.003   3.220   1.010
    1CAL  Ca10I19478   7.752   3.918   0.704
    1CAL  Ca10J19479   6.251   4.129   0.089
    1CAL  Ca10K19480   8.001   3.824   0.396
    1CAL  Ca10L19481   7.501   4.225   0.395
    1CAL  Ca10M19482   6.251   4.721   0.704
    1CAL  Ca10N19483   7.751   4.530   0.090
    1CAL  Ca10O19484   6.501   4.225   0.395
    1CAL  Ca10P19485   6.497   4.425   1.009
    1CAL  Ca10Q19486   8.001   3.422   0.396
    1CAL  Ca10R19487   6.501   4.626   0.396
    1CAL  Ca10S19488   7.497   3.621   1.009
    1CAL  Ca10T19489   7.251   4.129   0.089
    1CAL  Ca10U19490   6.751   4.129   0.089
    1CAL  Ca10V19491   7.001   3.422   0.396
    1CAL  Ca10W19492   7.001   4.225   0.395
    1CAL  Ca10X19493   6.501   3.824   0.396
    1CAL  Ca10Y19494   7.001   3.824   0.396
    1CAL  Ca10Z19495   6.750   4.319   0.703
    1CAL  Ca10a19496   6.251   3.325   0.089
    1CAL  Ca10b19497   6.751   3.727   0.089
    1CAL  Ca10c19498   7.251   3.727   0.089
    1CAL  Ca10d19499   7.250   4.319   0.703
    1CAL  Ca10e19500   7.251   4.720   0.704
    1CAL  Ca10f19501   7.750   3.516   0.704
    1CAL  Ca10g19502   7.003   3.220   1.009
    1CAL  Ca10h19503   6.749   3.516   0.704
    1CAL  Ca10i19504   6.504   4.023   1.008
    1CAL  Ca10j19505   6.501   3.422   0.396
    1CAL  Ca10k19506   6.751   3.325   0.089
    1CAL  Ca10l19507   7.251   4.530   0.090
    1CAL  Ca10m19508   7.250   3.516   0.704
    1CAL  Ca10n19509   6.997   3.621   1.009
    1CAL  Ca10o19510   6.751   4.530   0.090
    1CAL  Ca10p19511   6.997   4.424   1.009
    1CAL  Ca10q19512   6.251   4.530   0.090
    1CAL  Ca10r19513   7.501   3.422   0.396
    1CAL  Ca10s19514   7.504   4.023   1.008
    1CAL  Ca10t19515   7.503   3.219   1.009
    1CAL  Ca10u19516   6.751   3.918   0.704
    1CAL  Ca10v19517   7.751   4.721   0.704
    1CAL  Ca10w19518   7.251   3.918   0.704
    1CAL  Ca10x19519   6.250   3.516   0.704
    1CAL  Ca10y19520   8.001   4.225   0.395
    1CAL  C010z19521   8.001   4.730   1.317
    1CAL  C011019522   7.251   3.220   1.624
    1CAL  C011119523   6.251   3.220   1.624
    1CAL  C011219524   7.500   3.718   1.930
    1CAL  C011319525   7.500   4.521   1.930
    1CAL  C011419526   6.751   3.220   1.624
    1CAL  C011519527   7.001   3.928   1.317
    1CAL  C011619528   7.251   4.425   1.621
    1CAL  C011719529   6.751   4.425   1.622
    1CAL  C011819530   6.501   4.120   1.931
    1CAL  C011919531   6.501   3.526   1.317
    1CAL  C011A19532   7.001   4.330   1.317
    1CAL  C011B19533   7.001   3.526   1.317
    1CAL  C011C19534   6.251   3.623   1.624
    1CAL  C011D19535   6.501   3.316   1.931
    1CAL  C011E19536   7.001   4.120   1.930
    1CAL  C011F19537   7.751   3.220   1.624
    1CAL  C011G19538   7.501   3.316   1.931
    1CAL  C011H19539   6.251   4.025   1.624
    1CAL  C011I19540   8.000   3.718   1.931
    1CAL  C011J19541   8.001   4.120   1.930
    1CAL  C011K19542   8.001   3.526   1.317
    1CAL  C011L19543   8.001   4.330   1.317
    1CAL  C011M19544   6.251   4.425   1.622
    1CAL  C011N19545   6.500   3.718   1.930
    1CAL  C011O19546   7.501   3.928   1.317
    1CAL  C011P19547   8.001   3.928   1.317
    1CAL  C011Q19548   7.751   3.623   1.624
    1CAL  C011R19549   7.251   3.623   1.624
    1CAL  C011S19550   7.501   3.526   1.317
    1CAL  C011T19551   7.501   4.120   1.930
    1CAL  C011U19552   6.499   4.521   1.930
    1CAL  C011V19553   7.501   4.730   1.317
    1CAL  C011W19554   6.751   3.623   1.624
    1CAL  C011X19555   7.251   4.025   1.624
    1CAL  C011Y19556   6.501   4.330   1.317
    1CAL  C011Z19557   7.751   4.425   1.621
    1CAL  C011a19558   7.001   4.730   1.317
    1CAL  C011b19559   8.000   4.521   1.931
    1CAL  C011c19560   7.001   3.316   1.930
    1CAL  C011d19561   7.000   4.521   1.930
    1CAL  C011e19562   7.000   3.718   1.931
    1CAL  C011f19563   7.751   4.025   1.624
    1CAL  C011g19564   6.501   4.730   1.317
    1CAL  C011h19565   7.501   4.330   1.317
    1CAL  C011i19566   6.501   3.928   1.317
    1CAL  C011j19567   6.751   4.025   1.624
    1CAL  C011k19568   8.001   3.316   1.931
    1CAL  C011l19569   6.752   3.816   2.241
    1CAL  C011m19570   6.748   3.415   2.241
    1CAL  C011n19571   6.748   4.218   2.240
    1CAL  C011o19572   6.752   4.619   2.241
    1CAL  C011p19573   7.752   3.816   2.241
    1CAL  C011q19574   7.748   3.415   2.241
    1CAL  C011r19575   7.752   4.619   2.241
    1CAL  C011s19576   7.749   4.218   2.240
    1CAL  C011t19577   7.252   4.619   2.241
    1CAL  C011u19578   7.249   4.217   2.241
    1CAL  C011v19579   7.252   3.816   2.241
    1CAL  C011w19580   7.248   3.414   2.242
    1CAL  C011x19581   6.252   4.619   2.242
    1CAL  C011y19582   6.249   4.217   2.242
    1CAL  C011z19583   6.252   3.817   2.241
    1CAL  C012019584   6.248   3.414   2.243
    1CAL  O032v19585   6.186   3.947   1.703
    1CAL  O032w19586   7.187   4.104   1.545
    1CAL  O032x19587   7.186   3.947   1.703
    1CAL  O032y19588   7.380   4.025   1.625
    1CAL  O032z19589   6.565   4.651   1.396
    1CAL  O033019590   6.372   4.731   1.316
    1CAL  O033119591   6.565   4.007   1.238
    1CAL  O033219592   6.687   4.104   1.545
    1CAL  O033319593   6.686   3.947   1.703
    1CAL  O033419594   6.880   4.025   1.625
    1CAL  O033519595   6.566   4.808   1.238
    1CAL  O033619596   6.565   3.850   1.396
    1CAL  O033719597   6.372   3.928   1.317
    1CAL  O033819598   7.129   4.520   1.931
    1CAL  O033919599   6.936   4.599   1.850
    1CAL  O033A19600   6.937   3.797   1.850
    1CAL  O033B19601   6.934   3.640   2.010
    1CAL  O033C19602   7.129   3.717   1.932
    1CAL  O033D19603   6.934   4.443   2.010
    1CAL  O033E19604   6.622   3.623   1.624
    1CAL  O033F19605   7.064   4.199   1.850
    1CAL  O033G19606   7.123   4.425   1.621
    1CAL  O033H19607   7.315   4.346   1.701
    1CAL  O033I19608   7.316   4.503   1.543
    1CAL  O033J19609   6.437   3.447   1.396
    1CAL  O033K19610   6.436   3.604   1.238
    1CAL  O033L19611   6.622   4.425   1.621
    1CAL  O033M19612   6.815   4.346   1.701
    1CAL  O033N19613   6.816   4.503   1.543
    1CAL  O033O19614   6.315   3.702   1.545
    1CAL  O033P19615   6.815   3.544   1.703
    1CAL  O033Q19616   6.937   4.409   1.237
    1CAL  O033R19617   7.130   4.330   1.317
    1CAL  O033S19618   6.315   3.544   1.704
    1CAL  O033T19619   6.122   3.623   1.624
    1CAL  O033U19620   6.815   3.702   1.545
    1CAL  O033V19621   6.937   3.605   1.237
    1CAL  O033W19622   6.937   3.447   1.396
    1CAL  O033X19623   7.130   3.526   1.317
    1CAL  O033Y19624   6.871   4.119   1.931
    1CAL  O033Z19625   7.067   4.042   2.009
    1CAL  O033a19626   6.936   4.252   1.396
    1CAL  O033b19627   7.687   4.104   1.545
    1CAL  O033c19628   7.686   3.947   1.703
    1CAL  O033d19629   7.880   4.025   1.625
    1CAL  O033e19630   7.935   4.442   2.010
    1CAL  O033f19631   7.937   3.797   1.851
    1CAL  O033g19632   7.935   3.639   2.010
    1CAL  O033h19633   6.129   4.520   1.932
    1CAL  O033i19634   6.065   3.395   1.851
    1CAL  O033j19635   7.437   4.409   1.237
    1CAL  O033k19636   7.436   4.252   1.396
    1CAL  O033l19637   7.630   4.330   1.317
    1CAL  O033m19638   6.066   3.238   2.011
    1CAL  O033n19639   7.435   4.443   2.010
    1CAL  O033o19640   6.066   4.808   1.238
    1CAL  O033p19641   6.065   4.651   1.396
    1CAL  O033q19642   6.872   4.731   1.316
    1CAL  O033r19643   7.872   4.119   1.932
    1CAL  O033s19644   7.937   3.447   1.396
    1CAL  O033t19645   7.065   3.395   1.851
    1CAL  O033u19646   6.437   4.409   1.237
    1CAL  O033v19647   6.436   4.252   1.396
    1CAL  O033w19648   6.630   4.330   1.317
    1CAL  O033x19649   7.066   3.237   2.010
    1CAL  O033y19650   6.434   4.443   2.010
    1CAL  O033z19651   6.872   3.316   1.931
    1CAL  O034019652   7.873   3.928   1.317
    1CAL  O034119653   7.066   4.808   1.238
    1CAL  O034219654   7.065   4.651   1.396
    1CAL  O034319655   7.623   4.425   1.621
    1CAL  O034419656   7.815   4.346   1.701
    1CAL  O034519657   7.816   4.503   1.542
    1CAL  O034619658   7.938   4.409   1.237
    1CAL  O034719659   7.936   4.252   1.396
    1CAL  O034819660   7.937   3.605   1.237
    1CAL  O034919661   6.630   3.526   1.316
    1CAL  O034A19662   6.380   4.025   1.625
    1CAL  O034B19663   6.371   4.119   1.934
    1CAL  O034C19664   7.066   3.850   1.396
    1CAL  O034D19665   7.565   4.651   1.396
    1CAL  O034E19666   7.566   4.808   1.238
    1CAL  O034F19667   7.623   3.623   1.624
    1CAL  O034G19668   7.816   3.544   1.703
    1CAL  O034H19669   7.373   4.731   1.316
    1CAL  O034I19670   7.122   3.623   1.624
    1CAL  O034J19671   7.315   3.702   1.545
    1CAL  O034K19672   6.629   4.520   1.931
    1CAL  O034L19673   7.437   3.604   1.238
    1CAL  O034M19674   7.437   3.447   1.396
    1CAL  O034N19675   7.630   3.526   1.316
    1CAL  O034O19676   7.372   4.119   1.933
    1CAL  O034P19677   7.567   4.042   2.009
    1CAL  O034Q19678   7.316   3.544   1.703
    1CAL  O034R19679   7.564   4.200   1.850
    1CAL  O034S19680   6.066   3.850   1.396
    1CAL  O034T19681   7.566   3.850   1.396
    1CAL  O034U19682   6.187   4.104   1.545
    1CAL  O034V19683   6.064   4.200   1.850
    1CAL  O034W19684   6.066   4.042   2.010
    1CAL  O034X19685   6.129   3.717   1.932
    1CAL  O034Y19686   6.130   3.526   1.317
    1CAL  O034Z19687   6.129   4.330   1.317
    1CAL  O034a19688   7.565   4.007   1.238
    1CAL  O034b19689   6.316   4.503   1.543
    1CAL  O034c19690   7.873   4.731   1.316
    1CAL  O034d19691   7.872   3.316   1.932
    1CAL  O034e19692   6.122   4.425   1.621
    1CAL  O034f19693   7.936   4.599   1.850
    1CAL  O034g19694   6.065   4.007   1.238
    1CAL  O034h19695   7.373   3.928   1.317
    1CAL  O034i19696   6.315   4.346   1.701
    1CAL  O034j19697   6.435   4.600   1.850
    1CAL  O034k19698   6.629   3.717   1.931
    1CAL  O034l19699   7.372   3.315   1.933
    1CAL  O034m19700   7.437   3.797   1.850
    1CAL  O034n19701   7.435   3.640   2.010
    1CAL  O034o19702   7.630   3.717   1.931
    1CAL  O034p19703   6.880   3.220   1.624
    1CAL  O034q19704   6.687   4.748   1.703
    1CAL  O034r19705   7.435   4.599   1.850
    1CAL  O034s19706   7.629   4.520   1.930
    1CAL  O034t19707   6.687   3.299   1.545
    1CAL  O034u19708   6.564   3.395   1.851
    1CAL  O034v19709   6.567   3.238   2.010
    1CAL  O034w19710   6.371   3.316   1.933
    1CAL  O034x19711   6.563   4.200   1.850
    1CAL  O034y19712   6.568   4.042   2.010
    1CAL  O034z19713   6.872   3.928   1.317
    1CAL  O035019714   7.567   3.237   2.010
    1CAL  O035119715   7.565   3.395   1.851
    1CAL  O035219716   6.434   3.640   2.010
    1CAL  O035319717   6.436   3.798   1.851
    1CAL  O035419718   7.687   3.299   1.545
    1CAL  O035519719   7.687   4.748   1.703
    1CAL  O035619720   7.880   3.220   1.624
    1CAL  O035719721   6.380   3.221   1.624
    1CAL  O035819722   6.187   4.748   1.703
    1CAL  O035919723   6.186   3.299   1.545
    1CAL  O035A19724   7.187   3.299   1.545
    1CAL  O035B19725   7.187   4.748   1.703
    1CAL  O035C19726   7.380   3.221   1.624
    1CAL  O035D19727   7.065   4.007   1.238
    1CAL  O035E19728   7.816   3.702   1.545
    1CAL  O035F19729   6.821   4.693   2.159
    1CAL  O035G19730   6.812   4.541   2.325
    1CAL  O035H19731   6.622   4.625   2.239
    1CAL  O035I19732   6.679   4.292   2.158
    1CAL  O035J19733   6.688   4.141   2.324
    1CAL  O035K19734   6.878   4.223   2.237
    1CAL  O035L19735   6.878   3.420   2.238
    1CAL  O035M19736   6.688   3.337   2.325
    1CAL  O035N19737   6.679   3.488   2.159
    1CAL  O035O19738   6.622   3.822   2.238
    1CAL  O035P19739   6.812   3.738   2.324
    1CAL  O035Q19740   6.821   3.890   2.159
    1CAL  O035R19741   7.680   4.292   2.158
    1CAL  O035S19742   7.878   4.223   2.238
    1CAL  O035T19743   7.688   4.140   2.324
    1CAL  O035U19744   7.623   4.624   2.238
    1CAL  O035V19745   7.812   4.541   2.324
    1CAL  O035W19746   7.821   4.693   2.159
    1CAL  O035X19747   7.679   3.488   2.159
    1CAL  O035Y19748   7.878   3.420   2.238
    1CAL  O035Z19749   7.688   3.337   2.325
    1CAL  O035a19750   7.622   3.821   2.238
    1CAL  O035b19751   7.812   3.738   2.324
    1CAL  O035c19752   7.821   3.890   2.159
    1CAL  O035d19753   7.312   4.541   2.325
    1CAL  O035e19754   7.122   4.624   2.239
    1CAL  O035f19755   7.321   4.692   2.159
    1CAL  O035g19756   7.180   4.291   2.159
    1CAL  O035h19757   7.189   4.139   2.325
    1CAL  O035i19758   7.379   4.223   2.239
    1CAL  O035j19759   7.312   3.738   2.325
    1CAL  O035k19760   7.321   3.889   2.159
    1CAL  O035l19761   7.122   3.822   2.238
    1CAL  O035m19762   7.180   3.488   2.160
    1CAL  O035n19763   7.188   3.336   2.325
    1CAL  O035o19764   7.378   3.420   2.240
    1CAL  O035p19765   6.311   4.541   2.326
    1CAL  O035q19766   6.122   4.625   2.239
    1CAL  O035r19767   6.321   4.692   2.160
    1CAL  O035s19768   6.180   4.291   2.160
    1CAL  O035t19769   6.189   4.139   2.325
    1CAL  O035u19770   6.379   4.223   2.241
    1CAL  O035v19771   6.311   3.739   2.326
    1CAL  O035w19772   6.122   3.822   2.238
    1CAL  O035x19773   6.321   3.890   2.159
    1CAL  O035y19774   6.378   3.420   2.241
    1CAL  O035z19775   6.188   3.336   2.326
    1CAL  O036019776   6.180   3.488   2.161
    1CAL  Ca10z19777   7.003   4.023   2.236
    1CAL  Ca11019778   7.751   3.727   1.317
    1CAL  Ca11119779   7.497   4.424   2.237
    1CAL  Ca11219780   6.003   4.023   2.237
    1CAL  Ca11319781   6.751   4.720   1.932
    1CAL  Ca11419782   7.751   4.129   1.317
    1CAL  Ca11519783   7.501   3.824   1.624
    1CAL  Ca11619784   7.501   4.626   1.624
    1CAL  Ca11719785   6.250   4.319   1.931
    1CAL  Ca11819786   7.001   4.626   1.624
    1CAL  Ca11919787   6.503   3.220   2.237
    1CAL  Ca11A19788   6.251   3.727   1.317
    1CAL  Ca11B19789   6.251   3.918   1.932
    1CAL  Ca11C19790   7.998   3.621   2.237
    1CAL  Ca11D19791   7.998   4.424   2.237
    1CAL  Ca11E19792   7.750   4.319   1.930
    1CAL  Ca11F19793   7.251   3.325   1.317
    1CAL  Ca11G19794   8.001   4.626   1.624
    1CAL  Ca11H19795   7.751   3.325   1.317
    1CAL  Ca11I19796   6.496   3.622   2.237
    1CAL  Ca11J19797   6.003   3.220   2.238
    1CAL  Ca11K19798   7.752   3.918   1.932
    1CAL  Ca11L19799   6.251   4.129   1.317
    1CAL  Ca11M19800   8.001   3.824   1.624
    1CAL  Ca11N19801   7.501   4.225   1.623
    1CAL  Ca11O19802   6.251   4.721   1.932
    1CAL  Ca11P19803   7.751   4.530   1.318
    1CAL  Ca11Q19804   6.501   4.225   1.623
    1CAL  Ca11R19805   6.497   4.425   2.237
    1CAL  Ca11S19806   8.001   3.422   1.624
    1CAL  Ca11T19807   6.501   4.626   1.624
    1CAL  Ca11U19808   7.497   3.621   2.237
    1CAL  Ca11V19809   7.251   4.129   1.317
    1CAL  Ca11W19810   6.751   4.129   1.317
    1CAL  Ca11X19811   7.001   3.422   1.624
    1CAL  Ca11Y19812   7.001   4.225   1.623
    1CAL  Ca11Z19813   6.501   3.824   1.624
    1CAL  Ca11a19814   7.001   3.824   1.624
    1CAL  Ca11b19815   6.750   4.319   1.931
    1CAL  Ca11c19816   6.251   3.325   1.317
    1CAL  Ca11d19817   6.751   3.727   1.317
    1CAL  Ca11e19818   7.251   3.727   1.317
    1CAL  Ca11f19819   7.250   4.319   1.931
    1CAL  Ca11g19820   7.251   4.720   1.932
    1CAL  Ca11h19821   7.750   3.516   1.932
    1CAL  Ca11i19822   7.003   3.220   2.237
    1CAL  Ca11j19823   6.749   3.516   1.932
    1CAL  Ca11k19824   6.504   4.023   2.236
    1CAL  Ca11l19825   6.501   3.422   1.624
    1CAL  Ca11m19826   6.751   3.325   1.317
    1CAL  Ca11n19827   7.251   4.530   1.318
    1CAL  Ca11o19828   7.250   3.516   1.932
    1CAL  Ca11p19829   6.997   3.621   2.237
    1CAL  Ca11q19830   6.751   4.530   1.318
    1CAL  Ca11r19831   6.997   4.424   2.237
    1CAL  Ca11s19832   6.251   4.530   1.318
    1CAL  Ca11t19833   7.501   3.422   1.624
    1CAL  Ca11u19834   7.504   4.023   2.236
    1CAL  Ca11v19835   7.503   3.219   2.237
    1CAL  Ca11w19836   6.751   3.918   1.932
    1CAL  Ca11x19837   7.751   4.721   1.932
    1CAL  Ca11y19838   7.251   3.918   1.932
    1CAL  Ca11z19839   6.250   3.516   1.932
    1CAL  Ca12019840   8.001   4.225   1.623
    1CAL  C012119841   8.001   4.730   2.545
    1CAL  C012219842   7.251   3.220   2.852
    1CAL  C012319843   6.251   3.220   2.852
    1CAL  C012419844   7.500   3.718   3.158
    1CAL  C012519845   7.500   4.521   3.158
    1CAL  C012619846   6.751   3.220   2.852
    1CAL  C012719847   7.001   3.928   2.545
    1CAL  C012819848   7.251   4.425   2.849
    1CAL  C012919849   6.751   4.425   2.850
    1CAL  C012A19850   6.501   4.120   3.159
    1CAL  C012B19851   6.501   3.526   2.545
    1CAL  C012C19852   7.001   4.330   2.545
    1CAL  C012D19853   7.001   3.526   2.545
    1CAL  C012E19854   6.251   3.623   2.852
    1CAL  C012F19855   6.501   3.316   3.159
    1CAL  C012G19856   7.001   4.120   3.158
    1CAL  C012H19857   7.751   3.220   2.852
    1CAL  C012I19858   7.501   3.316   3.159
    1CAL  C012J19859   6.251   4.025   2.852
    1CAL  C012K19860   8.000   3.718   3.159
    1CAL  C012L19861   8.001   4.120   3.158
    1CAL  C012M19862   8.001   3.526   2.545
    1CAL  C012N19863   8.001   4.330   2.545
    1CAL  C012O19864   6.251   4.425   2.850
    1CAL  C012P19865   6.500   3.718   3.158
    1CAL  C012Q19866   7.501   3.928   2.545
    1CAL  C012R19867   8.001   3.928   2.545
    1CAL  C012S19868   7.751   3.623   2.852
    1CAL  C012T19869   7.251   3.623   2.852
    1CAL  C012U19870   7.501   3.526   2.545
    1CAL  C012V19871   7.501   4.120   3.158
    1CAL  C012W19872   6.499   4.521   3.158
    1CAL  C012X19873   7.501   4.730   2.545
    1CAL  C012Y19874   6.751   3.623   2.852
    1CAL  C012Z19875   7.251   4.025   2.852
    1CAL  C012a19876   6.501   4.330   2.545
    1CAL  C012b19877   7.751   4.425   2.849
    1CAL  C012c19878   7.001   4.730   2.545
    1CAL  C012d19879   8.000   4.521   3.159
    1CAL  C012e19880   7.001   3.316   3.158
    1CAL  C012f19881   7.000   4.521   3.158
    1CAL  C012g19882   7.000   3.718   3.159
    1CAL  C012h19883   7.751   4.025   2.852
    1CAL  C012i19884   6.501   4.730   2.545
    1CAL  C012j19885   7.501   4.330   2.545
    1CAL  C012k19886   6.501   3.928   2.545
    1CAL  C012l19887   6.751   4.025   2.852
    1CAL  C012m19888   8.001   3.316   3.159
    1CAL  C012n19889   6.752   3.816   3.469
    1CAL  C012o19890   6.748   3.415   3.469
    1CAL  C012p19891   6.748   4.218   3.468
    1CAL  C012q19892   6.752   4.619   3.469
    1CAL  C012r19893   7.752   3.816   3.469
    1CAL  C012s19894   7.748   3.415   3.469
    1CAL  C012t19895   7.752   4.619   3.469
    1CAL  C012u19896   7.749   4.218   3.468
    1CAL  C012v19897   7.252   4.619   3.469
    1CAL  C012w19898   7.249   4.217   3.469
    1CAL  C012x19899   7.252   3.816   3.469
    1CAL  C012y19900   7.248   3.414   3.470
    1CAL  C012z19901   6.252   4.619   3.470
    1CAL  C013019902   6.249   4.217   3.470
    1CAL  C013119903   6.252   3.817   3.469
    1CAL  C013219904   6.248   3.414   3.471
    1CAL  O036119905   6.186   3.947   2.931
    1CAL  O036219906   7.187   4.104   2.773
    1CAL  O036319907   7.186   3.947   2.931
    1CAL  O036419908   7.380   4.025   2.853
    1CAL  O036519909   6.565   4.651   2.624
    1CAL  O036619910   6.372   4.731   2.544
    1CAL  O036719911   6.565   4.007   2.466
    1CAL  O036819912   6.687   4.104   2.773
    1CAL  O036919913   6.686   3.947   2.931
    1CAL  O036A19914   6.880   4.025   2.853
    1CAL  O036B19915   6.566   4.808   2.466
    1CAL  O036C19916   6.565   3.850   2.624
    1CAL  O036D19917   6.372   3.928   2.545
    1CAL  O036E19918   7.129   4.520   3.159
    1CAL  O036F19919   6.936   4.599   3.078
    1CAL  O036G19920   6.937   3.797   3.078
    1CAL  O036H19921   6.934   3.640   3.238
    1CAL  O036I19922   7.129   3.717   3.160
    1CAL  O036J19923   6.934   4.443   3.238
    1CAL  O036K19924   6.622   3.623   2.852
    1CAL  O036L19925   7.064   4.199   3.078
    1CAL  O036M19926   7.123   4.425   2.849
    1CAL  O036N19927   7.315   4.346   2.929
    1CAL  O036O19928   7.316   4.503   2.771
    1CAL  O036P19929   6.437   3.447   2.624
    1CAL  O036Q19930   6.436   3.604   2.466
    1CAL  O036R19931   6.622   4.425   2.849
    1CAL  O036S19932   6.815   4.346   2.929
    1CAL  O036T19933   6.816   4.503   2.771
    1CAL  O036U19934   6.315   3.702   2.773
    1CAL  O036V19935   6.815   3.544   2.931
    1CAL  O036W19936   6.937   4.409   2.465
    1CAL  O036X19937   7.130   4.330   2.545
    1CAL  O036Y19938   6.315   3.544   2.932
    1CAL  O036Z19939   6.122   3.623   2.852
    1CAL  O036a19940   6.815   3.702   2.773
    1CAL  O036b19941   6.937   3.605   2.465
    1CAL  O036c19942   6.937   3.447   2.624
    1CAL  O036d19943   7.130   3.526   2.545
    1CAL  O036e19944   6.871   4.119   3.159
    1CAL  O036f19945   7.067   4.042   3.237
    1CAL  O036g19946   6.936   4.252   2.624
    1CAL  O036h19947   7.687   4.104   2.773
    1CAL  O036i19948   7.686   3.947   2.931
    1CAL  O036j19949   7.880   4.025   2.853
    1CAL  O036k19950   7.935   4.442   3.238
    1CAL  O036l19951   7.937   3.797   3.079
    1CAL  O036m19952   7.935   3.639   3.238
    1CAL  O036n19953   6.129   4.520   3.160
    1CAL  O036o19954   6.065   3.395   3.079
    1CAL  O036p19955   7.437   4.409   2.465
    1CAL  O036q19956   7.436   4.252   2.624
    1CAL  O036r19957   7.630   4.330   2.545
    1CAL  O036s19958   6.066   3.238   3.239
    1CAL  O036t19959   7.435   4.443   3.238
    1CAL  O036u19960   6.066   4.808   2.466
    1CAL  O036v19961   6.065   4.651   2.624
    1CAL  O036w19962   6.872   4.731   2.544
    1CAL  O036x19963   7.872   4.119   3.160
    1CAL  O036y19964   7.937   3.447   2.624
    1CAL  O036z19965   7.065   3.395   3.079
    1CAL  O037019966   6.437   4.409   2.465
    1CAL  O037119967   6.436   4.252   2.624
    1CAL  O037219968   6.630   4.330   2.545
    1CAL  O037319969   7.066   3.237   3.238
    1CAL  O037419970   6.434   4.443   3.238
    1CAL  O037519971   6.872   3.316   3.159
    1CAL  O037619972   7.873   3.928   2.545
    1CAL  O037719973   7.066   4.808   2.466
    1CAL  O037819974   7.065   4.651   2.624
    1CAL  O037919975   7.623   4.425   2.849
    1CAL  O037A19976   7.815   4.346   2.929
    1CAL  O037B19977   7.816   4.503   2.770
    1CAL  O037C19978   7.938   4.409   2.465
    1CAL  O037D19979   7.936   4.252   2.624
    1CAL  O037E19980   7.937   3.605   2.465
    1CAL  O037F19981   6.630   3.526   2.544
    1CAL  O037G19982   6.380   4.025   2.853
    1CAL  O037H19983   6.371   4.119   3.162
    1CAL  O037I19984   7.066   3.850   2.624
    1CAL  O037J19985   7.565   4.651   2.624
    1CAL  O037K19986   7.566   4.808   2.466
    1CAL  O037L19987   7.623   3.623   2.852
    1CAL  O037M19988   7.816   3.544   2.931
    1CAL  O037N19989   7.373   4.731   2.544
    1CAL  O037O19990   7.122   3.623   2.852
    1CAL  O037P19991   7.315   3.702   2.773
    1CAL  O037Q19992   6.629   4.520   3.159
    1CAL  O037R19993   7.437   3.604   2.466
    1CAL  O037S19994   7.437   3.447   2.624
    1CAL  O037T19995   7.630   3.526   2.544
    1CAL  O037U19996   7.372   4.119   3.161
    1CAL  O037V19997   7.567   4.042   3.237
    1CAL  O037W19998   7.316   3.544   2.931
    1CAL  O037X19999   7.564   4.200   3.078
    1CAL  O037Y20000   6.066   3.850   2.624
    1CAL  O037Z20001   7.566   3.850   2.624
    1CAL  O037a20002   6.187   4.104   2.773
    1CAL  O037b20003   6.064   4.200   3.078
    1CAL  O037c20004   6.066   4.042   3.238
    1CAL  O037d20005   6.129   3.717   3.160
    1CAL  O037e20006   6.130   3.526   2.545
    1CAL  O037f20007   6.129   4.330   2.545
    1CAL  O037g20008   7.565   4.007   2.466
    1CAL  O037h20009   6.316   4.503   2.771
    1CAL  O037i20010   7.873   4.731   2.544
    1CAL  O037j20011   7.872   3.316   3.160
    1CAL  O037k20012   6.122   4.425   2.849
    1CAL  O037l20013   7.936   4.599   3.078
    1CAL  O037m20014   6.065   4.007   2.466
    1CAL  O037n20015   7.373   3.928   2.545
    1CAL  O037o20016   6.315   4.346   2.929
    1CAL  O037p20017   6.435   4.600   3.078
    1CAL  O037q20018   6.629   3.717   3.159
    1CAL  O037r20019   7.372   3.315   3.161
    1CAL  O037s20020   7.437   3.797   3.078
    1CAL  O037t20021   7.435   3.640   3.238
    1CAL  O037u20022   7.630   3.717   3.159
    1CAL  O037v20023   6.880   3.220   2.852
    1CAL  O037w20024   6.687   4.748   2.931
    1CAL  O037x20025   7.435   4.599   3.078
    1CAL  O037y20026   7.629   4.520   3.158
    1CAL  O037z20027   6.687   3.299   2.773
    1CAL  O038020028   6.564   3.395   3.079
    1CAL  O038120029   6.567   3.238   3.238
    1CAL  O038220030   6.371   3.316   3.161
    1CAL  O038320031   6.563   4.200   3.078
    1CAL  O038420032   6.568   4.042   3.238
    1CAL  O038520033   6.872   3.928   2.545
    1CAL  O038620034   7.567   3.237   3.238
    1CAL  O038720035   7.565   3.395   3.079
    1CAL  O038820036   6.434   3.640   3.238
    1CAL  O038920037   6.436   3.798   3.079
    1CAL  O038A20038   7.687   3.299   2.773
    1CAL  O038B20039   7.687   4.748   2.931
    1CAL  O038C20040   7.880   3.220   2.852
    1CAL  O038D20041   6.380   3.221   2.852
    1CAL  O038E20042   6.187   4.748   2.931
    1CAL  O038F20043   6.186   3.299   2.773
    1CAL  O038G20044   7.187   3.299   2.773
    1CAL  O038H20045   7.187   4.748   2.931
    1CAL  O038I20046   7.380   3.221   2.852
    1CAL  O038J20047   7.065   4.007   2.466
    1CAL  O038K20048   7.816   3.702   2.773
    1CAL  O038L20049   6.821   4.693   3.387
    1CAL  O038M20050   6.812   4.541   3.553
    1CAL  O038N20051   6.622   4.625   3.467
    1CAL  O038O20052   6.679   4.292   3.386
    1CAL  O038P20053   6.688   4.141   3.552
    1CAL  O038Q20054   6.878   4.223   3.465
    1CAL  O038R20055   6.878   3.420   3.466
    1CAL  O038S20056   6.688   3.337   3.553
    1CAL  O038T20057   6.679   3.488   3.387
    1CAL  O038U20058   6.622   3.822   3.466
    1CAL  O038V20059   6.812   3.738   3.552
    1CAL  O038W20060   6.821   3.890   3.387
    1CAL  O038X20061   7.680   4.292   3.386
    1CAL  O038Y20062   7.878   4.223   3.466
    1CAL  O038Z20063   7.688   4.140   3.552
    1CAL  O038a20064   7.623   4.624   3.466
    1CAL  O038b20065   7.812   4.541   3.552
    1CAL  O038c20066   7.821   4.693   3.387
    1CAL  O038d20067   7.679   3.488   3.387
    1CAL  O038e20068   7.878   3.420   3.466
    1CAL  O038f20069   7.688   3.337   3.553
    1CAL  O038g20070   7.622   3.821   3.466
    1CAL  O038h20071   7.812   3.738   3.552
    1CAL  O038i20072   7.821   3.890   3.387
    1CAL  O038j20073   7.312   4.541   3.553
    1CAL  O038k20074   7.122   4.624   3.467
    1CAL  O038l20075   7.321   4.692   3.387
    1CAL  O038m20076   7.180   4.291   3.387
    1CAL  O038n20077   7.189   4.139   3.553
    1CAL  O038o20078   7.379   4.223   3.467
    1CAL  O038p20079   7.312   3.738   3.553
    1CAL  O038q20080   7.321   3.889   3.387
    1CAL  O038r20081   7.122   3.822   3.466
    1CAL  O038s20082   7.180   3.488   3.388
    1CAL  O038t20083   7.188   3.336   3.553
    1CAL  O038u20084   7.378   3.420   3.468
    1CAL  O038v20085   6.311   4.541   3.554
    1CAL  O038w20086   6.122   4.625   3.467
    1CAL  O038x20087   6.321   4.692   3.388
    1CAL  O038y20088   6.180   4.291   3.388
    1CAL  O038z20089   6.189   4.139   3.553
    1CAL  O039020090   6.379   4.223   3.469
    1CAL  O039120091   6.311   3.739   3.554
    1CAL  O039220092   6.122   3.822   3.466
    1CAL  O039320093   6.321   3.890   3.387
    1CAL  O039420094   6.378   3.420   3.469
    1CAL  O039520095   6.188   3.336   3.554
    1CAL  O039620096   6.180   3.488   3.389
    1CAL  Ca12120097   7.003   4.023   3.464
    1CAL  Ca12220098   7.751   3.727   2.545
    1CAL  Ca12320099   7.497   4.424   3.465
    1CAL  Ca12420100   6.003   4.023   3.465
    1CAL  Ca12520101   6.751   4.720   3.160
    1CAL  Ca12620102   7.751   4.129   2.545
    1CAL  Ca12720103   7.501   3.824   2.852
    1CAL  Ca12820104   7.501   4.626   2.852
    1CAL  Ca12920105   6.250   4.319   3.159
    1CAL  Ca12A20106   7.001   4.626   2.852
    1CAL  Ca12B20107   6.503   3.220   3.465
    1CAL  Ca12C20108   6.251   3.727   2.545
    1CAL  Ca12D20109   6.251   3.918   3.160
    1CAL  Ca12E20110   7.998   3.621   3.465
    1CAL  Ca12F20111   7.998   4.424   3.465
    1CAL  Ca12G20112   7.750   4.319   3.158
    1CAL  Ca12H20113   7.251   3.325   2.545
    1CAL  Ca12I20114   8.001   4.626   2.852
    1CAL  Ca12J20115   7.751   3.325   2.545
    1CAL  Ca12K20116   6.496   3.622   3.465
    1CAL  Ca12L20117   6.003   3.220   3.466
    1CAL  Ca12M20118   7.752   3.918   3.160
    1CAL  Ca12N20119   6.251   4.129   2.545
    1CAL  Ca12O20120   8.001   3.824   2.852
    1CAL  Ca12P20121   7.501   4.225   2.851
    1CAL  Ca12Q20122   6.251   4.721   3.160
    1CAL  Ca12R20123   7.751   4.530   2.546
    1CAL  Ca12S20124   6.501   4.225   2.851
    1CAL  Ca12T20125   6.497   4.425   3.465
    1CAL  Ca12U20126   8.001   3.422   2.852
    1CAL  Ca12V20127   6.501   4.626   2.852
    1CAL  Ca12W20128   7.497   3.621   3.465
    1CAL  Ca12X20129   7.251   4.129   2.545
    1CAL  Ca12Y20130   6.751   4.129   2.545
    1CAL  Ca12Z20131   7.001   3.422   2.852
    1CAL  Ca12a20132   7.001   4.225   2.851
    1CAL  Ca12b20133   6.501   3.824   2.852
    1CAL  Ca12c20134   7.001   3.824   2.852
    1CAL  Ca12d20135   6.750   4.319   3.159
    1CAL  Ca12e20136   6.251   3.325   2.545
    1CAL  Ca12f20137   6.751   3.727   2.545
    1CAL  Ca12g20138   7.251   3.727   2.545
    1CAL  Ca12h20139   7.250   4.319   3.159
    1CAL  Ca12i20140   7.251   4.720   3.160
    1CAL  Ca12j20141   7.750   3.516   3.160
    1CAL  Ca12k20142   7.003   3.220   3.465
    1CAL  Ca12l20143   6.749   3.516   3.160
    1CAL  Ca12m20144   6.504   4.023   3.464
    1CAL  Ca12n20145   6.501   3.422   2.852
    1CAL  Ca12o20146   6.751   3.325   2.545
    1CAL  Ca12p20147   7.251   4.530   2.546
    1CAL  Ca12q20148   7.250   3.516   3.160
    1CAL  Ca12r20149   6.997   3.621   3.465
    1CAL  Ca12s20150   6.751   4.530   2.546
    1CAL  Ca12t20151   6.997   4.424   3.465
    1CAL  Ca12u20152   6.251   4.530   2.546
    1CAL  Ca12v20153   7.501   3.422   2.852
    1CAL  Ca12w20154   7.504   4.023   3.464
    1CAL  Ca12x20155   7.503   3.219   3.465
    1CAL  Ca12y20156   6.751   3.918   3.160
    1CAL  Ca12z20157   7.751   4.721   3.160
    1CAL  Ca13020158   7.251   3.918   3.160
    1CAL  Ca13120159   6.250   3.516   3.160
    1CAL  Ca13220160   8.001   4.225   2.851
    1CAL  C013320161   8.001   6.336   0.089
    1CAL  C013420162   7.251   4.826   0.396
    1CAL  C013520163   6.251   4.826   0.396
    1CAL  C013620164   7.500   5.324   0.702
    1CAL  C013720165   7.500   6.127   0.702
    1CAL  C013820166   6.751   4.826   0.396
    1CAL  C013920167   7.001   5.534   0.089
    1CAL  C013A20168   7.251   6.031   0.393
    1CAL  C013B20169   6.751   6.031   0.394
    1CAL  C013C20170   6.501   5.726   0.703
    1CAL  C013D20171   6.501   5.132   0.089
    1CAL  C013E20172   7.001   5.936   0.089
    1CAL  C013F20173   7.001   5.132   0.089
    1CAL  C013G20174   6.251   5.229   0.396
    1CAL  C013H20175   6.501   4.922   0.703
    1CAL  C013I20176   7.001   5.726   0.702
    1CAL  C013J20177   7.751   4.826   0.396
    1CAL  C013K20178   7.501   4.922   0.703
    1CAL  C013L20179   6.251   5.631   0.396
    1CAL  C013M20180   8.000   5.324   0.703
    1CAL  C013N20181   8.001   5.726   0.702
    1CAL  C013O20182   8.001   5.132   0.089
    1CAL  C013P20183   8.001   5.936   0.089
    1CAL  C013Q20184   6.251   6.031   0.394
    1CAL  C013R20185   6.500   5.324   0.702
    1CAL  C013S20186   7.501   5.534   0.089
    1CAL  C013T20187   8.001   5.534   0.089
    1CAL  C013U20188   7.751   5.229   0.396
    1CAL  C013V20189   7.251   5.229   0.396
    1CAL  C013W20190   7.501   5.132   0.089
    1CAL  C013X20191   7.501   5.726   0.702
    1CAL  C013Y20192   6.499   6.127   0.702
    1CAL  C013Z20193   7.501   6.336   0.089
    1CAL  C013a20194   6.751   5.229   0.396
    1CAL  C013b20195   7.251   5.631   0.396
    1CAL  C013c20196   6.501   5.936   0.089
    1CAL  C013d20197   7.751   6.031   0.393
    1CAL  C013e20198   7.001   6.336   0.089
    1CAL  C013f20199   8.000   6.127   0.703
    1CAL  C013g20200   7.001   4.922   0.702
    1CAL  C013h20201   7.000   6.127   0.702
    1CAL  C013i20202   7.000   5.324   0.703
    1CAL  C013j20203   7.751   5.631   0.396
    1CAL  C013k20204   6.501   6.336   0.089
    1CAL  C013l20205   7.501   5.936   0.089
    1CAL  C013m20206   6.501   5.534   0.089
    1CAL  C013n20207   6.751   5.631   0.396
    1CAL  C013o20208   8.001   4.922   0.703
    1CAL  C013p20209   6.752   5.422   1.013
    1CAL  C013q20210   6.748   5.021   1.013
    1CAL  C013r20211   6.748   5.824   1.012
    1CAL  C013s20212   6.752   6.225   1.013
    1CAL  C013t20213   7.752   5.422   1.013
    1CAL  C013u20214   7.748   5.021   1.013
    1CAL  C013v20215   7.752   6.225   1.013
    1CAL  C013w20216   7.749   5.824   1.012
    1CAL  C013x20217   7.252   6.225   1.013
    1CAL  C013y20218   7.249   5.823   1.013
    1CAL  C013z20219   7.252   5.422   1.013
    1CAL  C014020220   7.248   5.020   1.014
    1CAL  C014120221   6.252   6.225   1.014
    1CAL  C014220222   6.249   5.823   1.014
    1CAL  C014320223   6.252   5.423   1.013
    1CAL  C014420224   6.248   5.020   1.015
    1CAL  O039720225   6.186   5.553   0.475
    1CAL  O039820226   7.187   5.710   0.317
    1CAL  O039920227   7.186   5.553   0.475
    1CAL  O039A20228   7.380   5.631   0.397
    1CAL  O039B20229   6.565   6.257   0.168
    1CAL  O039C20230   6.372   6.337   0.088
    1CAL  O039D20231   6.565   5.613   0.010
    1CAL  O039E20232   6.687   5.710   0.317
    1CAL  O039F20233   6.686   5.553   0.475
    1CAL  O039G20234   6.880   5.631   0.397
    1CAL  O039H20235   6.566   6.414   0.010
    1CAL  O039I20236   6.565   5.456   0.168
    1CAL  O039J20237   6.372   5.534   0.089
    1CAL  O039K20238   7.129   6.126   0.703
    1CAL  O039L20239   6.936   6.205   0.622
    1CAL  O039M20240   6.937   5.403   0.622
    1CAL  O039N20241   6.934   5.246   0.782
    1CAL  O039O20242   7.129   5.323   0.704
    1CAL  O039P20243   6.934   6.049   0.782
    1CAL  O039Q20244   6.622   5.229   0.396
    1CAL  O039R20245   7.064   5.805   0.622
    1CAL  O039S20246   7.123   6.031   0.393
    1CAL  O039T20247   7.315   5.952   0.473
    1CAL  O039U20248   7.316   6.109   0.315
    1CAL  O039V20249   6.437   5.053   0.168
    1CAL  O039W20250   6.436   5.210   0.010
    1CAL  O039X20251   6.622   6.031   0.393
    1CAL  O039Y20252   6.815   5.952   0.473
    1CAL  O039Z20253   6.816   6.109   0.315
    1CAL  O039a20254   6.315   5.308   0.317
    1CAL  O039b20255   6.815   5.150   0.475
    1CAL  O039c20256   6.937   6.015   0.009
    1CAL  O039d20257   7.130   5.936   0.089
    1CAL  O039e20258   6.315   5.150   0.476
    1CAL  O039f20259   6.122   5.229   0.396
    1CAL  O039g20260   6.815   5.308   0.317
    1CAL  O039h20261   6.937   5.211   0.009
    1CAL  O039i20262   6.937   5.053   0.168
    1CAL  O039j20263   7.130   5.132   0.089
    1CAL  O039k20264   6.871   5.725   0.703
    1CAL  O039l20265   7.067   5.648   0.781
    1CAL  O039m20266   6.936   5.858   0.168
    1CAL  O039n20267   7.687   5.710   0.317
    1CAL  O039o20268   7.686   5.553   0.475
    1CAL  O039p20269   7.880   5.631   0.397
    1CAL  O039q20270   7.935   6.048   0.782
    1CAL  O039r20271   7.937   5.403   0.623
    1CAL  O039s20272   7.935   5.245   0.782
    1CAL  O039t20273   6.129   6.126   0.704
    1CAL  O039u20274   6.065   5.001   0.623
    1CAL  O039v20275   7.437   6.015   0.009
    1CAL  O039w20276   7.436   5.858   0.168
    1CAL  O039x20277   7.630   5.936   0.089
    1CAL  O039y20278   6.066   4.844   0.783
    1CAL  O039z20279   7.435   6.049   0.782
    1CAL  O03A020280   6.066   6.414   0.010
    1CAL  O03A120281   6.065   6.257   0.168
    1CAL  O03A220282   6.872   6.337   0.088
    1CAL  O03A320283   7.872   5.725   0.704
    1CAL  O03A420284   7.937   5.053   0.168
    1CAL  O03A520285   7.065   5.001   0.623
    1CAL  O03A620286   6.437   6.015   0.009
    1CAL  O03A720287   6.436   5.858   0.168
    1CAL  O03A820288   6.630   5.936   0.089
    1CAL  O03A920289   7.066   4.843   0.782
    1CAL  O03AA20290   6.434   6.049   0.782
    1CAL  O03AB20291   6.872   4.922   0.703
    1CAL  O03AC20292   7.873   5.534   0.089
    1CAL  O03AD20293   7.066   6.414   0.010
    1CAL  O03AE20294   7.065   6.257   0.168
    1CAL  O03AF20295   7.623   6.031   0.393
    1CAL  O03AG20296   7.815   5.952   0.473
    1CAL  O03AH20297   7.816   6.109   0.314
    1CAL  O03AI20298   7.938   6.015   0.009
    1CAL  O03AJ20299   7.936   5.858   0.168
    1CAL  O03AK20300   7.937   5.211   0.009
    1CAL  O03AL20301   6.630   5.132   0.088
    1CAL  O03AM20302   6.380   5.631   0.397
    1CAL  O03AN20303   6.371   5.725   0.706
    1CAL  O03AO20304   7.066   5.456   0.168
    1CAL  O03AP20305   7.565   6.257   0.168
    1CAL  O03AQ20306   7.566   6.414   0.010
    1CAL  O03AR20307   7.623   5.229   0.396
    1CAL  O03AS20308   7.816   5.150   0.475
    1CAL  O03AT20309   7.373   6.337   0.088
    1CAL  O03AU20310   7.122   5.229   0.396
    1CAL  O03AV20311   7.315   5.308   0.317
    1CAL  O03AW20312   6.629   6.126   0.703
    1CAL  O03AX20313   7.437   5.210   0.010
    1CAL  O03AY20314   7.437   5.053   0.168
    1CAL  O03AZ20315   7.630   5.132   0.088
    1CAL  O03Aa20316   7.372   5.725   0.705
    1CAL  O03Ab20317   7.567   5.648   0.781
    1CAL  O03Ac20318   7.316   5.150   0.475
    1CAL  O03Ad20319   7.564   5.806   0.622
    1CAL  O03Ae20320   6.066   5.456   0.168
    1CAL  O03Af20321   7.566   5.456   0.168
    1CAL  O03Ag20322   6.187   5.710   0.317
    1CAL  O03Ah20323   6.064   5.806   0.622
    1CAL  O03Ai20324   6.066   5.648   0.782
    1CAL  O03Aj20325   6.129   5.323   0.704
    1CAL  O03Ak20326   6.130   5.132   0.089
    1CAL  O03Al20327   6.129   5.936   0.089
    1CAL  O03Am20328   7.565   5.613   0.010
    1CAL  O03An20329   6.316   6.109   0.315
    1CAL  O03Ao20330   7.873   6.337   0.088
    1CAL  O03Ap20331   7.872   4.922   0.704
    1CAL  O03Aq20332   6.122   6.031   0.393
    1CAL  O03Ar20333   7.936   6.205   0.622
    1CAL  O03As20334   6.065   5.613   0.010
    1CAL  O03At20335   7.373   5.534   0.089
    1CAL  O03Au20336   6.315   5.952   0.473
    1CAL  O03Av20337   6.435   6.206   0.622
    1CAL  O03Aw20338   6.629   5.323   0.703
    1CAL  O03Ax20339   7.372   4.921   0.705
    1CAL  O03Ay20340   7.437   5.403   0.622
    1CAL  O03Az20341   7.435   5.246   0.782
    1CAL  O03B020342   7.630   5.323   0.703
    1CAL  O03B120343   6.880   4.826   0.396
    1CAL  O03B220344   6.687   6.354   0.475
    1CAL  O03B320345   7.435   6.205   0.622
    1CAL  O03B420346   7.629   6.126   0.702
    1CAL  O03B520347   6.687   4.905   0.317
    1CAL  O03B620348   6.564   5.001   0.623
    1CAL  O03B720349   6.567   4.844   0.782
    1CAL  O03B820350   6.371   4.922   0.705
    1CAL  O03B920351   6.563   5.806   0.622
    1CAL  O03BA20352   6.568   5.648   0.782
    1CAL  O03BB20353   6.872   5.534   0.089
    1CAL  O03BC20354   7.567   4.843   0.782
    1CAL  O03BD20355   7.565   5.001   0.623
    1CAL  O03BE20356   6.434   5.246   0.782
    1CAL  O03BF20357   6.436   5.404   0.623
    1CAL  O03BG20358   7.687   4.905   0.317
    1CAL  O03BH20359   7.687   6.354   0.475
    1CAL  O03BI20360   7.880   4.826   0.396
    1CAL  O03BJ20361   6.380   4.827   0.396
    1CAL  O03BK20362   6.187   6.354   0.475
    1CAL  O03BL20363   6.186   4.905   0.317
    1CAL  O03BM20364   7.187   4.905   0.317
    1CAL  O03BN20365   7.187   6.354   0.475
    1CAL  O03BO20366   7.380   4.827   0.396
    1CAL  O03BP20367   7.065   5.613   0.010
    1CAL  O03BQ20368   7.816   5.308   0.317
    1CAL  O03BR20369   6.821   6.299   0.931
    1CAL  O03BS20370   6.812   6.147   1.097
    1CAL  O03BT20371   6.622   6.231   1.011
    1CAL  O03BU20372   6.679   5.898   0.930
    1CAL  O03BV20373   6.688   5.747   1.096
    1CAL  O03BW20374   6.878   5.829   1.009
    1CAL  O03BX20375   6.878   5.026   1.010
    1CAL  O03BY20376   6.688   4.943   1.097
    1CAL  O03BZ20377   6.679   5.094   0.931
    1CAL  O03Ba20378   6.622   5.428   1.010
    1CAL  O03Bb20379   6.812   5.344   1.096
    1CAL  O03Bc20380   6.821   5.496   0.931
    1CAL  O03Bd20381   7.680   5.898   0.930
    1CAL  O03Be20382   7.878   5.829   1.010
    1CAL  O03Bf20383   7.688   5.746   1.096
    1CAL  O03Bg20384   7.623   6.230   1.010
    1CAL  O03Bh20385   7.812   6.147   1.096
    1CAL  O03Bi20386   7.821   6.299   0.931
    1CAL  O03Bj20387   7.679   5.094   0.931
    1CAL  O03Bk20388   7.878   5.026   1.010
    1CAL  O03Bl20389   7.688   4.943   1.097
    1CAL  O03Bm20390   7.622   5.427   1.010
    1CAL  O03Bn20391   7.812   5.344   1.096
    1CAL  O03Bo20392   7.821   5.496   0.931
    1CAL  O03Bp20393   7.312   6.147   1.097
    1CAL  O03Bq20394   7.122   6.230   1.011
    1CAL  O03Br20395   7.321   6.298   0.931
    1CAL  O03Bs20396   7.180   5.897   0.931
    1CAL  O03Bt20397   7.189   5.745   1.097
    1CAL  O03Bu20398   7.379   5.829   1.011
    1CAL  O03Bv20399   7.312   5.344   1.097
    1CAL  O03Bw20400   7.321   5.495   0.931
    1CAL  O03Bx20401   7.122   5.428   1.010
    1CAL  O03By20402   7.180   5.094   0.932
    1CAL  O03Bz20403   7.188   4.942   1.097
    1CAL  O03C020404   7.378   5.026   1.012
    1CAL  O03C120405   6.311   6.147   1.098
    1CAL  O03C220406   6.122   6.231   1.011
    1CAL  O03C320407   6.321   6.298   0.932
    1CAL  O03C420408   6.180   5.897   0.932
    1CAL  O03C520409   6.189   5.745   1.097
    1CAL  O03C620410   6.379   5.829   1.013
    1CAL  O03C720411   6.311   5.345   1.098
    1CAL  O03C820412   6.122   5.428   1.010
    1CAL  O03C920413   6.321   5.496   0.931
    1CAL  O03CA20414   6.378   5.026   1.013
    1CAL  O03CB20415   6.188   4.942   1.098
    1CAL  O03CC20416   6.180   5.094   0.933
    1CAL  Ca13320417   7.003   5.629   1.008
    1CAL  Ca13420418   7.751   5.333   0.089
    1CAL  Ca13520419   7.497   6.030   1.009
    1CAL  Ca13620420   6.003   5.629   1.009
    1CAL  Ca13720421   6.751   6.326   0.704
    1CAL  Ca13820422   7.751   5.735   0.089
    1CAL  Ca13920423   7.501   5.430   0.396
    1CAL  Ca13A20424   7.501   6.232   0.396
    1CAL  Ca13B20425   6.250   5.925   0.703
    1CAL  Ca13C20426   7.001   6.232   0.396
    1CAL  Ca13D20427   6.503   4.826   1.009
    1CAL  Ca13E20428   6.251   5.333   0.089
    1CAL  Ca13F20429   6.251   5.524   0.704
    1CAL  Ca13G20430   7.998   5.227   1.009
    1CAL  Ca13H20431   7.998   6.030   1.009
    1CAL  Ca13I20432   7.750   5.925   0.702
    1CAL  Ca13J20433   7.251   4.931   0.089
    1CAL  Ca13K20434   8.001   6.232   0.396
    1CAL  Ca13L20435   7.751   4.931   0.089
    1CAL  Ca13M20436   6.496   5.228   1.009
    1CAL  Ca13N20437   6.003   4.826   1.010
    1CAL  Ca13O20438   7.752   5.524   0.704
    1CAL  Ca13P20439   6.251   5.735   0.089
    1CAL  Ca13Q20440   8.001   5.430   0.396
    1CAL  Ca13R20441   7.501   5.831   0.395
    1CAL  Ca13S20442   6.251   6.327   0.704
    1CAL  Ca13T20443   7.751   6.136   0.090
    1CAL  Ca13U20444   6.501   5.831   0.395
    1CAL  Ca13V20445   6.497   6.031   1.009
    1CAL  Ca13W20446   8.001   5.028   0.396
    1CAL  Ca13X20447   6.501   6.232   0.396
    1CAL  Ca13Y20448   7.497   5.227   1.009
    1CAL  Ca13Z20449   7.251   5.735   0.089
    1CAL  Ca13a20450   6.751   5.735   0.089
    1CAL  Ca13b20451   7.001   5.028   0.396
    1CAL  Ca13c20452   7.001   5.831   0.395
    1CAL  Ca13d20453   6.501   5.430   0.396
    1CAL  Ca13e20454   7.001   5.430   0.396
    1CAL  Ca13f20455   6.750   5.925   0.703
    1CAL  Ca13g20456   6.251   4.931   0.089
    1CAL  Ca13h20457   6.751   5.333   0.089
    1CAL  Ca13i20458   7.251   5.333   0.089
    1CAL  Ca13j20459   7.250   5.925   0.703
    1CAL  Ca13k20460   7.251   6.326   0.704
    1CAL  Ca13l20461   7.750   5.122   0.704
    1CAL  Ca13m20462   7.003   4.826   1.009
    1CAL  Ca13n20463   6.749   5.122   0.704
    1CAL  Ca13o20464   6.504   5.629   1.008
    1CAL  Ca13p20465   6.501   5.028   0.396
    1CAL  Ca13q20466   6.751   4.931   0.089
    1CAL  Ca13r20467   7.251   6.136   0.090
    1CAL  Ca13s20468   7.250   5.122   0.704
    1CAL  Ca13t20469   6.997   5.227   1.009
    1CAL  Ca13u20470   6.751   6.136   0.090
    1CAL  Ca13v20471   6.997   6.030   1.009
    1CAL  Ca13w20472   6.251   6.136   0.090
    1CAL  Ca13x20473   7.501   5.028   0.396
    1CAL  Ca13y20474   7.504   5.629   1.008
    1CAL  Ca13z20475   7.503   4.825   1.009
    1CAL  Ca14020476   6.751   5.524   0.704
    1CAL  Ca14120477   7.751   6.327   0.704
    1CAL  Ca14220478   7.251   5.524   0.704
    1CAL  Ca14320479   6.250   5.122   0.704
    1CAL  Ca14420480   8.001   5.831   0.395
    1CAL  C014520481   8.001   6.336   1.317
    1CAL  C014620482   7.251   4.826   1.624
    1CAL  C014720483   6.251   4.826   1.624
    1CAL  C014820484   7.500   5.324   1.930
    1CAL  C014920485   7.500   6.127   1.930
    1CAL  C014A20486   6.751   4.826   1.624
    1CAL  C014B20487   7.001   5.534   1.317
    1CAL  C014C20488   7.251   6.031   1.621
    1CAL  C014D20489   6.751   6.031   1.622
    1CAL  C014E20490   6.501   5.726   1.931
    1CAL  C014F20491   6.501   5.132   1.317
    1CAL  C014G20492   7.001   5.936   1.317
    1CAL  C014H20493   7.001   5.132   1.317
    1CAL  C014I20494   6.251   5.229   1.624
    1CAL  C014J20495   6.501   4.922   1.931
    1CAL  C014K20496   7.001   5.726   1.930
    1CAL  C014L20497   7.751   4.826   1.624
    1CAL  C014M20498   7.501   4.922   1.931
    1CAL  C014N20499   6.251   5.631   1.624
    1CAL  C014O20500   8.000   5.324   1.931
    1CAL  C014P20501   8.001   5.726   1.930
    1CAL  C014Q20502   8.001   5.132   1.317
    1CAL  C014R20503   8.001   5.936   1.317
    1CAL  C014S20504   6.251   6.031   1.622
    1CAL  C014T20505   6.500   5.324   1.930
    1CAL  C014U20506   7.501   5.534   1.317
    1CAL  C014V20507   8.001   5.534   1.317
    1CAL  C014W20508   7.751   5.229   1.624
    1CAL  C014X20509   7.251   5.229   1.624
    1CAL  C014Y20510   7.501   5.132   1.317
    1CAL  C014Z20511   7.501   5.726   1.930
    1CAL  C014a20512   6.499   6.127   1.930
    1CAL  C014b20513   7.501   6.336   1.317
    1CAL  C014c20514   6.751   5.229   1.624
    1CAL  C014d20515   7.251   5.631   1.624
    1CAL  C014e20516   6.501   5.936   1.317
    1CAL  C014f20517   7.751   6.031   1.621
    1CAL  C014g20518   7.001   6.336   1.317
    1CAL  C014h20519   8.000   6.127   1.931
    1CAL  C014i20520   7.001   4.922   1.930
    1CAL  C014j20521   7.000   6.127   1.930
    1CAL  C014k20522   7.000   5.324   1.931
    1CAL  C014l20523   7.751   5.631   1.624
    1CAL  C014m20524   6.501   6.336   1.317
    1CAL  C014n20525   7.501   5.936   1.317
    1CAL  C014o20526   6.501   5.534   1.317
    1CAL  C014p20527   6.751   5.631   1.624
    1CAL  C014q20528   8.001   4.922   1.931
    1CAL  C014r20529   6.752   5.422   2.241
    1CAL  C014s20530   6.748   5.021   2.241
    1CAL  C014t20531   6.748   5.824   2.240
    1CAL  C014u20532   6.752   6.225   2.241
    1CAL  C014v20533   7.752   5.422   2.241
    1CAL  C014w20534   7.748   5.021   2.241
    1CAL  C014x20535   7.752   6.225   2.241
    1CAL  C014y20536   7.749   5.824   2.240
    1CAL  C014z20537   7.252   6.225   2.241
    1CAL  C015020538   7.249   5.823   2.241
    1CAL  C015120539   7.252   5.422   2.241
    1CAL  C015220540   7.248   5.020   2.242
    1CAL  C015320541   6.252   6.225   2.242
    1CAL  C015420542   6.249   5.823   2.242
    1CAL  C015520543   6.252   5.423   2.241
    1CAL  C015620544   6.248   5.020   2.243
    1CAL  O03CD20545   6.186   5.553   1.703
    1CAL  O03CE20546   7.187   5.710   1.545
    1CAL  O03CF20547   7.186   5.553   1.703
    1CAL  O03CG20548   7.380   5.631   1.625
    1CAL  O03CH20549   6.565   6.257   1.396
    1CAL  O03CI20550   6.372   6.337   1.316
    1CAL  O03CJ20551   6.565   5.613   1.238
    1CAL  O03CK20552   6.687   5.710   1.545
    1CAL  O03CL20553   6.686   5.553   1.703
    1CAL  O03CM20554   6.880   5.631   1.625
    1CAL  O03CN20555   6.566   6.414   1.238
    1CAL  O03CO20556   6.565   5.456   1.396
    1CAL  O03CP20557   6.372   5.534   1.317
    1CAL  O03CQ20558   7.129   6.126   1.931
    1CAL  O03CR20559   6.936   6.205   1.850
    1CAL  O03CS20560   6.937   5.403   1.850
    1CAL  O03CT20561   6.934   5.246   2.010
    1CAL  O03CU20562   7.129   5.323   1.932
    1CAL  O03CV20563   6.934   6.049   2.010
    1CAL  O03CW20564   6.622   5.229   1.624
    1CAL  O03CX20565   7.064   5.805   1.850
    1CAL  O03CY20566   7.123   6.031   1.621
    1CAL  O03CZ20567   7.315   5.952   1.701
    1CAL  O03Ca20568   7.316   6.109   1.543
    1CAL  O03Cb20569   6.437   5.053   1.396
    1CAL  O03Cc20570   6.436   5.210   1.238
    1CAL  O03Cd20571   6.622   6.031   1.621
    1CAL  O03Ce20572   6.815   5.952   1.701
    1CAL  O03Cf20573   6.816   6.109   1.543
    1CAL  O03Cg20574   6.315   5.308   1.545
    1CAL  O03Ch20575   6.815   5.150   1.703
    1CAL  O03Ci20576   6.937   6.015   1.237
    1CAL  O03Cj20577   7.130   5.936   1.317
    1CAL  O03Ck20578   6.315   5.150   1.704
    1CAL  O03Cl20579   6.122   5.229   1.624
    1CAL  O03Cm20580   6.815   5.308   1.545
    1CAL  O03Cn20581   6.937   5.211   1.237
    1CAL  O03Co20582   6.937   5.053   1.396
    1CAL  O03Cp20583   7.130   5.132   1.317
    1CAL  O03Cq20584   6.871   5.725   1.931
    1CAL  O03Cr20585   7.067   5.648   2.009
    1CAL  O03Cs20586   6.936   5.858   1.396
    1CAL  O03Ct20587   7.687   5.710   1.545
    1CAL  O03Cu20588   7.686   5.553   1.703
    1CAL  O03Cv20589   7.880   5.631   1.625
    1CAL  O03Cw20590   7.935   6.048   2.010
    1CAL  O03Cx20591   7.937   5.403   1.851
    1CAL  O03Cy20592   7.935   5.245   2.010
    1CAL  O03Cz20593   6.129   6.126   1.932
    1CAL  O03D020594   6.065   5.001   1.851
    1CAL  O03D120595   7.437   6.015   1.237
    1CAL  O03D220596   7.436   5.858   1.396
    1CAL  O03D320597   7.630   5.936   1.317
    1CAL  O03D420598   6.066   4.844   2.011
    1CAL  O03D520599   7.435   6.049   2.010
    1CAL  O03D620600   6.066   6.414   1.238
    1CAL  O03D720601   6.065   6.257   1.396
    1CAL  O03D820602   6.872   6.337   1.316
    1CAL  O03D920603   7.872   5.725   1.932
    1CAL  O03DA20604   7.937   5.053   1.396
    1CAL  O03DB20605   7.065   5.001   1.851
    1CAL  O03DC20606   6.437   6.015   1.237
    1CAL  O03DD20607   6.436   5.858   1.396
    1CAL  O03DE20608   6.630   5.936   1.317
    1CAL  O03DF20609   7.066   4.843   2.010
    1CAL  O03DG20610   6.434   6.049   2.010
    1CAL  O03DH20611   6.872   4.922   1.931
    1CAL  O03DI20612   7.873   5.534   1.317
    1CAL  O03DJ20613   7.066   6.414   1.238
    1CAL  O03DK20614   7.065   6.257   1.396
    1CAL  O03DL20615   7.623   6.031   1.621
    1CAL  O03DM20616   7.815   5.952   1.701
    1CAL  O03DN20617   7.816   6.109   1.542
    1CAL  O03DO20618   7.938   6.015   1.237
    1CAL  O03DP20619   7.936   5.858   1.396
    1CAL  O03DQ20620   7.937   5.211   1.237
    1CAL  O03DR20621   6.630   5.132   1.316
    1CAL  O03DS20622   6.380   5.631   1.625
    1CAL  O03DT20623   6.371   5.725   1.934
    1CAL  O03DU20624   7.066   5.456   1.396
    1CAL  O03DV20625   7.565   6.257   1.396
    1CAL  O03DW20626   7.566   6.414   1.238
    1CAL  O03DX20627   7.623   5.229   1.624
    1CAL  O03DY20628   7.816   5.150   1.703
    1CAL  O03DZ20629   7.373   6.337   1.316
    1CAL  O03Da20630   7.122   5.229   1.624
    1CAL  O03Db20631   7.315   5.308   1.545
    1CAL  O03Dc20632   6.629   6.126   1.931
    1CAL  O03Dd20633   7.437   5.210   1.238
    1CAL  O03De20634   7.437   5.053   1.396
    1CAL  O03Df20635   7.630   5.132   1.316
    1CAL  O03Dg20636   7.372   5.725   1.933
    1CAL  O03Dh20637   7.567   5.648   2.009
    1CAL  O03Di20638   7.316   5.150   1.703
    1CAL  O03Dj20639   7.564   5.806   1.850
    1CAL  O03Dk20640   6.066   5.456   1.396
    1CAL  O03Dl20641   7.566   5.456   1.396
    1CAL  O03Dm20642   6.187   5.710   1.545
    1CAL  O03Dn20643   6.064   5.806   1.850
    1CAL  O03Do20644   6.066   5.648   2.010
    1CAL  O03Dp20645   6.129   5.323   1.932
    1CAL  O03Dq20646   6.130   5.132   1.317
    1CAL  O03Dr20647   6.129   5.936   1.317
    1CAL  O03Ds20648   7.565   5.613   1.238
    1CAL  O03Dt20649   6.316   6.109   1.543
    1CAL  O03Du20650   7.873   6.337   1.316
    1CAL  O03Dv20651   7.872   4.922   1.932
    1CAL  O03Dw20652   6.122   6.031   1.621
    1CAL  O03Dx20653   7.936   6.205   1.850
    1CAL  O03Dy20654   6.065   5.613   1.238
    1CAL  O03Dz20655   7.373   5.534   1.317
    1CAL  O03E020656   6.315   5.952   1.701
    1CAL  O03E120657   6.435   6.206   1.850
    1CAL  O03E220658   6.629   5.323   1.931
    1CAL  O03E320659   7.372   4.921   1.933
    1CAL  O03E420660   7.437   5.403   1.850
    1CAL  O03E520661   7.435   5.246   2.010
    1CAL  O03E620662   7.630   5.323   1.931
    1CAL  O03E720663   6.880   4.826   1.624
    1CAL  O03E820664   6.687   6.354   1.703
    1CAL  O03E920665   7.435   6.205   1.850
    1CAL  O03EA20666   7.629   6.126   1.930
    1CAL  O03EB20667   6.687   4.905   1.545
    1CAL  O03EC20668   6.564   5.001   1.851
    1CAL  O03ED20669   6.567   4.844   2.010
    1CAL  O03EE20670   6.371   4.922   1.933
    1CAL  O03EF20671   6.563   5.806   1.850
    1CAL  O03EG20672   6.568   5.648   2.010
    1CAL  O03EH20673   6.872   5.534   1.317
    1CAL  O03EI20674   7.567   4.843   2.010
    1CAL  O03EJ20675   7.565   5.001   1.851
    1CAL  O03EK20676   6.434   5.246   2.010
    1CAL  O03EL20677   6.436   5.404   1.851
    1CAL  O03EM20678   7.687   4.905   1.545
    1CAL  O03EN20679   7.687   6.354   1.703
    1CAL  O03EO20680   7.880   4.826   1.624
    1CAL  O03EP20681   6.380   4.827   1.624
    1CAL  O03EQ20682   6.187   6.354   1.703
    1CAL  O03ER20683   6.186   4.905   1.545
    1CAL  O03ES20684   7.187   4.905   1.545
    1CAL  O03ET20685   7.187   6.354   1.703
    1CAL  O03EU20686   7.380   4.827   1.624
    1CAL  O03EV20687   7.065   5.613   1.238
    1CAL  O03EW20688   7.816   5.308   1.545
    1CAL  O03EX20689   6.821   6.299   2.159
    1CAL  O03EY20690   6.812   6.147   2.325
    1CAL  O03EZ20691   6.622   6.231   2.239
    1CAL  O03Ea20692   6.679   5.898   2.158
    1CAL  O03Eb20693   6.688   5.747   2.324
    1CAL  O03Ec20694   6.878   5.829   2.237
    1CAL  O03Ed20695   6.878   5.026   2.238
    1CAL  O03Ee20696   6.688   4.943   2.325
    1CAL  O03Ef20697   6.679   5.094   2.159
    1CAL  O03Eg20698   6.622   5.428   2.238
    1CAL  O03Eh20699   6.812   5.344   2.324
    1CAL  O03Ei20700   6.821   5.496   2.159
    1CAL  O03Ej20701   7.680   5.898   2.158
    1CAL  O03Ek20702   7.878   5.829   2.238
    1CAL  O03El20703   7.688   5.746   2.324
    1CAL  O03Em20704   7.623   6.230   2.238
    1CAL  O03En20705   7.812   6.147   2.324
    1CAL  O03Eo20706   7.821   6.299   2.159
    1CAL  O03Ep20707   7.679   5.094   2.159
    1CAL  O03Eq20708   7.878   5.026   2.238
    1CAL  O03Er20709   7.688   4.943   2.325
    1CAL  O03Es20710   7.622   5.427   2.238
    1CAL  O03Et20711   7.812   5.344   2.324
    1CAL  O03Eu20712   7.821   5.496   2.159
    1CAL  O03Ev20713   7.312   6.147   2.325
    1CAL  O03Ew20714   7.122   6.230   2.239
    1CAL  O03Ex20715   7.321   6.298   2.159
    1CAL  O03Ey20716   7.180   5.897   2.159
    1CAL  O03Ez20717   7.189   5.745   2.325
    1CAL  O03F020718   7.379   5.829   2.239
    1CAL  O03F120719   7.312   5.344   2.325
    1CAL  O03F220720   7.321   5.495   2.159
    1CAL  O03F320721   7.122   5.428   2.238
    1CAL  O03F420722   7.180   5.094   2.160
    1CAL  O03F520723   7.188   4.942   2.325
    1CAL  O03F620724   7.378   5.026   2.240
    1CAL  O03F720725   6.311   6.147   2.326
    1CAL  O03F820726   6.122   6.231   2.239
    1CAL  O03F920727   6.321   6.298   2.160
    1CAL  O03FA20728   6.180   5.897   2.160
    1CAL  O03FB20729   6.189   5.745   2.325
    1CAL  O03FC20730   6.379   5.829   2.241
    1CAL  O03FD20731   6.311   5.345   2.326
    1CAL  O03FE20732   6.122   5.428   2.238
    1CAL  O03FF20733   6.321   5.496   2.159
    1CAL  O03FG20734   6.378   5.026   2.241
    1CAL  O03FH20735   6.188   4.942   2.326
    1CAL  O03FI20736   6.180   5.094   2.161
    1CAL  Ca14520737   7.003   5.629   2.236
    1CAL  Ca14620738   7.751   5.333   1.317
    1CAL  Ca14720739   7.497   6.030   2.237
    1CAL  Ca14820740   6.003   5.629   2.237
    1CAL  Ca14920741   6.751   6.326   1.932
    1CAL  Ca14A20742   7.751   5.735   1.317
    1CAL  Ca14B20743   7.501   5.430   1.624
    1CAL  Ca14C20744   7.501   6.232   1.624
    1CAL  Ca14D20745   6.250   5.925   1.931
    1CAL  Ca14E20746   7.001   6.232   1.624
    1CAL  Ca14F20747   6.503   4.826   2.237
    1CAL  Ca14G20748   6.251   5.333   1.317
    1CAL  Ca14H20749   6.251   5.524   1.932
    1CAL  Ca14I20750   7.998   5.227   2.237
    1CAL  Ca14J20751   7.998   6.030   2.237
    1CAL  Ca14K20752   7.750   5.925   1.930
    1CAL  Ca14L20753   7.251   4.931   1.317
    1CAL  Ca14M20754   8.001   6.232   1.624
    1CAL  Ca14N20755   7.751   4.931   1.317
    1CAL  Ca14O20756   6.496   5.228   2.237
    1CAL  Ca14P20757   6.003   4.826   2.238
    1CAL  Ca14Q20758   7.752   5.524   1.932
    1CAL  Ca14R20759   6.251   5.735   1.317
    1CAL  Ca14S20760   8.001   5.430   1.624
    1CAL  Ca14T20761   7.501   5.831   1.623
    1CAL  Ca14U20762   6.251   6.327   1.932
    1CAL  Ca14V20763   7.751   6.136   1.318
    1CAL  Ca14W20764   6.501   5.831   1.623
    1CAL  Ca14X20765   6.497   6.031   2.237
    1CAL  Ca14Y20766   8.001   5.028   1.624
    1CAL  Ca14Z20767   6.501   6.232   1.624
    1CAL  Ca14a20768   7.497   5.227   2.237
    1CAL  Ca14b20769   7.251   5.735   1.317
    1CAL  Ca14c20770   6.751   5.735   1.317
    1CAL  Ca14d20771   7.001   5.028   1.624
    1CAL  Ca14e20772   7.001   5.831   1.623
    1CAL  Ca14f20773   6.501   5.430   1.624
    1CAL  Ca14g20774   7.001   5.430   1.624
    1CAL  Ca14h20775   6.750   5.925   1.931
    1CAL  Ca14i20776   6.251   4.931   1.317
    1CAL  Ca14j20777   6.751   5.333   1.317
    1CAL  Ca14k20778   7.251   5.333   1.317
    1CAL  Ca14l20779   7.250   5.925   1.931
    1CAL  Ca14m20780   7.251   6.326   1.932
    1CAL  Ca14n20781   7.750   5.122   1.932
    1CAL  Ca14o20782   7.003   4.826   2.237
    1CAL  Ca14p20783   6.749   5.122   1.932
    1CAL  Ca14q20784   6.504   5.629   2.236
    1CAL  Ca14r20785   6.501   5.028   1.624
    1CAL  Ca14s20786   6.751   4.931   1.317
    1CAL  Ca14t20787   7.251   6.136   1.318
    1CAL  Ca14u20788   7.250   5.122   1.932
    1CAL  Ca14v20789   6.997   5.227   2.237
    1CAL  Ca14w20790   6.751   6.136   1.318
    1CAL  Ca14x20791   6.997   6.030   2.237
    1CAL  Ca14y20792   6.251   6.136   1.318
    1CAL  Ca14z20793   7.501   5.028   1.624
    1CAL  Ca15020794   7.504   5.629   2.236
    1CAL  Ca15120795   7.503   4.825   2.237
    1CAL  Ca15220796   6.751   5.524   1.932
    1CAL  Ca15320797   7.751   6.327   1.932
    1CAL  Ca15420798   7.251   5.524   1.932
    1CAL  Ca15520799   6.250   5.122   1.932
    1CAL  Ca15620800   8.001   5.831   1.623
    1CAL  C015720801   8.001   6.336   2.545
    1CAL  C015820802   7.251   4.826   2.852
    1CAL  C015920803   6.251   4.826   2.852
    1CAL  C015A20804   7.500   5.324   3.158
    1CAL  C015B20805   7.500   6.127   3.158
    1CAL  C015C20806   6.751   4.826   2.852
    1CAL  C015D20807   7.001   5.534   2.545
    1CAL  C015E20808   7.251   6.031   2.849
    1CAL  C015F20809   6.751   6.031   2.850
    1CAL  C015G20810   6.501   5.726   3.159
    1CAL  C015H20811   6.501   5.132   2.545
    1CAL  C015I20812   7.001   5.936   2.545
    1CAL  C015J20813   7.001   5.132   2.545
    1CAL  C015K20814   6.251   5.229   2.852
    1CAL  C015L20815   6.501   4.922   3.159
    1CAL  C015M20816   7.001   5.726   3.158
    1CAL  C015N20817   7.751   4.826   2.852
    1CAL  C015O20818   7.501   4.922   3.159
    1CAL  C015P20819   6.251   5.631   2.852
    1CAL  C015Q20820   8.000   5.324   3.159
    1CAL  C015R20821   8.001   5.726   3.158
    1CAL  C015S20822   8.001   5.132   2.545
    1CAL  C015T20823   8.001   5.936   2.545
    1CAL  C015U20824   6.251   6.031   2.850
    1CAL  C015V20825   6.500   5.324   3.158
    1CAL  C015W20826   7.501   5.534   2.545
    1CAL  C015X20827   8.001   5.534   2.545
    1CAL  C015Y20828   7.751   5.229   2.852
    1CAL  C015Z20829   7.251   5.229   2.852
    1CAL  C015a20830   7.501   5.132   2.545
    1CAL  C015b20831   7.501   5.726   3.158
    1CAL  C015c20832   6.499   6.127   3.158
    1CAL  C015d20833   7.501   6.336   2.545
    1CAL  C015e20834   6.751   5.229   2.852
    1CAL  C015f20835   7.251   5.631   2.852
    1CAL  C015g20836   6.501   5.936   2.545
    1CAL  C015h20837   7.751   6.031   2.849
    1CAL  C015i20838   7.001   6.336   2.545
    1CAL  C015j20839   8.000   6.127   3.159
    1CAL  C015k20840   7.001   4.922   3.158
    1CAL  C015l20841   7.000   6.127   3.158
    1CAL  C015m20842   7.000   5.324   3.159
    1CAL  C015n20843   7.751   5.631   2.852
    1CAL  C015o20844   6.501   6.336   2.545
    1CAL  C015p20845   7.501   5.936   2.545
    1CAL  C015q20846   6.501   5.534   2.545
    1CAL  C015r20847   6.751   5.631   2.852
    1CAL  C015s20848   8.001   4.922   3.159
    1CAL  C015t20849   6.752   5.422   3.469
    1CAL  C015u20850   6.748   5.021   3.469
    1CAL  C015v20851   6.748   5.824   3.468
    1CAL  C015w20852   6.752   6.225   3.469
    1CAL  C015x20853   7.752   5.422   3.469
    1CAL  C015y20854   7.748   5.021   3.469
    1CAL  C015z20855   7.752   6.225   3.469
    1CAL  C016020856   7.749   5.824   3.468
    1CAL  C016120857   7.252   6.225   3.469
    1CAL  C016220858   7.249   5.823   3.469
    1CAL  C016320859   7.252   5.422   3.469
    1CAL  C016420860   7.248   5.020   3.470
    1CAL  C016520861   6.252   6.225   3.470
    1CAL  C016620862   6.249   5.823   3.470
    1CAL  C016720863   6.252   5.423   3.469
    1CAL  C016820864   6.248   5.020   3.471
    1CAL  O03FJ20865   6.186   5.553   2.931
    1CAL  O03FK20866   7.187   5.710   2.773
    1CAL  O03FL20867   7.186   5.553   2.931
    1CAL  O03FM20868   7.380   5.631   2.853
    1CAL  O03FN20869   6.565   6.257   2.624
    1CAL  O03FO20870   6.372   6.337   2.544
    1CAL  O03FP20871   6.565   5.613   2.466
    1CAL  O03FQ20872   6.687   5.710   2.773
    1CAL  O03FR20873   6.686   5.553   2.931
    1CAL  O03FS20874   6.880   5.631   2.853
    1CAL  O03FT20875   6.566   6.414   2.466
    1CAL  O03FU20876   6.565   5.456   2.624
    1CAL  O03FV20877   6.372   5.534   2.545
    1CAL  O03FW20878   7.129   6.126   3.159
    1CAL  O03FX20879   6.936   6.205   3.078
    1CAL  O03FY20880   6.937   5.403   3.078
    1CAL  O03FZ20881   6.934   5.246   3.238
    1CAL  O03Fa20882   7.129   5.323   3.160
    1CAL  O03Fb20883   6.934   6.049   3.238
    1CAL  O03Fc20884   6.622   5.229   2.852
    1CAL  O03Fd20885   7.064   5.805   3.078
    1CAL  O03Fe20886   7.123   6.031   2.849
    1CAL  O03Ff20887   7.315   5.952   2.929
    1CAL  O03Fg20888   7.316   6.109   2.771
    1CAL  O03Fh20889   6.437   5.053   2.624
    1CAL  O03Fi20890   6.436   5.210   2.466
    1CAL  O03Fj20891   6.622   6.031   2.849
    1CAL  O03Fk20892   6.815   5.952   2.929
    1CAL  O03Fl20893   6.816   6.109   2.771
    1CAL  O03Fm20894   6.315   5.308   2.773
    1CAL  O03Fn20895   6.815   5.150   2.931
    1CAL  O03Fo20896   6.937   6.015   2.465
    1CAL  O03Fp20897   7.130   5.936   2.545
    1CAL  O03Fq20898   6.315   5.150   2.932
    1CAL  O03Fr20899   6.122   5.229   2.852
    1CAL  O03Fs20900   6.815   5.308   2.773
    1CAL  O03Ft20901   6.937   5.211   2.465
    1CAL  O03Fu20902   6.937   5.053   2.624
    1CAL  O03Fv20903   7.130   5.132   2.545
    1CAL  O03Fw20904   6.871   5.725   3.159
    1CAL  O03Fx20905   7.067   5.648   3.237
    1CAL  O03Fy20906   6.936   5.858   2.624
    1CAL  O03Fz20907   7.687   5.710   2.773
    1CAL  O03G020908   7.686   5.553   2.931
    1CAL  O03G120909   7.880   5.631   2.853
    1CAL  O03G220910   7.935   6.048   3.238
    1CAL  O03G320911   7.937   5.403   3.079
    1CAL  O03G420912   7.935   5.245   3.238
    1CAL  O03G520913   6.129   6.126   3.160
    1CAL  O03G620914   6.065   5.001   3.079
    1CAL  O03G720915   7.437   6.015   2.465
    1CAL  O03G820916   7.436   5.858   2.624
    1CAL  O03G920917   7.630   5.936   2.545
    1CAL  O03GA20918   6.066   4.844   3.239
    1CAL  O03GB20919   7.435   6.049   3.238
    1CAL  O03GC20920   6.066   6.414   2.466
    1CAL  O03GD20921   6.065   6.257   2.624
    1CAL  O03GE20922   6.872   6.337   2.544
    1CAL  O03GF20923   7.872   5.725   3.160
    1CAL  O03GG20924   7.937   5.053   2.624
    1CAL  O03GH20925   7.065   5.001   3.079
    1CAL  O03GI20926   6.437   6.015   2.465
    1CAL  O03GJ20927   6.436   5.858   2.624
    1CAL  O03GK20928   6.630   5.936   2.545
    1CAL  O03GL20929   7.066   4.843   3.238
    1CAL  O03GM20930   6.434   6.049   3.238
    1CAL  O03GN20931   6.872   4.922   3.159
    1CAL  O03GO20932   7.873   5.534   2.545
    1CAL  O03GP20933   7.066   6.414   2.466
    1CAL  O03GQ20934   7.065   6.257   2.624
    1CAL  O03GR20935   7.623   6.031   2.849
    1CAL  O03GS20936   7.815   5.952   2.929
    1CAL  O03GT20937   7.816   6.109   2.770
    1CAL  O03GU20938   7.938   6.015   2.465
    1CAL  O03GV20939   7.936   5.858   2.624
    1CAL  O03GW20940   7.937   5.211   2.465
    1CAL  O03GX20941   6.630   5.132   2.544
    1CAL  O03GY20942   6.380   5.631   2.853
    1CAL  O03GZ20943   6.371   5.725   3.162
    1CAL  O03Ga20944   7.066   5.456   2.624
    1CAL  O03Gb20945   7.565   6.257   2.624
    1CAL  O03Gc20946   7.566   6.414   2.466
    1CAL  O03Gd20947   7.623   5.229   2.852
    1CAL  O03Ge20948   7.816   5.150   2.931
    1CAL  O03Gf20949   7.373   6.337   2.544
    1CAL  O03Gg20950   7.122   5.229   2.852
    1CAL  O03Gh20951   7.315   5.308   2.773
    1CAL  O03Gi20952   6.629   6.126   3.159
    1CAL  O03Gj20953   7.437   5.210   2.466
    1CAL  O03Gk20954   7.437   5.053   2.624
    1CAL  O03Gl20955   7.630   5.132   2.544
    1CAL  O03Gm20956   7.372   5.725   3.161
    1CAL  O03Gn20957   7.567   5.648   3.237
    1CAL  O03Go20958   7.316   5.150   2.931
    1CAL  O03Gp20959   7.564   5.806   3.078
    1CAL  O03Gq20960   6.066   5.456   2.624
    1CAL  O03Gr20961   7.566   5.456   2.624
    1CAL  O03Gs20962   6.187   5.710   2.773
    1CAL  O03Gt20963   6.064   5.806   3.078
    1CAL  O03Gu20964   6.066   5.648   3.238
    1CAL  O03Gv20965   6.129   5.323   3.160
    1CAL  O03Gw20966   6.130   5.132   2.545
    1CAL  O03Gx20967   6.129   5.936   2.545
    1CAL  O03Gy20968   7.565   5.613   2.466
    1CAL  O03Gz20969   6.316   6.109   2.771
    1CAL  O03H020970   7.873   6.337   2.544
    1CAL  O03H120971   7.872   4.922   3.160
    1CAL  O03H220972   6.122   6.031   2.849
    1CAL  O03H320973   7.936   6.205   3.078
    1CAL  O03H420974   6.065   5.613   2.466
    1CAL  O03H520975   7.373   5.534   2.545
    1CAL  O03H620976   6.315   5.952   2.929
    1CAL  O03H720977   6.435   6.206   3.078
    1CAL  O03H820978   6.629   5.323   3.159
    1CAL  O03H920979   7.372   4.921   3.161
    1CAL  O03HA20980   7.437   5.403   3.078
    1CAL  O03HB20981   7.435   5.246   3.238
    1CAL  O03HC20982   7.630   5.323   3.159
    1CAL  O03HD20983   6.880   4.826   2.852
    1CAL  O03HE20984   6.687   6.354   2.931
    1CAL  O03HF20985   7.435   6.205   3.078
    1CAL  O03HG20986   7.629   6.126   3.158
    1CAL  O03HH20987   6.687   4.905   2.773
    1CAL  O03HI20988   6.564   5.001   3.079
    1CAL  O03HJ20989   6.567   4.844   3.238
    1CAL  O03HK20990   6.371   4.922   3.161
    1CAL  O03HL20991   6.563   5.806   3.078
    1CAL  O03HM20992   6.568   5.648   3.238
    1CAL  O03HN20993   6.872   5.534   2.545
    1CAL  O03HO20994   7.567   4.843   3.238
    1CAL  O03HP20995   7.565   5.001   3.079
    1CAL  O03HQ20996   6.434   5.246   3.238
    1CAL  O03HR20997   6.436   5.404   3.079
    1CAL  O03HS20998   7.687   4.905   2.773
    1CAL  O03HT20999   7.687   6.354   2.931
    1CAL  O03HU21000   7.880   4.826   2.852
    1CAL  O03HV21001   6.380   4.827   2.852
    1CAL  O03HW21002   6.187   6.354   2.931
    1CAL  O03HX21003   6.186   4.905   2.773
    1CAL  O03HY21004   7.187   4.905   2.773
    1CAL  O03HZ21005   7.187   6.354   2.931
    1CAL  O03Ha21006   7.380   4.827   2.852
    1CAL  O03Hb21007   7.065   5.613   2.466
    1CAL  O03Hc21008   7.816   5.308   2.773
    1CAL  O03Hd21009   6.821   6.299   3.387
    1CAL  O03He21010   6.812   6.147   3.553
    1CAL  O03Hf21011   6.622   6.231   3.467
    1CAL  O03Hg21012   6.679   5.898   3.386
    1CAL  O03Hh21013   6.688   5.747   3.552
    1CAL  O03Hi21014   6.878   5.829   3.465
    1CAL  O03Hj21015   6.878   5.026   3.466
    1CAL  O03Hk21016   6.688   4.943   3.553
    1CAL  O03Hl21017   6.679   5.094   3.387
    1CAL  O03Hm21018   6.622   5.428   3.466
    1CAL  O03Hn21019   6.812   5.344   3.552
    1CAL  O03Ho21020   6.821   5.496   3.387
    1CAL  O03Hp21021   7.680   5.898   3.386
    1CAL  O03Hq21022   7.878   5.829   3.466
    1CAL  O03Hr21023   7.688   5.746   3.552
    1CAL  O03Hs21024   7.623   6.230   3.466
    1CAL  O03Ht21025   7.812   6.147   3.552
    1CAL  O03Hu21026   7.821   6.299   3.387
    1CAL  O03Hv21027   7.679   5.094   3.387
    1CAL  O03Hw21028   7.878   5.026   3.466
    1CAL  O03Hx21029   7.688   4.943   3.553
    1CAL  O03Hy21030   7.622   5.427   3.466
    1CAL  O03Hz21031   7.812   5.344   3.552
    1CAL  O03I021032   7.821   5.496   3.387
    1CAL  O03I121033   7.312   6.147   3.553
    1CAL  O03I221034   7.122   6.230   3.467
    1CAL  O03I321035   7.321   6.298   3.387
    1CAL  O03I421036   7.180   5.897   3.387
    1CAL  O03I521037   7.189   5.745   3.553
    1CAL  O03I621038   7.379   5.829   3.467
    1CAL  O03I721039   7.312   5.344   3.553
    1CAL  O03I821040   7.321   5.495   3.387
    1CAL  O03I921041   7.122   5.428   3.466
    1CAL  O03IA21042   7.180   5.094   3.388
    1CAL  O03IB21043   7.188   4.942   3.553
    1CAL  O03IC21044   7.378   5.026   3.468
    1CAL  O03ID21045   6.311   6.147   3.554
    1CAL  O03IE21046   6.122   6.231   3.467
    1CAL  O03IF21047   6.321   6.298   3.388
    1CAL  O03IG21048   6.180   5.897   3.388
    1CAL  O03IH21049   6.189   5.745   3.553
    1CAL  O03II21050   6.379   5.829   3.469
    1CAL  O03IJ21051   6.311   5.345   3.554
    1CAL  O03IK21052   6.122   5.428   3.466
    1CAL  O03IL21053   6.321   5.496   3.387
    1CAL  O03IM21054   6.378   5.026   3.469
    1CAL  O03IN21055   6.188   4.942   3.554
    1CAL  O03IO21056   6.180   5.094   3.389
    1CAL  Ca15721057   7.003   5.629   3.464
    1CAL  Ca15821058   7.751   5.333   2.545
    1CAL  Ca15921059   7.497   6.030   3.465
    1CAL  Ca15A21060   6.003   5.629   3.465
    1CAL  Ca15B21061   6.751   6.326   3.160
    1CAL  Ca15C21062   7.751   5.735   2.545
    1CAL  Ca15D21063   7.501   5.430   2.852
    1CAL  Ca15E21064   7.501   6.232   2.852
    1CAL  Ca15F21065   6.250   5.925   3.159
    1CAL  Ca15G21066   7.001   6.232   2.852
    1CAL  Ca15H21067   6.503   4.826   3.465
    1CAL  Ca15I21068   6.251   5.333   2.545
    1CAL  Ca15J21069   6.251   5.524   3.160
    1CAL  Ca15K21070   7.998   5.227   3.465
    1CAL  Ca15L21071   7.998   6.030   3.465
    1CAL  Ca15M21072   7.750   5.925   3.158
    1CAL  Ca15N21073   7.251   4.931   2.545
    1CAL  Ca15O21074   8.001   6.232   2.852
    1CAL  Ca15P21075   7.751   4.931   2.545
    1CAL  Ca15Q21076   6.496   5.228   3.465
    1CAL  Ca15R21077   6.003   4.826   3.466
    1CAL  Ca15S21078   7.752   5.524   3.160
    1CAL  Ca15T21079   6.251   5.735   2.545
    1CAL  Ca15U21080   8.001   5.430   2.852
    1CAL  Ca15V21081   7.501   5.831   2.851
    1CAL  Ca15W21082   6.251   6.327   3.160
    1CAL  Ca15X21083   7.751   6.136   2.546
    1CAL  Ca15Y21084   6.501   5.831   2.851
    1CAL  Ca15Z21085   6.497   6.031   3.465
    1CAL  Ca15a21086   8.001   5.028   2.852
    1CAL  Ca15b21087   6.501   6.232   2.852
    1CAL  Ca15c21088   7.497   5.227   3.465
    1CAL  Ca15d21089   7.251   5.735   2.545
    1CAL  Ca15e21090   6.751   5.735   2.545
    1CAL  Ca15f21091   7.001   5.028   2.852
    1CAL  Ca15g21092   7.001   5.831   2.851
    1CAL  Ca15h21093   6.501   5.430   2.852
    1CAL  Ca15i21094   7.001   5.430   2.852
    1CAL  Ca15j21095   6.750   5.925   3.159
    1CAL  Ca15k21096   6.251   4.931   2.545
    1CAL  Ca15l21097   6.751   5.333   2.545
    1CAL  Ca15m21098   7.251   5.333   2.545
    1CAL  Ca15n21099   7.250   5.925   3.159
    1CAL  Ca15o21100   7.251   6.326   3.160
    1CAL  Ca15p21101   7.750   5.122   3.160
    1CAL  Ca15q21102   7.003   4.826   3.465
    1CAL  Ca15r21103   6.749   5.122   3.160
    1CAL  Ca15s21104   6.504   5.629   3.464
    1CAL  Ca15t21105   6.501   5.028   2.852
    1CAL  Ca15u21106   6.751   4.931   2.545
    1CAL  Ca15v21107   7.251   6.136   2.546
    1CAL  Ca15w21108   7.250   5.122   3.160
    1CAL  Ca15x21109   6.997   5.227   3.465
    1CAL  Ca15y21110   6.751   6.136   2.546
    1CAL  Ca15z21111   6.997   6.030   3.465
    1CAL  Ca16021112   6.251   6.136   2.546
    1CAL  Ca16121113   7.501   5.028   2.852
    1CAL  Ca16221114   7.504   5.629   3.464
    1CAL  Ca16321115   7.503   4.825   3.465
    1CAL  Ca16421116   6.751   5.524   3.160
    1CAL  Ca16521117   7.751   6.327   3.160
    1CAL  Ca16621118   7.251   5.524   3.160
    1CAL  Ca16721119   6.250   5.122   3.160
    1CAL  Ca16821120   8.001   5.831   2.851
    1CAL  C016921121   8.001   7.942   0.089
    1CAL  C016A21122   7.251   6.432   0.396
    1CAL  C016B21123   6.251   6.432   0.396
    1CAL  C016C21124   7.500   6.930   0.702
    1CAL  C016D21125   7.500   7.733   0.702
    1CAL  C016E21126   6.751   6.432   0.396
    1CAL  C016F21127   7.001   7.140   0.089
    1CAL  C016G21128   7.251   7.637   0.393
    1CAL  C016H21129   6.751   7.637   0.394
    1CAL  C016I21130   6.501   7.332   0.703
    1CAL  C016J21131   6.501   6.738   0.089
    1CAL  C016K21132   7.001   7.542   0.089
    1CAL  C016L21133   7.001   6.738   0.089
    1CAL  C016M21134   6.251   6.835   0.396
    1CAL  C016N21135   6.501   6.528   0.703
    1CAL  C016O21136   7.001   7.332   0.702
    1CAL  C016P21137   7.751   6.432   0.396
    1CAL  C016Q21138   7.501   6.528   0.703
    1CAL  C016R21139   6.251   7.237   0.396
    1CAL  C016S21140   8.000   6.930   0.703
    1CAL  C016T21141   8.001   7.332   0.702
    1CAL  C016U21142   8.001   6.738   0.089
    1CAL  C016V21143   8.001   7.542   0.089
    1CAL  C016W21144   6.251   7.637   0.394
    1CAL  C016X21145   6.500   6.930   0.702
    1CAL  C016Y21146   7.501   7.140   0.089
    1CAL  C016Z21147   8.001   7.140   0.089
    1CAL  C016a21148   7.751   6.835   0.396
    1CAL  C016b21149   7.251   6.835   0.396
    1CAL  C016c21150   7.501   6.738   0.089
    1CAL  C016d21151   7.501   7.332   0.702
    1CAL  C016e21152   6.499   7.733   0.702
    1CAL  C016f21153   7.501   7.942   0.089
    1CAL  C016g21154   6.751   6.835   0.396
    1CAL  C016h21155   7.251   7.237   0.396
    1CAL  C016i21156   6.501   7.542   0.089
    1CAL  C016j21157   7.751   7.637   0.393
    1CAL  C016k21158   7.001   7.942   0.089
    1CAL  C016l21159   8.000   7.733   0.703
    1CAL  C016m21160   7.001   6.528   0.702
    1CAL  C016n21161   7.000   7.733   0.702
    1CAL  C016o21162   7.000   6.930   0.703
    1CAL  C016p21163   7.751   7.237   0.396
    1CAL  C016q21164   6.501   7.942   0.089
    1CAL  C016r21165   7.501   7.542   0.089
    1CAL  C016s21166   6.501   7.140   0.089
    1CAL  C016t21167   6.751   7.237   0.396
    1CAL  C016u21168   8.001   6.528   0.703
    1CAL  C016v21169   6.752   7.028   1.013
    1CAL  C016w21170   6.748   6.627   1.013
    1CAL  C016x21171   6.748   7.430   1.012
    1CAL  C016y21172   6.752   7.831   1.013
    1CAL  C016z21173   7.752   7.028   1.013
    1CAL  C017021174   7.748   6.627   1.013
    1CAL  C017121175   7.752   7.831   1.013
    1CAL  C017221176   7.749   7.430   1.012
    1CAL  C017321177   7.252   7.831   1.013
    1CAL  C017421178   7.249   7.429   1.013
    1CAL  C017521179   7.252   7.028   1.013
    1CAL  C017621180   7.248   6.626   1.014
    1CAL  C017721181   6.252   7.831   1.014
    1CAL  C017821182   6.249   7.429   1.014
    1CAL  C017921183   6.252   7.029   1.013
    1CAL  C017A21184   6.248   6.626   1.015
    1CAL  O03IP21185   6.186   7.159   0.475
    1CAL  O03IQ21186   7.187   7.316   0.317
    1CAL  O03IR21187   7.186   7.159   0.475
    1CAL  O03IS21188   7.380   7.237   0.397
    1CAL  O03IT21189   6.565   7.863   0.168
    1CAL  O03IU21190   6.372   7.943   0.088
    1CAL  O03IV21191   6.565   7.219   0.010
    1CAL  O03IW21192   6.687   7.316   0.317
    1CAL  O03IX21193   6.686   7.159   0.475
    1CAL  O03IY21194   6.880   7.237   0.397
    1CAL  O03IZ21195   6.566   8.020   0.010
    1CAL  O03Ia21196   6.565   7.062   0.168
    1CAL  O03Ib21197   6.372   7.140   0.089
    1CAL  O03Ic21198   7.129   7.732   0.703
    1CAL  O03Id21199   6.936   7.811   0.622
    1CAL  O03Ie21200   6.937   7.009   0.622
    1CAL  O03If21201   6.934   6.852   0.782
    1CAL  O03Ig21202   7.129   6.929   0.704
    1CAL  O03Ih21203   6.934   7.655   0.782
    1CAL  O03Ii21204   6.622   6.835   0.396
    1CAL  O03Ij21205   7.064   7.411   0.622
    1CAL  O03Ik21206   7.123   7.637   0.393
    1CAL  O03Il21207   7.315   7.558   0.473
    1CAL  O03Im21208   7.316   7.715   0.315
    1CAL  O03In21209   6.437   6.659   0.168
    1CAL  O03Io21210   6.436   6.816   0.010
    1CAL  O03Ip21211   6.622   7.637   0.393
    1CAL  O03Iq21212   6.815   7.558   0.473
    1CAL  O03Ir21213   6.816   7.715   0.315
    1CAL  O03Is21214   6.315   6.914   0.317
    1CAL  O03It21215   6.815   6.756   0.475
    1CAL  O03Iu21216   6.937   7.621   0.009
    1CAL  O03Iv21217   7.130   7.542   0.089
    1CAL  O03Iw21218   6.315   6.756   0.476
    1CAL  O03Ix21219   6.122   6.835   0.396
    1CAL  O03Iy21220   6.815   6.914   0.317
    1CAL  O03Iz21221   6.937   6.817   0.009
    1CAL  O03J021222   6.937   6.659   0.168
    1CAL  O03J121223   7.130   6.738   0.089
    1CAL  O03J221224   6.871   7.331   0.703
    1CAL  O03J321225   7.067   7.254   0.781
    1CAL  O03J421226   6.936   7.464   0.168
    1CAL  O03J521227   7.687   7.316   0.317
    1CAL  O03J621228   7.686   7.159   0.475
    1CAL  O03J721229   7.880   7.237   0.397
    1CAL  O03J821230   7.935   7.654   0.782
    1CAL  O03J921231   7.937   7.009   0.623
    1CAL  O03JA21232   7.935   6.851   0.782
    1CAL  O03JB21233   6.129   7.732   0.704
    1CAL  O03JC21234   6.065   6.607   0.623
    1CAL  O03JD21235   7.437   7.621   0.009
    1CAL  O03JE21236   7.436   7.464   0.168
    1CAL  O03JF21237   7.630   7.542   0.089
    1CAL  O03JG21238   6.066   6.450   0.783
    1CAL  O03JH21239   7.435   7.655   0.782
    1CAL  O03JI21240   6.066   8.020   0.010
    1CAL  O03JJ21241   6.065   7.863   0.168
    1CAL  O03JK21242   6.872   7.943   0.088
    1CAL  O03JL21243   7.872   7.331   0.704
    1CAL  O03JM21244   7.937   6.659   0.168
    1CAL  O03JN21245   7.065   6.607   0.623
    1CAL  O03JO21246   6.437   7.621   0.009
    1CAL  O03JP21247   6.436   7.464   0.168
    1CAL  O03JQ21248   6.630   7.542   0.089
    1CAL  O03JR21249   7.066   6.449   0.782
    1CAL  O03JS21250   6.434   7.655   0.782
    1CAL  O03JT21251   6.872   6.528   0.703
    1CAL  O03JU21252   7.873   7.140   0.089
    1CAL  O03JV21253   7.066   8.020   0.010
    1CAL  O03JW21254   7.065   7.863   0.168
    1CAL  O03JX21255   7.623   7.637   0.393
    1CAL  O03JY21256   7.815   7.558   0.473
    1CAL  O03JZ21257   7.816   7.715   0.314
    1CAL  O03Ja21258   7.938   7.621   0.009
    1CAL  O03Jb21259   7.936   7.464   0.168
    1CAL  O03Jc21260   7.937   6.817   0.009
    1CAL  O03Jd21261   6.630   6.738   0.088
    1CAL  O03Je21262   6.380   7.237   0.397
    1CAL  O03Jf21263   6.371   7.331   0.706
    1CAL  O03Jg21264   7.066   7.062   0.168
    1CAL  O03Jh21265   7.565   7.863   0.168
    1CAL  O03Ji21266   7.566   8.020   0.010
    1CAL  O03Jj21267   7.623   6.835   0.396
    1CAL  O03Jk21268   7.816   6.756   0.475
    1CAL  O03Jl21269   7.373   7.943   0.088
    1CAL  O03Jm21270   7.122   6.835   0.396
    1CAL  O03Jn21271   7.315   6.914   0.317
    1CAL  O03Jo21272   6.629   7.732   0.703
    1CAL  O03Jp21273   7.437   6.816   0.010
    1CAL  O03Jq21274   7.437   6.659   0.168
    1CAL  O03Jr21275   7.630   6.738   0.088
    1CAL  O03Js21276   7.372   7.331   0.705
    1CAL  O03Jt21277   7.567   7.254   0.781
    1CAL  O03Ju21278   7.316   6.756   0.475
    1CAL  O03Jv21279   7.564   7.412   0.622
    1CAL  O03Jw21280   6.066   7.062   0.168
    1CAL  O03Jx21281   7.566   7.062   0.168
    1CAL  O03Jy21282   6.187   7.316   0.317
    1CAL  O03Jz21283   6.064   7.412   0.622
    1CAL  O03K021284   6.066   7.254   0.782
    1CAL  O03K121285   6.129   6.929   0.704
    1CAL  O03K221286   6.130   6.738   0.089
    1CAL  O03K321287   6.129   7.542   0.089
    1CAL  O03K421288   7.565   7.219   0.010
    1CAL  O03K521289   6.316   7.715   0.315
    1CAL  O03K621290   7.873   7.943   0.088
    1CAL  O03K721291   7.872   6.528   0.704
    1CAL  O03K821292   6.122   7.637   0.393
    1CAL  O03K921293   7.936   7.811   0.622
    1CAL  O03KA21294   6.065   7.219   0.010
    1CAL  O03KB21295   7.373   7.140   0.089
    1CAL  O03KC21296   6.315   7.558   0.473
    1CAL  O03KD21297   6.435   7.812   0.622
    1CAL  O03KE21298   6.629   6.929   0.703
    1CAL  O03KF21299   7.372   6.527   0.705
    1CAL  O03KG21300   7.437   7.009   0.622
    1CAL  O03KH21301   7.435   6.852   0.782
    1CAL  O03KI21302   7.630   6.929   0.703
    1CAL  O03KJ21303   6.880   6.432   0.396
    1CAL  O03KK21304   6.687   7.960   0.475
    1CAL  O03KL21305   7.435   7.811   0.622
    1CAL  O03KM21306   7.629   7.732   0.702
    1CAL  O03KN21307   6.687   6.511   0.317
    1CAL  O03KO21308   6.564   6.607   0.623
    1CAL  O03KP21309   6.567   6.450   0.782
    1CAL  O03KQ21310   6.371   6.528   0.705
    1CAL  O03KR21311   6.563   7.412   0.622
    1CAL  O03KS21312   6.568   7.254   0.782
    1CAL  O03KT21313   6.872   7.140   0.089
    1CAL  O03KU21314   7.567   6.449   0.782
    1CAL  O03KV21315   7.565   6.607   0.623
    1CAL  O03KW21316   6.434   6.852   0.782
    1CAL  O03KX21317   6.436   7.010   0.623
    1CAL  O03KY21318   7.687   6.511   0.317
    1CAL  O03KZ21319   7.687   7.960   0.475
    1CAL  O03Ka21320   7.880   6.432   0.396
    1CAL  O03Kb21321   6.380   6.433   0.396
    1CAL  O03Kc21322   6.187   7.960   0.475
    1CAL  O03Kd21323   6.186   6.511   0.317
    1CAL  O03Ke21324   7.187   6.511   0.317
    1CAL  O03Kf21325   7.187   7.960   0.475
    1CAL  O03Kg21326   7.380   6.433   0.396
    1CAL  O03Kh21327   7.065   7.219   0.010
    1CAL  O03Ki21328   7.816   6.914   0.317
    1CAL  O03Kj21329   6.821   7.905   0.931
    1CAL  O03Kk21330   6.812   7.753   1.097
    1CAL  O03Kl21331   6.622   7.837   1.011
    1CAL  O03Km21332   6.679   7.504   0.930
    1CAL  O03Kn21333   6.688   7.353   1.096
    1CAL  O03Ko21334   6.878   7.435   1.009
    1CAL  O03Kp21335   6.878   6.632   1.010
    1CAL  O03Kq21336   6.688   6.549   1.097
    1CAL  O03Kr21337   6.679   6.700   0.931
    1CAL  O03Ks21338   6.622   7.034   1.010
    1CAL  O03Kt21339   6.812   6.950   1.096
    1CAL  O03Ku21340   6.821   7.102   0.931
    1CAL  O03Kv21341   7.680   7.504   0.930
    1CAL  O03Kw21342   7.878   7.435   1.010
    1CAL  O03Kx21343   7.688   7.352   1.096
    1CAL  O03Ky21344   7.623   7.836   1.010
    1CAL  O03Kz21345   7.812   7.753   1.096
    1CAL  O03L021346   7.821   7.905   0.931
    1CAL  O03L121347   7.679   6.700   0.931
    1CAL  O03L221348   7.878   6.632   1.010
    1CAL  O03L321349   7.688   6.549   1.097
    1CAL  O03L421350   7.622   7.033   1.010
    1CAL  O03L521351   7.812   6.950   1.096
    1CAL  O03L621352   7.821   7.102   0.931
    1CAL  O03L721353   7.312   7.753   1.097
    1CAL  O03L821354   7.122   7.836   1.011
    1CAL  O03L921355   7.321   7.904   0.931
    1CAL  O03LA21356   7.180   7.503   0.931
    1CAL  O03LB21357   7.189   7.351   1.097
    1CAL  O03LC21358   7.379   7.435   1.011
    1CAL  O03LD21359   7.312   6.950   1.097
    1CAL  O03LE21360   7.321   7.101   0.931
    1CAL  O03LF21361   7.122   7.034   1.010
    1CAL  O03LG21362   7.180   6.700   0.932
    1CAL  O03LH21363   7.188   6.548   1.097
    1CAL  O03LI21364   7.378   6.632   1.012
    1CAL  O03LJ21365   6.311   7.753   1.098
    1CAL  O03LK21366   6.122   7.837   1.011
    1CAL  O03LL21367   6.321   7.904   0.932
    1CAL  O03LM21368   6.180   7.503   0.932
    1CAL  O03LN21369   6.189   7.351   1.097
    1CAL  O03LO21370   6.379   7.435   1.013
    1CAL  O03LP21371   6.311   6.951   1.098
    1CAL  O03LQ21372   6.122   7.034   1.010
    1CAL  O03LR21373   6.321   7.102   0.931
    1CAL  O03LS21374   6.378   6.632   1.013
    1CAL  O03LT21375   6.188   6.548   1.098
    1CAL  O03LU21376   6.180   6.700   0.933
    1CAL  Ca16921377   7.003   7.235   1.008
    1CAL  Ca16A21378   7.751   6.939   0.089
    1CAL  Ca16B21379   7.497   7.636   1.009
    1CAL  Ca16C21380   6.003   7.235   1.009
    1CAL  Ca16D21381   6.751   7.932   0.704
    1CAL  Ca16E21382   7.751   7.341   0.089
    1CAL  Ca16F21383   7.501   7.036   0.396
    1CAL  Ca16G21384   7.501   7.838   0.396
    1CAL  Ca16H21385   6.250   7.531   0.703
    1CAL  Ca16I21386   7.001   7.838   0.396
    1CAL  Ca16J21387   6.503   6.432   1.009
    1CAL  Ca16K21388   6.251   6.939   0.089
    1CAL  Ca16L21389   6.251   7.130   0.704
    1CAL  Ca16M21390   7.998   6.833   1.009
    1CAL  Ca16N21391   7.998   7.636   1.009
    1CAL  Ca16O21392   7.750   7.531   0.702
    1CAL  Ca16P21393   7.251   6.537   0.089
    1CAL  Ca16Q21394   8.001   7.838   0.396
    1CAL  Ca16R21395   7.751   6.537   0.089
    1CAL  Ca16S21396   6.496   6.834   1.009
    1CAL  Ca16T21397   6.003   6.432   1.010
    1CAL  Ca16U21398   7.752   7.130   0.704
    1CAL  Ca16V21399   6.251   7.341   0.089
    1CAL  Ca16W21400   8.001   7.036   0.396
    1CAL  Ca16X21401   7.501   7.437   0.395
    1CAL  Ca16Y21402   6.251   7.933   0.704
    1CAL  Ca16Z21403   7.751   7.742   0.090
    1CAL  Ca16a21404   6.501   7.437   0.395
    1CAL  Ca16b21405   6.497   7.637   1.009
    1CAL  Ca16c21406   8.001   6.634   0.396
    1CAL  Ca16d21407   6.501   7.838   0.396
    1CAL  Ca16e21408   7.497   6.833   1.009
    1CAL  Ca16f21409   7.251   7.341   0.089
    1CAL  Ca16g21410   6.751   7.341   0.089
    1CAL  Ca16h21411   7.001   6.634   0.396
    1CAL  Ca16i21412   7.001   7.437   0.395
    1CAL  Ca16j21413   6.501   7.036   0.396
    1CAL  Ca16k21414   7.001   7.036   0.396
    1CAL  Ca16l21415   6.750   7.531   0.703
    1CAL  Ca16m21416   6.251   6.537   0.089
    1CAL  Ca16n21417   6.751   6.939   0.089
    1CAL  Ca16o21418   7.251   6.939   0.089
    1CAL  Ca16p21419   7.250   7.531   0.703
    1CAL  Ca16q21420   7.251   7.932   0.704
    1CAL  Ca16r21421   7.750   6.728   0.704
    1CAL  Ca16s21422   7.003   6.432   1.009
    1CAL  Ca16t21423   6.749   6.728   0.704
    1CAL  Ca16u21424   6.504   7.235   1.008
    1CAL  Ca16v21425   6.501   6.634   0.396
    1CAL  Ca16w21426   6.751   6.537   0.089
    1CAL  Ca16x21427   7.251   7.742   0.090
    1CAL  Ca16y21428   7.250   6.728   0.704
    1CAL  Ca16z21429   6.997   6.833   1.009
    1CAL  Ca17021430   6.751   7.742   0.090
    1CAL  Ca17121431   6.997   7.636   1.009
    1CAL  Ca17221432   6.251   7.742   0.090
    1CAL  Ca17321433   7.501   6.634   0.396
    1CAL  Ca17421434   7.504   7.235   1.008
    1CAL  Ca17521435   7.503   6.431   1.009
    1CAL  Ca17621436   6.751   7.130   0.704
    1CAL  Ca17721437   7.751   7.933   0.704
    1CAL  Ca17821438   7.251   7.130   0.704
    1CAL  Ca17921439   6.250   6.728   0.704
    1CAL  Ca17A21440   8.001   7.437   0.395
    1CAL  C017B21441   8.001   7.942   1.317
    1CAL  C017C21442   7.251   6.432   1.624
    1CAL  C017D21443   6.251   6.432   1.624
    1CAL  C017E21444   7.500   6.930   1.930
    1CAL  C017F21445   7.500   7.733   1.930
    1CAL  C017G21446   6.751   6.432   1.624
    1CAL  C017H21447   7.001   7.140   1.317
    1CAL  C017I21448   7.251   7.637   1.621
    1CAL  C017J21449   6.751   7.637   1.622
    1CAL  C017K21450   6.501   7.332   1.931
    1CAL  C017L21451   6.501   6.738   1.317
    1CAL  C017M21452   7.001   7.542   1.317
    1CAL  C017N21453   7.001   6.738   1.317
    1CAL  C017O21454   6.251   6.835   1.624
    1CAL  C017P21455   6.501   6.528   1.931
    1CAL  C017Q21456   7.001   7.332   1.930
    1CAL  C017R21457   7.751   6.432   1.624
    1CAL  C017S21458   7.501   6.528   1.931
    1CAL  C017T21459   6.251   7.237   1.624
    1CAL  C017U21460   8.000   6.930   1.931
    1CAL  C017V21461   8.001   7.332   1.930
    1CAL  C017W21462   8.001   6.738   1.317
    1CAL  C017X21463   8.001   7.542   1.317
    1CAL  C017Y21464   6.251   7.637   1.622
    1CAL  C017Z21465   6.500   6.930   1.930
    1CAL  C017a21466   7.501   7.140   1.317
    1CAL  C017b21467   8.001   7.140   1.317
    1CAL  C017c21468   7.751   6.835   1.624
    1CAL  C017d21469   7.251   6.835   1.624
    1CAL  C017e21470   7.501   6.738   1.317
    1CAL  C017f21471   7.501   7.332   1.930
    1CAL  C017g21472   6.499   7.733   1.930
    1CAL  C017h21473   7.501   7.942   1.317
    1CAL  C017i21474   6.751   6.835   1.624
    1CAL  C017j21475   7.251   7.237   1.624
    1CAL  C017k21476   6.501   7.542   1.317
    1CAL  C017l21477   7.751   7.637   1.621
    1CAL  C017m21478   7.001   7.942   1.317
    1CAL  C017n21479   8.000   7.733   1.931
    1CAL  C017o21480   7.001   6.528   1.930
    1CAL  C017p21481   7.000   7.733   1.930
    1CAL  C017q21482   7.000   6.930   1.931
    1CAL  C017r21483   7.751   7.237   1.624
    1CAL  C017s21484   6.501   7.942   1.317
    1CAL  C017t21485   7.501   7.542   1.317
    1CAL  C017u21486   6.501   7.140   1.317
    1CAL  C017v21487   6.751   7.237   1.624
    1CAL  C017w21488   8.001   6.528   1.931
    1CAL  C017x21489   6.752   7.028   2.241
    1CAL  C017y21490   6.748   6.627   2.241
    1CAL  C017z21491   6.748   7.430   2.240
    1CAL  C018021492   6.752   7.831   2.241
    1CAL  C018121493   7.752   7.028   2.241
    1CAL  C018221494   7.748   6.627   2.241
    1CAL  C018321495   7.752   7.831   2.241
    1CAL  C018421496   7.749   7.430   2.240
    1CAL  C018521497   7.252   7.831   2.241
    1CAL  C018621498   7.249   7.429   2.241
    1CAL  C018721499   7.252   7.028   2.241
    1CAL  C018821500   7.248   6.626   2.242
    1CAL  C018921501   6.252   7.831   2.242
    1CAL  C018A21502   6.249   7.429   2.242
    1CAL  C018B21503   6.252   7.029   2.241
    1CAL  C018C21504   6.248   6.626   2.243
    1CAL  O03LV21505   6.186   7.159   1.703
    1CAL  O03LW21506   7.187   7.316   1.545
    1CAL  O03LX21507   7.186   7.159   1.703
    1CAL  O03LY21508   7.380   7.237   1.625
    1CAL  O03LZ21509   6.565   7.863   1.396
    1CAL  O03La21510   6.372   7.943   1.316
    1CAL  O03Lb21511   6.565   7.219   1.238
    1CAL  O03Lc21512   6.687   7.316   1.545
    1CAL  O03Ld21513   6.686   7.159   1.703
    1CAL  O03Le21514   6.880   7.237   1.625
    1CAL  O03Lf21515   6.566   8.020   1.238
    1CAL  O03Lg21516   6.565   7.062   1.396
    1CAL  O03Lh21517   6.372   7.140   1.317
    1CAL  O03Li21518   7.129   7.732   1.931
    1CAL  O03Lj21519   6.936   7.811   1.850
    1CAL  O03Lk21520   6.937   7.009   1.850
    1CAL  O03Ll21521   6.934   6.852   2.010
    1CAL  O03Lm21522   7.129   6.929   1.932
    1CAL  O03Ln21523   6.934   7.655   2.010
    1CAL  O03Lo21524   6.622   6.835   1.624
    1CAL  O03Lp21525   7.064   7.411   1.850
    1CAL  O03Lq21526   7.123   7.637   1.621
    1CAL  O03Lr21527   7.315   7.558   1.701
    1CAL  O03Ls21528   7.316   7.715   1.543
    1CAL  O03Lt21529   6.437   6.659   1.396
    1CAL  O03Lu21530   6.436   6.816   1.238
    1CAL  O03Lv21531   6.622   7.637   1.621
    1CAL  O03Lw21532   6.815   7.558   1.701
    1CAL  O03Lx21533   6.816   7.715   1.543
    1CAL  O03Ly21534   6.315   6.914   1.545
    1CAL  O03Lz21535   6.815   6.756   1.703
    1CAL  O03M021536   6.937   7.621   1.237
    1CAL  O03M121537   7.130   7.542   1.317
    1CAL  O03M221538   6.315   6.756   1.704
    1CAL  O03M321539   6.122   6.835   1.624
    1CAL  O03M421540   6.815   6.914   1.545
    1CAL  O03M521541   6.937   6.817   1.237
    1CAL  O03M621542   6.937   6.659   1.396
    1CAL  O03M721543   7.130   6.738   1.317
    1CAL  O03M821544   6.871   7.331   1.931
    1CAL  O03M921545   7.067   7.254   2.009
    1CAL  O03MA21546   6.936   7.464   1.396
    1CAL  O03MB21547   7.687   7.316   1.545
    1CAL  O03MC21548   7.686   7.159   1.703
    1CAL  O03MD21549   7.880   7.237   1.625
    1CAL  O03ME21550   7.935   7.654   2.010
    1CAL  O03MF21551   7.937   7.009   1.851
    1CAL  O03MG21552   7.935   6.851   2.010
    1CAL  O03MH21553   6.129   7.732   1.932
    1CAL  O03MI21554   6.065   6.607   1.851
    1CAL  O03MJ21555   7.437   7.621   1.237
    1CAL  O03MK21556   7.436   7.464   1.396
    1CAL  O03ML21557   7.630   7.542   1.317
    1CAL  O03MM21558   6.066   6.450   2.011
    1CAL  O03MN21559   7.435   7.655   2.010
    1CAL  O03MO21560   6.066   8.020   1.238
    1CAL  O03MP21561   6.065   7.863   1.396
    1CAL  O03MQ21562   6.872   7.943   1.316
    1CAL  O03MR21563   7.872   7.331   1.932
    1CAL  O03MS21564   7.937   6.659   1.396
    1CAL  O03MT21565   7.065   6.607   1.851
    1CAL  O03MU21566   6.437   7.621   1.237
    1CAL  O03MV21567   6.436   7.464   1.396
    1CAL  O03MW21568   6.630   7.542   1.317
    1CAL  O03MX21569   7.066   6.449   2.010
    1CAL  O03MY21570   6.434   7.655   2.010
    1CAL  O03MZ21571   6.872   6.528   1.931
    1CAL  O03Ma21572   7.873   7.140   1.317
    1CAL  O03Mb21573   7.066   8.020   1.238
    1CAL  O03Mc21574   7.065   7.863   1.396
    1CAL  O03Md21575   7.623   7.637   1.621
    1CAL  O03Me21576   7.815   7.558   1.701
    1CAL  O03Mf21577   7.816   7.715   1.542
    1CAL  O03Mg21578   7.938   7.621   1.237
    1CAL  O03Mh21579   7.936   7.464   1.396
    1CAL  O03Mi21580   7.937   6.817   1.237
    1CAL  O03Mj21581   6.630   6.738   1.316
    1CAL  O03Mk21582   6.380   7.237   1.625
    1CAL  O03Ml21583   6.371   7.331   1.934
    1CAL  O03Mm21584   7.066   7.062   1.396
    1CAL  O03Mn21585   7.565   7.863   1.396
    1CAL  O03Mo21586   7.566   8.020   1.238
    1CAL  O03Mp21587   7.623   6.835   1.624
    1CAL  O03Mq21588   7.816   6.756   1.703
    1CAL  O03Mr21589   7.373   7.943   1.316
    1CAL  O03Ms21590   7.122   6.835   1.624
    1CAL  O03Mt21591   7.315   6.914   1.545
    1CAL  O03Mu21592   6.629   7.732   1.931
    1CAL  O03Mv21593   7.437   6.816   1.238
    1CAL  O03Mw21594   7.437   6.659   1.396
    1CAL  O03Mx21595   7.630   6.738   1.316
    1CAL  O03My21596   7.372   7.331   1.933
    1CAL  O03Mz21597   7.567   7.254   2.009
    1CAL  O03N021598   7.316   6.756   1.703
    1CAL  O03N121599   7.564   7.412   1.850
    1CAL  O03N221600   6.066   7.062   1.396
    1CAL  O03N321601   7.566   7.062   1.396
    1CAL  O03N421602   6.187   7.316   1.545
    1CAL  O03N521603   6.064   7.412   1.850
    1CAL  O03N621604   6.066   7.254   2.010
    1CAL  O03N721605   6.129   6.929   1.932
    1CAL  O03N821606   6.130   6.738   1.317
    1CAL  O03N921607   6.129   7.542   1.317
    1CAL  O03NA21608   7.565   7.219   1.238
    1CAL  O03NB21609   6.316   7.715   1.543
    1CAL  O03NC21610   7.873   7.943   1.316
    1CAL  O03ND21611   7.872   6.528   1.932
    1CAL  O03NE21612   6.122   7.637   1.621
    1CAL  O03NF21613   7.936   7.811   1.850
    1CAL  O03NG21614   6.065   7.219   1.238
    1CAL  O03NH21615   7.373   7.140   1.317
    1CAL  O03NI21616   6.315   7.558   1.701
    1CAL  O03NJ21617   6.435   7.812   1.850
    1CAL  O03NK21618   6.629   6.929   1.931
    1CAL  O03NL21619   7.372   6.527   1.933
    1CAL  O03NM21620   7.437   7.009   1.850
    1CAL  O03NN21621   7.435   6.852   2.010
    1CAL  O03NO21622   7.630   6.929   1.931
    1CAL  O03NP21623   6.880   6.432   1.624
    1CAL  O03NQ21624   6.687   7.960   1.703
    1CAL  O03NR21625   7.435   7.811   1.850
    1CAL  O03NS21626   7.629   7.732   1.930
    1CAL  O03NT21627   6.687   6.511   1.545
    1CAL  O03NU21628   6.564   6.607   1.851
    1CAL  O03NV21629   6.567   6.450   2.010
    1CAL  O03NW21630   6.371   6.528   1.933
    1CAL  O03NX21631   6.563   7.412   1.850
    1CAL  O03NY21632   6.568   7.254   2.010
    1CAL  O03NZ21633   6.872   7.140   1.317
    1CAL  O03Na21634   7.567   6.449   2.010
    1CAL  O03Nb21635   7.565   6.607   1.851
    1CAL  O03Nc21636   6.434   6.852   2.010
    1CAL  O03Nd21637   6.436   7.010   1.851
    1CAL  O03Ne21638   7.687   6.511   1.545
    1CAL  O03Nf21639   7.687   7.960   1.703
    1CAL  O03Ng21640   7.880   6.432   1.624
    1CAL  O03Nh21641   6.380   6.433   1.624
    1CAL  O03Ni21642   6.187   7.960   1.703
    1CAL  O03Nj21643   6.186   6.511   1.545
    1CAL  O03Nk21644   7.187   6.511   1.545
    1CAL  O03Nl21645   7.187   7.960   1.703
    1CAL  O03Nm21646   7.380   6.433   1.624
    1CAL  O03Nn21647   7.065   7.219   1.238
    1CAL  O03No21648   7.816   6.914   1.545
    1CAL  O03Np21649   6.821   7.905   2.159
    1CAL  O03Nq21650   6.812   7.753   2.325
    1CAL  O03Nr21651   6.622   7.837   2.239
    1CAL  O03Ns21652   6.679   7.504   2.158
    1CAL  O03Nt21653   6.688   7.353   2.324
    1CAL  O03Nu21654   6.878   7.435   2.237
    1CAL  O03Nv21655   6.878   6.632   2.238
    1CAL  O03Nw21656   6.688   6.549   2.325
    1CAL  O03Nx21657   6.679   6.700   2.159
    1CAL  O03Ny21658   6.622   7.034   2.238
    1CAL  O03Nz21659   6.812   6.950   2.324
    1CAL  O03O021660   6.821   7.102   2.159
    1CAL  O03O121661   7.680   7.504   2.158
    1CAL  O03O221662   7.878   7.435   2.238
    1CAL  O03O321663   7.688   7.352   2.324
    1CAL  O03O421664   7.623   7.836   2.238
    1CAL  O03O521665   7.812   7.753   2.324
    1CAL  O03O621666   7.821   7.905   2.159
    1CAL  O03O721667   7.679   6.700   2.159
    1CAL  O03O821668   7.878   6.632   2.238
    1CAL  O03O921669   7.688   6.549   2.325
    1CAL  O03OA21670   7.622   7.033   2.238
    1CAL  O03OB21671   7.812   6.950   2.324
    1CAL  O03OC21672   7.821   7.102   2.159
    1CAL  O03OD21673   7.312   7.753   2.325
    1CAL  O03OE21674   7.122   7.836   2.239
    1CAL  O03OF21675   7.321   7.904   2.159
    1CAL  O03OG21676   7.180   7.503   2.159
    1CAL  O03OH21677   7.189   7.351   2.325
    1CAL  O03OI21678   7.379   7.435   2.239
    1CAL  O03OJ21679   7.312   6.950   2.325
    1CAL  O03OK21680   7.321   7.101   2.159
    1CAL  O03OL21681   7.122   7.034   2.238
    1CAL  O03OM21682   7.180   6.700   2.160
    1CAL  O03ON21683   7.188   6.548   2.325
    1CAL  O03OO21684   7.378   6.632   2.240
    1CAL  O03OP21685   6.311   7.753   2.326
    1CAL  O03OQ21686   6.122   7.837   2.239
    1CAL  O03OR21687   6.321   7.904   2.160
    1CAL  O03OS21688   6.180   7.503   2.160
    1CAL  O03OT21689   6.189   7.351   2.325
    1CAL  O03OU21690   6.379   7.435   2.241
    1CAL  O03OV21691   6.311   6.951   2.326
    1CAL  O03OW21692   6.122   7.034   2.238
    1CAL  O03OX21693   6.321   7.102   2.159
    1CAL  O03OY21694   6.378   6.632   2.241
    1CAL  O03OZ21695   6.188   6.548   2.326
    1CAL  O03Oa21696   6.180   6.700   2.161
    1CAL  Ca17B21697   7.003   7.235   2.236
    1CAL  Ca17C21698   7.751   6.939   1.317
    1CAL  Ca17D21699   7.497   7.636   2.237
    1CAL  Ca17E21700   6.003   7.235   2.237
    1CAL  Ca17F21701   6.751   7.932   1.932
    1CAL  Ca17G21702   7.751   7.341   1.317
    1CAL  Ca17H21703   7.501   7.036   1.624
    1CAL  Ca17I21704   7.501   7.838   1.624
    1CAL  Ca17J21705   6.250   7.531   1.931
    1CAL  Ca17K21706   7.001   7.838   1.624
    1CAL  Ca17L21707   6.503   6.432   2.237
    1CAL  Ca17M21708   6.251   6.939   1.317
    1CAL  Ca17N21709   6.251   7.130   1.932
    1CAL  Ca17O21710   7.998   6.833   2.237
    1CAL  Ca17P21711   7.998   7.636   2.237
    1CAL  Ca17Q21712   7.750   7.531   1.930
    1CAL  Ca17R21713   7.251   6.537   1.317
    1CAL  Ca17S21714   8.001   7.838   1.624
    1CAL  Ca17T21715   7.751   6.537   1.317
    1CAL  Ca17U21716   6.496   6.834   2.237
    1CAL  Ca17V21717   6.003   6.432   2.238
    1CAL  Ca17W21718   7.752   7.130   1.932
    1CAL  Ca17X21719   6.251   7.341   1.317
    1CAL  Ca17Y21720   8.001   7.036   1.624
    1CAL  Ca17Z21721   7.501   7.437   1.623
    1CAL  Ca17a21722   6.251   7.933   1.932
    1CAL  Ca17b21723   7.751   7.742   1.318
    1CAL  Ca17c21724   6.501   7.437   1.623
    1CAL  Ca17d21725   6.497   7.637   2.237
    1CAL  Ca17e21726   8.001   6.634   1.624
    1CAL  Ca17f21727   6.501   7.838   1.624
    1CAL  Ca17g21728   7.497   6.833   2.237
    1CAL  Ca17h21729   7.251   7.341   1.317
    1CAL  Ca17i21730   6.751   7.341   1.317
    1CAL  Ca17j21731   7.001   6.634   1.624
    1CAL  Ca17k21732   7.001   7.437   1.623
    1CAL  Ca17l21733   6.501   7.036   1.624
    1CAL  Ca17m21734   7.001   7.036   1.624
    1CAL  Ca17n21735   6.750   7.531   1.931
    1CAL  Ca17o21736   6.251   6.537   1.317
    1CAL  Ca17p21737   6.751   6.939   1.317
    1CAL  Ca17q21738   7.251   6.939   1.317
    1CAL  Ca17r21739   7.250   7.531   1.931
    1CAL  Ca17s21740   7.251   7.932   1.932
    1CAL  Ca17t21741   7.750   6.728   1.932
    1CAL  Ca17u21742   7.003   6.432   2.237
    1CAL  Ca17v21743   6.749   6.728   1.932
    1CAL  Ca17w21744   6.504   7.235   2.236
    1CAL  Ca17x21745   6.501   6.634   1.624
    1CAL  Ca17y21746   6.751   6.537   1.317
    1CAL  Ca17z21747   7.251   7.742   1.318
    1CAL  Ca18021748   7.250   6.728   1.932
    1CAL  Ca18121749   6.997   6.833   2.237
    1CAL  Ca18221750   6.751   7.742   1.318
    1CAL  Ca18321751   6.997   7.636   2.237
    1CAL  Ca18421752   6.251   7.742   1.318
    1CAL  Ca18521753   7.501   6.634   1.624
    1CAL  Ca18621754   7.504   7.235   2.236
    1CAL  Ca18721755   7.503   6.431   2.237
    1CAL  Ca18821756   6.751   7.130   1.932
    1CAL  Ca18921757   7.751   7.933   1.932
    1CAL  Ca18A21758   7.251   7.130   1.932
    1CAL  Ca18B21759   6.250   6.728   1.932
    1CAL  Ca18C21760   8.001   7.437   1.623
    1CAL  C018D21761   8.001   7.942   2.545
    1CAL  C018E21762   7.251   6.432   2.852
    1CAL  C018F21763   6.251   6.432   2.852
    1CAL  C018G21764   7.500   6.930   3.158
    1CAL  C018H21765   7.500   7.733   3.158
    1CAL  C018I21766   6.751   6.432   2.852
    1CAL  C018J21767   7.001   7.140   2.545
    1CAL  C018K21768   7.251   7.637   2.849
    1CAL  C018L21769   6.751   7.637   2.850
    1CAL  C018M21770   6.501   7.332   3.159
    1CAL  C018N21771   6.501   6.738   2.545
    1CAL  C018O21772   7.001   7.542   2.545
    1CAL  C018P21773   7.001   6.738   2.545
    1CAL  C018Q21774   6.251   6.835   2.852
    1CAL  C018R21775   6.501   6.528   3.159
    1CAL  C018S21776   7.001   7.332   3.158
    1CAL  C018T21777   7.751   6.432   2.852
    1CAL  C018U21778   7.501   6.528   3.159
    1CAL  C018V21779   6.251   7.237   2.852
    1CAL  C018W21780   8.000   6.930   3.159
    1CAL  C018X21781   8.001   7.332   3.158
    1CAL  C018Y21782   8.001   6.738   2.545
    1CAL  C018Z21783   8.001   7.542   2.545
    1CAL  C018a21784   6.251   7.637   2.850
    1CAL  C018b21785   6.500   6.930   3.158
    1CAL  C018c21786   7.501   7.140   2.545
    1CAL  C018d21787   8.001   7.140   2.545
    1CAL  C018e21788   7.751   6.835   2.852
    1CAL  C018f21789   7.251   6.835   2.852
    1CAL  C018g21790   7.501   6.738   2.545
    1CAL  C018h21791   7.501   7.332   3.158
    1CAL  C018i21792   6.499   7.733   3.158
    1CAL  C018j21793   7.501   7.942   2.545
    1CAL  C018k21794   6.751   6.835   2.852
    1CAL  C018l21795   7.251   7.237   2.852
    1CAL  C018m21796   6.501   7.542   2.545
    1CAL  C018n21797   7.751   7.637   2.849
    1CAL  C018o21798   7.001   7.942   2.545
    1CAL  C018p21799   8.000   7.733   3.159
    1CAL  C018q21800   7.001   6.528   3.158
    1CAL  C018r21801   7.000   7.733   3.158
    1CAL  C018s21802   7.000   6.930   3.159
    1CAL  C018t21803   7.751   7.237   2.852
    1CAL  C018u21804   6.501   7.942   2.545
    1CAL  C018v21805   7.501   7.542   2.545
    1CAL  C018w21806   6.501   7.140   2.545
    1CAL  C018x21807   6.751   7.237   2.852
    1CAL  C018y21808   8.001   6.528   3.159
    1CAL  C018z21809   6.752   7.028   3.469
    1CAL  C019021810   6.748   6.627   3.469
    1CAL  C019121811   6.748   7.430   3.468
    1CAL  C019221812   6.752   7.831   3.469
    1CAL  C019321813   7.752   7.028   3.469
    1CAL  C019421814   7.748   6.627   3.469
    1CAL  C019521815   7.752   7.831   3.469
    1CAL  C019621816   7.749   7.430   3.468
    1CAL  C019721817   7.252   7.831   3.469
    1CAL  C019821818   7.249   7.429   3.469
    1CAL  C019921819   7.252   7.028   3.469
    1CAL  C019A21820   7.248   6.626   3.470
    1CAL  C019B21821   6.252   7.831   3.470
    1CAL  C019C21822   6.249   7.429   3.470
    1CAL  C019D21823   6.252   7.029   3.469
    1CAL  C019E21824   6.248   6.626   3.471
    1CAL  O03Ob21825   6.186   7.159   2.931
    1CAL  O03Oc21826   7.187   7.316   2.773
    1CAL  O03Od21827   7.186   7.159   2.931
    1CAL  O03Oe21828   7.380   7.237   2.853
    1CAL  O03Of21829   6.565   7.863   2.624
    1CAL  O03Og21830   6.372   7.943   2.544
    1CAL  O03Oh21831   6.565   7.219   2.466
    1CAL  O03Oi21832   6.687   7.316   2.773
    1CAL  O03Oj21833   6.686   7.159   2.931
    1CAL  O03Ok21834   6.880   7.237   2.853
    1CAL  O03Ol21835   6.566   8.020   2.466
    1CAL  O03Om21836   6.565   7.062   2.624
    1CAL  O03On21837   6.372   7.140   2.545
    1CAL  O03Oo21838   7.129   7.732   3.159
    1CAL  O03Op21839   6.936   7.811   3.078
    1CAL  O03Oq21840   6.937   7.009   3.078
    1CAL  O03Or21841   6.934   6.852   3.238
    1CAL  O03Os21842   7.129   6.929   3.160
    1CAL  O03Ot21843   6.934   7.655   3.238
    1CAL  O03Ou21844   6.622   6.835   2.852
    1CAL  O03Ov21845   7.064   7.411   3.078
    1CAL  O03Ow21846   7.123   7.637   2.849
    1CAL  O03Ox21847   7.315   7.558   2.929
    1CAL  O03Oy21848   7.316   7.715   2.771
    1CAL  O03Oz21849   6.437   6.659   2.624
    1CAL  O03P021850   6.436   6.816   2.466
    1CAL  O03P121851   6.622   7.637   2.849
    1CAL  O03P221852   6.815   7.558   2.929
    1CAL  O03P321853   6.816   7.715   2.771
    1CAL  O03P421854   6.315   6.914   2.773
    1CAL  O03P521855   6.815   6.756   2.931
    1CAL  O03P621856   6.937   7.621   2.465
    1CAL  O03P721857   7.130   7.542   2.545
    1CAL  O03P821858   6.315   6.756   2.932
    1CAL  O03P921859   6.122   6.835   2.852
    1CAL  O03PA21860   6.815   6.914   2.773
    1CAL  O03PB21861   6.937   6.817   2.465
    1CAL  O03PC21862   6.937   6.659   2.624
    1CAL  O03PD21863   7.130   6.738   2.545
    1CAL  O03PE21864   6.871   7.331   3.159
    1CAL  O03PF21865   7.067   7.254   3.237
    1CAL  O03PG21866   6.936   7.464   2.624
    1CAL  O03PH21867   7.687   7.316   2.773
    1CAL  O03PI21868   7.686   7.159   2.931
    1CAL  O03PJ21869   7.880   7.237   2.853
    1CAL  O03PK21870   7.935   7.654   3.238
    1CAL  O03PL21871   7.937   7.009   3.079
    1CAL  O03PM21872   7.935   6.851   3.238
    1CAL  O03PN21873   6.129   7.732   3.160
    1CAL  O03PO21874   6.065   6.607   3.079
    1CAL  O03PP21875   7.437   7.621   2.465
    1CAL  O03PQ21876   7.436   7.464   2.624
    1CAL  O03PR21877   7.630   7.542   2.545
    1CAL  O03PS21878   6.066   6.450   3.239
    1CAL  O03PT21879   7.435   7.655   3.238
    1CAL  O03PU21880   6.066   8.020   2.466
    1CAL  O03PV21881   6.065   7.863   2.624
    1CAL  O03PW21882   6.872   7.943   2.544
    1CAL  O03PX21883   7.872   7.331   3.160
    1CAL  O03PY21884   7.937   6.659   2.624
    1CAL  O03PZ21885   7.065   6.607   3.079
    1CAL  O03Pa21886   6.437   7.621   2.465
    1CAL  O03Pb21887   6.436   7.464   2.624
    1CAL  O03Pc21888   6.630   7.542   2.545
    1CAL  O03Pd21889   7.066   6.449   3.238
    1CAL  O03Pe21890   6.434   7.655   3.238
    1CAL  O03Pf21891   6.872   6.528   3.159
    1CAL  O03Pg21892   7.873   7.140   2.545
    1CAL  O03Ph21893   7.066   8.020   2.466
    1CAL  O03Pi21894   7.065   7.863   2.624
    1CAL  O03Pj21895   7.623   7.637   2.849
    1CAL  O03Pk21896   7.815   7.558   2.929
    1CAL  O03Pl21897   7.816   7.715   2.770
    1CAL  O03Pm21898   7.938   7.621   2.465
    1CAL  O03Pn21899   7.936   7.464   2.624
    1CAL  O03Po21900   7.937   6.817   2.465
    1CAL  O03Pp21901   6.630   6.738   2.544
    1CAL  O03Pq21902   6.380   7.237   2.853
    1CAL  O03Pr21903   6.371   7.331   3.162
    1CAL  O03Ps21904   7.066   7.062   2.624
    1CAL  O03Pt21905   7.565   7.863   2.624
    1CAL  O03Pu21906   7.566   8.020   2.466
    1CAL  O03Pv21907   7.623   6.835   2.852
    1CAL  O03Pw21908   7.816   6.756   2.931
    1CAL  O03Px21909   7.373   7.943   2.544
    1CAL  O03Py21910   7.122   6.835   2.852
    1CAL  O03Pz21911   7.315   6.914   2.773
    1CAL  O03Q021912   6.629   7.732   3.159
    1CAL  O03Q121913   7.437   6.816   2.466
    1CAL  O03Q221914   7.437   6.659   2.624
    1CAL  O03Q321915   7.630   6.738   2.544
    1CAL  O03Q421916   7.372   7.331   3.161
    1CAL  O03Q521917   7.567   7.254   3.237
    1CAL  O03Q621918   7.316   6.756   2.931
    1CAL  O03Q721919   7.564   7.412   3.078
    1CAL  O03Q821920   6.066   7.062   2.624
    1CAL  O03Q921921   7.566   7.062   2.624
    1CAL  O03QA21922   6.187   7.316   2.773
    1CAL  O03QB21923   6.064   7.412   3.078
    1CAL  O03QC21924   6.066   7.254   3.238
    1CAL  O03QD21925   6.129   6.929   3.160
    1CAL  O03QE21926   6.130   6.738   2.545
    1CAL  O03QF21927   6.129   7.542   2.545
    1CAL  O03QG21928   7.565   7.219   2.466
    1CAL  O03QH21929   6.316   7.715   2.771
    1CAL  O03QI21930   7.873   7.943   2.544
    1CAL  O03QJ21931   7.872   6.528   3.160
    1CAL  O03QK21932   6.122   7.637   2.849
    1CAL  O03QL21933   7.936   7.811   3.078
    1CAL  O03QM21934   6.065   7.219   2.466
    1CAL  O03QN21935   7.373   7.140   2.545
    1CAL  O03QO21936   6.315   7.558   2.929
    1CAL  O03QP21937   6.435   7.812   3.078
    1CAL  O03QQ21938   6.629   6.929   3.159
    1CAL  O03QR21939   7.372   6.527   3.161
    1CAL  O03QS21940   7.437   7.009   3.078
    1CAL  O03QT21941   7.435   6.852   3.238
    1CAL  O03QU21942   7.630   6.929   3.159
    1CAL  O03QV21943   6.880   6.432   2.852
    1CAL  O03QW21944   6.687   7.960   2.931
    1CAL  O03QX21945   7.435   7.811   3.078
    1CAL  O03QY21946   7.629   7.732   3.158
    1CAL  O03QZ21947   6.687   6.511   2.773
    1CAL  O03Qa21948   6.564   6.607   3.079
    1CAL  O03Qb21949   6.567   6.450   3.238
    1CAL  O03Qc21950   6.371   6.528   3.161
    1CAL  O03Qd21951   6.563   7.412   3.078
    1CAL  O03Qe21952   6.568   7.254   3.238
    1CAL  O03Qf21953   6.872   7.140   2.545
    1CAL  O03Qg21954   7.567   6.449   3.238
    1CAL  O03Qh21955   7.565   6.607   3.079
    1CAL  O03Qi21956   6.434   6.852   3.238
    1CAL  O03Qj21957   6.436   7.010   3.079
    1CAL  O03Qk21958   7.687   6.511   2.773
    1CAL  O03Ql21959   7.687   7.960   2.931
    1CAL  O03Qm21960   7.880   6.432   2.852
    1CAL  O03Qn21961   6.380   6.433   2.852
    1CAL  O03Qo21962   6.187   7.960   2.931
    1CAL  O03Qp21963   6.186   6.511   2.773
    1CAL  O03Qq21964   7.187   6.511   2.773
    1CAL  O03Qr21965   7.187   7.960   2.931
    1CAL  O03Qs21966   7.380   6.433   2.852
    1CAL  O03Qt21967   7.065   7.219   2.466
    1CAL  O03Qu21968   7.816   6.914   2.773
    1CAL  O03Qv21969   6.821   7.905   3.387
    1CAL  O03Qw21970   6.812   7.753   3.553
    1CAL  O03Qx21971   6.622   7.837   3.467
    1CAL  O03Qy21972   6.679   7.504   3.386
    1CAL  O03Qz21973   6.688   7.353   3.552
    1CAL  O03R021974   6.878   7.435   3.465
    1CAL  O03R121975   6.878   6.632   3.466
    1CAL  O03R221976   6.688   6.549   3.553
    1CAL  O03R321977   6.679   6.700   3.387
    1CAL  O03R421978   6.622   7.034   3.466
    1CAL  O03R521979   6.812   6.950   3.552
    1CAL  O03R621980   6.821   7.102   3.387
    1CAL  O03R721981   7.680   7.504   3.386
    1CAL  O03R821982   7.878   7.435   3.466
    1CAL  O03R921983   7.688   7.352   3.552
    1CAL  O03RA21984   7.623   7.836   3.466
    1CAL  O03RB21985   7.812   7.753   3.552
    1CAL  O03RC21986   7.821   7.905   3.387
    1CAL  O03RD21987   7.679   6.700   3.387
    1CAL  O03RE21988   7.878   6.632   3.466
    1CAL  O03RF21989   7.688   6.549   3.553
    1CAL  O03RG21990   7.622   7.033   3.466
    1CAL  O03RH21991   7.812   6.950   3.552
    1CAL  O03RI21992   7.821   7.102   3.387
    1CAL  O03RJ21993   7.312   7.753   3.553
    1CAL  O03RK21994   7.122   7.836   3.467
    1CAL  O03RL21995   7.321   7.904   3.387
    1CAL  O03RM21996   7.180   7.503   3.387
    1CAL  O03RN21997   7.189   7.351   3.553
    1CAL  O03RO21998   7.379   7.435   3.467
    1CAL  O03RP21999   7.312   6.950   3.553
    1CAL  O03RQ22000   7.321   7.101   3.387
    1CAL  O03RR22001   7.122   7.034   3.466
    1CAL  O03RS22002   7.180   6.700   3.388
    1CAL  O03RT22003   7.188   6.548   3.553
    1CAL  O03RU22004   7.378   6.632   3.468
    1CAL  O03RV22005   6.311   7.753   3.554
    1CAL  O03RW22006   6.122   7.837   3.467
    1CAL  O03RX22007   6.321   7.904   3.388
    1CAL  O03RY22008   6.180   7.503   3.388
    1CAL  O03RZ22009   6.189   7.351   3.553
    1CAL  O03Ra22010   6.379   7.435   3.469
    1CAL  O03Rb22011   6.311   6.951   3.554
    1CAL  O03Rc22012   6.122   7.034   3.466
    1CAL  O03Rd22013   6.321   7.102   3.387
    1CAL  O03Re22014   6.378   6.632   3.469
    1CAL  O03Rf22015   6.188   6.548   3.554
    1CAL  O03Rg22016   6.180   6.700   3.389
    1CAL  Ca18D22017   7.003   7.235   3.464
    1CAL  Ca18E22018   7.751   6.939   2.545
    1CAL  Ca18F22019   7.497   7.636   3.465
    1CAL  Ca18G22020   6.003   7.235   3.465
    1CAL  Ca18H22021   6.751   7.932   3.160
    1CAL  Ca18I22022   7.751   7.341   2.545
    1CAL  Ca18J22023   7.501   7.036   2.852
    1CAL  Ca18K22024   7.501   7.838   2.852
    1CAL  Ca18L22025   6.250   7.531   3.159
    1CAL  Ca18M22026   7.001   7.838   2.852
    1CAL  Ca18N22027   6.503   6.432   3.465
    1CAL  Ca18O22028   6.251   6.939   2.545
    1CAL  Ca18P22029   6.251   7.130   3.160
    1CAL  Ca18Q22030   7.998   6.833   3.465
    1CAL  Ca18R22031   7.998   7.636   3.465
    1CAL  Ca18S22032   7.750   7.531   3.158
    1CAL  Ca18T22033   7.251   6.537   2.545
    1CAL  Ca18U22034   8.001   7.838   2.852
    1CAL  Ca18V22035   7.751   6.537   2.545
    1CAL  Ca18W22036   6.496   6.834   3.465
    1CAL  Ca18X22037   6.003   6.432   3.466
    1CAL  Ca18Y22038   7.752   7.130   3.160
    1CAL  Ca18Z22039   6.251   7.341   2.545
    1CAL  Ca18a22040   8.001   7.036   2.852
    1CAL  Ca18b22041   7.501   7.437   2.851
    1CAL  Ca18c22042   6.251   7.933   3.160
    1CAL  Ca18d22043   7.751   7.742   2.546
    1CAL  Ca18e22044   6.501   7.437   2.851
    1CAL  Ca18f22045   6.497   7.637   3.465
    1CAL  Ca18g22046   8.001   6.634   2.852
    1CAL  Ca18h22047   6.501   7.838   2.852
    1CAL  Ca18i22048   7.497   6.833   3.465
    1CAL  Ca18j22049   7.251   7.341   2.545
    1CAL  Ca18k22050   6.751   7.341   2.545
    1CAL  Ca18l22051   7.001   6.634   2.852
    1CAL  Ca18m22052   7.001   7.437   2.851
    1CAL  Ca18n22053   6.501   7.036   2.852
    1CAL  Ca18o22054   7.001   7.036   2.852
    1CAL  Ca18p22055   6.750   7.531   3.159
    1CAL  Ca18q22056   6.251   6.537   2.545
    1CAL  Ca18r22057   6.751   6.939   2.545
    1CAL  Ca18s22058   7.251   6.939   2.545
    1CAL  Ca18t22059   7.250   7.531   3.159
    1CAL  Ca18u22060   7.251   7.932   3.160
    1CAL  Ca18v22061   7.750   6.728   3.160
    1CAL  Ca18w22062   7.003   6.432   3.465
    1CAL  Ca18x22063   6.749   6.728   3.160
    1CAL  Ca18y22064   6.504   7.235   3.464
    1CAL  Ca18z22065   6.501   6.634   2.852
    1CAL  Ca19022066   6.751   6.537   2.545
    1CAL  Ca19122067   7.251   7.742   2.546
    1CAL  Ca19222068   7.250   6.728   3.160
    1CAL  Ca19322069   6.997   6.833   3.465
    1CAL  Ca19422070   6.751   7.742   2.546
    1CAL  Ca19522071   6.997   7.636   3.465
    1CAL  Ca19622072   6.251   7.742   2.546
    1CAL  Ca19722073   7.501   6.634   2.852
    1CAL  Ca19822074   7.504   7.235   3.464
    1CAL  Ca19922075   7.503   6.431   3.465
    1CAL  Ca19A22076   6.751   7.130   3.160
    1CAL  Ca19B22077   7.751   7.933   3.160
    1CAL  Ca19C22078   7.251   7.130   3.160
    1CAL  Ca19D22079   6.250   6.728   3.160
    1CAL  Ca19E22080   8.001   7.437   2.851
    1CAL  C019F22081   8.001   9.548   0.089
    1CAL  C019G22082   7.251   8.038   0.396
    1CAL  C019H22083   6.251   8.038   0.396
    1CAL  C019I22084   7.500   8.536   0.702
    1CAL  C019J22085   7.500   9.339   0.702
    1CAL  C019K22086   6.751   8.038   0.396
    1CAL  C019L22087   7.001   8.746   0.089
    1CAL  C019M22088   7.251   9.243   0.393
    1CAL  C019N22089   6.751   9.243   0.394
    1CAL  C019O22090   6.501   8.938   0.703
    1CAL  C019P22091   6.501   8.344   0.089
    1CAL  C019Q22092   7.001   9.148   0.089
    1CAL  C019R22093   7.001   8.344   0.089
    1CAL  C019S22094   6.251   8.441   0.396
    1CAL  C019T22095   6.501   8.134   0.703
    1CAL  C019U22096   7.001   8.938   0.702
    1CAL  C019V22097   7.751   8.038   0.396
    1CAL  C019W22098   7.501   8.134   0.703
    1CAL  C019X22099   6.251   8.843   0.396
    1CAL  C019Y22100   8.000   8.536   0.703
    1CAL  C019Z22101   8.001   8.938   0.702
    1CAL  C019a22102   8.001   8.344   0.089
    1CAL  C019b22103   8.001   9.148   0.089
    1CAL  C019c22104   6.251   9.243   0.394
    1CAL  C019d22105   6.500   8.536   0.702
    1CAL  C019e22106   7.501   8.746   0.089
    1CAL  C019f22107   8.001   8.746   0.089
    1CAL  C019g22108   7.751   8.441   0.396
    1CAL  C019h22109   7.251   8.441   0.396
    1CAL  C019i22110   7.501   8.344   0.089
    1CAL  C019j22111   7.501   8.938   0.702
    1CAL  C019k22112   6.499   9.339   0.702
    1CAL  C019l22113   7.501   9.548   0.089
    1CAL  C019m22114   6.751   8.441   0.396
    1CAL  C019n22115   7.251   8.843   0.396
    1CAL  C019o22116   6.501   9.148   0.089
    1CAL  C019p22117   7.751   9.243   0.393
    1CAL  C019q22118   7.001   9.548   0.089
    1CAL  C019r22119   8.000   9.339   0.703
    1CAL  C019s22120   7.001   8.134   0.702
    1CAL  C019t22121   7.000   9.339   0.702
    1CAL  C019u22122   7.000   8.536   0.703
    1CAL  C019v22123   7.751   8.843   0.396
    1CAL  C019w22124   6.501   9.548   0.089
    1CAL  C019x22125   7.501   9.148   0.089
    1CAL  C019y22126   6.501   8.746   0.089
    1CAL  C019z22127   6.751   8.843   0.396
    1CAL  C01A022128   8.001   8.134   0.703
    1CAL  C01A122129   6.752   8.634   1.013
    1CAL  C01A222130   6.748   8.233   1.013
    1CAL  C01A322131   6.748   9.036   1.012
    1CAL  C01A422132   6.752   9.437   1.013
    1CAL  C01A522133   7.752   8.634   1.013
    1CAL  C01A622134   7.748   8.233   1.013
    1CAL  C01A722135   7.752   9.437   1.013
    1CAL  C01A822136   7.749   9.036   1.012
    1CAL  C01A922137   7.252   9.437   1.013
    1CAL  C01AA22138   7.249   9.035   1.013
    1CAL  C01AB22139   7.252   8.634   1.013
    1CAL  C01AC22140   7.248   8.232   1.014
    1CAL  C01AD22141   6.252   9.437   1.014
    1CAL  C01AE22142   6.249   9.035   1.014
    1CAL  C01AF22143   6.252   8.635   1.013
    1CAL  C01AG22144   6.248   8.232   1.015
    1CAL  O03Rh22145   6.186   8.765   0.475
    1CAL  O03Ri22146   7.187   8.922   0.317
    1CAL  O03Rj22147   7.186   8.765   0.475
    1CAL  O03Rk22148   7.380   8.843   0.397
    1CAL  O03Rl22149   6.565   9.469   0.168
    1CAL  O03Rm22150   6.372   9.549   0.088
    1CAL  O03Rn22151   6.565   8.825   0.010
    1CAL  O03Ro22152   6.687   8.922   0.317
    1CAL  O03Rp22153   6.686   8.765   0.475
    1CAL  O03Rq22154   6.880   8.843   0.397
    1CAL  O03Rr22155   6.566   9.626   0.010
    1CAL  O03Rs22156   6.565   8.668   0.168
    1CAL  O03Rt22157   6.372   8.746   0.089
    1CAL  O03Ru22158   7.129   9.338   0.703
    1CAL  O03Rv22159   6.936   9.417   0.622
    1CAL  O03Rw22160   6.937   8.615   0.622
    1CAL  O03Rx22161   6.934   8.458   0.782
    1CAL  O03Ry22162   7.129   8.535   0.704
    1CAL  O03Rz22163   6.934   9.261   0.782
    1CAL  O03S022164   6.622   8.441   0.396
    1CAL  O03S122165   7.064   9.017   0.622
    1CAL  O03S222166   7.123   9.243   0.393
    1CAL  O03S322167   7.315   9.164   0.473
    1CAL  O03S422168   7.316   9.321   0.315
    1CAL  O03S522169   6.437   8.265   0.168
    1CAL  O03S622170   6.436   8.422   0.010
    1CAL  O03S722171   6.622   9.243   0.393
    1CAL  O03S822172   6.815   9.164   0.473
    1CAL  O03S922173   6.816   9.321   0.315
    1CAL  O03SA22174   6.315   8.520   0.317
    1CAL  O03SB22175   6.815   8.362   0.475
    1CAL  O03SC22176   6.937   9.227   0.009
    1CAL  O03SD22177   7.130   9.148   0.089
    1CAL  O03SE22178   6.315   8.362   0.476
    1CAL  O03SF22179   6.122   8.441   0.396
    1CAL  O03SG22180   6.815   8.520   0.317
    1CAL  O03SH22181   6.937   8.423   0.009
    1CAL  O03SI22182   6.937   8.265   0.168
    1CAL  O03SJ22183   7.130   8.344   0.089
    1CAL  O03SK22184   6.871   8.937   0.703
    1CAL  O03SL22185   7.067   8.860   0.781
    1CAL  O03SM22186   6.936   9.070   0.168
    1CAL  O03SN22187   7.687   8.922   0.317
    1CAL  O03SO22188   7.686   8.765   0.475
    1CAL  O03SP22189   7.880   8.843   0.397
    1CAL  O03SQ22190   7.935   9.260   0.782
    1CAL  O03SR22191   7.937   8.615   0.623
    1CAL  O03SS22192   7.935   8.457   0.782
    1CAL  O03ST22193   6.129   9.338   0.704
    1CAL  O03SU22194   6.065   8.213   0.623
    1CAL  O03SV22195   7.437   9.227   0.009
    1CAL  O03SW22196   7.436   9.070   0.168
    1CAL  O03SX22197   7.630   9.148   0.089
    1CAL  O03SY22198   6.066   8.056   0.783
    1CAL  O03SZ22199   7.435   9.261   0.782
    1CAL  O03Sa22200   6.066   9.626   0.010
    1CAL  O03Sb22201   6.065   9.469   0.168
    1CAL  O03Sc22202   6.872   9.549   0.088
    1CAL  O03Sd22203   7.872   8.937   0.704
    1CAL  O03Se22204   7.937   8.265   0.168
    1CAL  O03Sf22205   7.065   8.213   0.623
    1CAL  O03Sg22206   6.437   9.227   0.009
    1CAL  O03Sh22207   6.436   9.070   0.168
    1CAL  O03Si22208   6.630   9.148   0.089
    1CAL  O03Sj22209   7.066   8.055   0.782
    1CAL  O03Sk22210   6.434   9.261   0.782
    1CAL  O03Sl22211   6.872   8.134   0.703
    1CAL  O03Sm22212   7.873   8.746   0.089
    1CAL  O03Sn22213   7.066   9.626   0.010
    1CAL  O03So22214   7.065   9.469   0.168
    1CAL  O03Sp22215   7.623   9.243   0.393
    1CAL  O03Sq22216   7.815   9.164   0.473
    1CAL  O03Sr22217   7.816   9.321   0.314
    1CAL  O03Ss22218   7.938   9.227   0.009
    1CAL  O03St22219   7.936   9.070   0.168
    1CAL  O03Su22220   7.937   8.423   0.009
    1CAL  O03Sv22221   6.630   8.344   0.088
    1CAL  O03Sw22222   6.380   8.843   0.397
    1CAL  O03Sx22223   6.371   8.937   0.706
    1CAL  O03Sy22224   7.066   8.668   0.168
    1CAL  O03Sz22225   7.565   9.469   0.168
    1CAL  O03T022226   7.566   9.626   0.010
    1CAL  O03T122227   7.623   8.441   0.396
    1CAL  O03T222228   7.816   8.362   0.475
    1CAL  O03T322229   7.373   9.549   0.088
    1CAL  O03T422230   7.122   8.441   0.396
    1CAL  O03T522231   7.315   8.520   0.317
    1CAL  O03T622232   6.629   9.338   0.703
    1CAL  O03T722233   7.437   8.422   0.010
    1CAL  O03T822234   7.437   8.265   0.168
    1CAL  O03T922235   7.630   8.344   0.088
    1CAL  O03TA22236   7.372   8.937   0.705
    1CAL  O03TB22237   7.567   8.860   0.781
    1CAL  O03TC22238   7.316   8.362   0.475
    1CAL  O03TD22239   7.564   9.018   0.622
    1CAL  O03TE22240   6.066   8.668   0.168
    1CAL  O03TF22241   7.566   8.668   0.168
    1CAL  O03TG22242   6.187   8.922   0.317
    1CAL  O03TH22243   6.064   9.018   0.622
    1CAL  O03TI22244   6.066   8.860   0.782
    1CAL  O03TJ22245   6.129   8.535   0.704
    1CAL  O03TK22246   6.130   8.344   0.089
    1CAL  O03TL22247   6.129   9.148   0.089
    1CAL  O03TM22248   7.565   8.825   0.010
    1CAL  O03TN22249   6.316   9.321   0.315
    1CAL  O03TO22250   7.873   9.549   0.088
    1CAL  O03TP22251   7.872   8.134   0.704
    1CAL  O03TQ22252   6.122   9.243   0.393
    1CAL  O03TR22253   7.936   9.417   0.622
    1CAL  O03TS22254   6.065   8.825   0.010
    1CAL  O03TT22255   7.373   8.746   0.089
    1CAL  O03TU22256   6.315   9.164   0.473
    1CAL  O03TV22257   6.435   9.418   0.622
    1CAL  O03TW22258   6.629   8.535   0.703
    1CAL  O03TX22259   7.372   8.133   0.705
    1CAL  O03TY22260   7.437   8.615   0.622
    1CAL  O03TZ22261   7.435   8.458   0.782
    1CAL  O03Ta22262   7.630   8.535   0.703
    1CAL  O03Tb22263   6.880   8.038   0.396
    1CAL  O03Tc22264   6.687   9.566   0.475
    1CAL  O03Td22265   7.435   9.417   0.622
    1CAL  O03Te22266   7.629   9.338   0.702
    1CAL  O03Tf22267   6.687   8.117   0.317
    1CAL  O03Tg22268   6.564   8.213   0.623
    1CAL  O03Th22269   6.567   8.056   0.782
    1CAL  O03Ti22270   6.371   8.134   0.705
    1CAL  O03Tj22271   6.563   9.018   0.622
    1CAL  O03Tk22272   6.568   8.860   0.782
    1CAL  O03Tl22273   6.872   8.746   0.089
    1CAL  O03Tm22274   7.567   8.055   0.782
    1CAL  O03Tn22275   7.565   8.213   0.623
    1CAL  O03To22276   6.434   8.458   0.782
    1CAL  O03Tp22277   6.436   8.616   0.623
    1CAL  O03Tq22278   7.687   8.117   0.317
    1CAL  O03Tr22279   7.687   9.566   0.475
    1CAL  O03Ts22280   7.880   8.038   0.396
    1CAL  O03Tt22281   6.380   8.039   0.396
    1CAL  O03Tu22282   6.187   9.566   0.475
    1CAL  O03Tv22283   6.186   8.117   0.317
    1CAL  O03Tw22284   7.187   8.117   0.317
    1CAL  O03Tx22285   7.187   9.566   0.475
    1CAL  O03Ty22286   7.380   8.039   0.396
    1CAL  O03Tz22287   7.065   8.825   0.010
    1CAL  O03U022288   7.816   8.520   0.317
    1CAL  O03U122289   6.821   9.511   0.931
    1CAL  O03U222290   6.812   9.359   1.097
    1CAL  O03U322291   6.622   9.443   1.011
    1CAL  O03U422292   6.679   9.110   0.930
    1CAL  O03U522293   6.688   8.959   1.096
    1CAL  O03U622294   6.878   9.041   1.009
    1CAL  O03U722295   6.878   8.238   1.010
    1CAL  O03U822296   6.688   8.155   1.097
    1CAL  O03U922297   6.679   8.306   0.931
    1CAL  O03UA22298   6.622   8.640   1.010
    1CAL  O03UB22299   6.812   8.556   1.096
    1CAL  O03UC22300   6.821   8.708   0.931
    1CAL  O03UD22301   7.680   9.110   0.930
    1CAL  O03UE22302   7.878   9.041   1.010
    1CAL  O03UF22303   7.688   8.958   1.096
    1CAL  O03UG22304   7.623   9.442   1.010
    1CAL  O03UH22305   7.812   9.359   1.096
    1CAL  O03UI22306   7.821   9.511   0.931
    1CAL  O03UJ22307   7.679   8.306   0.931
    1CAL  O03UK22308   7.878   8.238   1.010
    1CAL  O03UL22309   7.688   8.155   1.097
    1CAL  O03UM22310   7.622   8.639   1.010
    1CAL  O03UN22311   7.812   8.556   1.096
    1CAL  O03UO22312   7.821   8.708   0.931
    1CAL  O03UP22313   7.312   9.359   1.097
    1CAL  O03UQ22314   7.122   9.442   1.011
    1CAL  O03UR22315   7.321   9.510   0.931
    1CAL  O03US22316   7.180   9.109   0.931
    1CAL  O03UT22317   7.189   8.957   1.097
    1CAL  O03UU22318   7.379   9.041   1.011
    1CAL  O03UV22319   7.312   8.556   1.097
    1CAL  O03UW22320   7.321   8.707   0.931
    1CAL  O03UX22321   7.122   8.640   1.010
    1CAL  O03UY22322   7.180   8.306   0.932
    1CAL  O03UZ22323   7.188   8.154   1.097
    1CAL  O03Ua22324   7.378   8.238   1.012
    1CAL  O03Ub22325   6.311   9.359   1.098
    1CAL  O03Uc22326   6.122   9.443   1.011
    1CAL  O03Ud22327   6.321   9.510   0.932
    1CAL  O03Ue22328   6.180   9.109   0.932
    1CAL  O03Uf22329   6.189   8.957   1.097
    1CAL  O03Ug22330   6.379   9.041   1.013
    1CAL  O03Uh22331   6.311   8.557   1.098
    1CAL  O03Ui22332   6.122   8.640   1.010
    1CAL  O03Uj22333   6.321   8.708   0.931
    1CAL  O03Uk22334   6.378   8.238   1.013
    1CAL  O03Ul22335   6.188   8.154   1.098
    1CAL  O03Um22336   6.180   8.306   0.933
    1CAL  Ca19F22337   7.003   8.841   1.008
    1CAL  Ca19G22338   7.751   8.545   0.089
    1CAL  Ca19H22339   7.497   9.242   1.009
    1CAL  Ca19I22340   6.003   8.841   1.009
    1CAL  Ca19J22341   6.751   9.538   0.704
    1CAL  Ca19K22342   7.751   8.947   0.089
    1CAL  Ca19L22343   7.501   8.642   0.396
    1CAL  Ca19M22344   7.501   9.444   0.396
    1CAL  Ca19N22345   6.250   9.137   0.703
    1CAL  Ca19O22346   7.001   9.444   0.396
    1CAL  Ca19P22347   6.503   8.038   1.009
    1CAL  Ca19Q22348   6.251   8.545   0.089
    1CAL  Ca19R22349   6.251   8.736   0.704
    1CAL  Ca19S22350   7.998   8.439   1.009
    1CAL  Ca19T22351   7.998   9.242   1.009
    1CAL  Ca19U22352   7.750   9.137   0.702
    1CAL  Ca19V22353   7.251   8.143   0.089
    1CAL  Ca19W22354   8.001   9.444   0.396
    1CAL  Ca19X22355   7.751   8.143   0.089
    1CAL  Ca19Y22356   6.496   8.440   1.009
    1CAL  Ca19Z22357   6.003   8.038   1.010
    1CAL  Ca19a22358   7.752   8.736   0.704
    1CAL  Ca19b22359   6.251   8.947   0.089
    1CAL  Ca19c22360   8.001   8.642   0.396
    1CAL  Ca19d22361   7.501   9.043   0.395
    1CAL  Ca19e22362   6.251   9.539   0.704
    1CAL  Ca19f22363   7.751   9.348   0.090
    1CAL  Ca19g22364   6.501   9.043   0.395
    1CAL  Ca19h22365   6.497   9.243   1.009
    1CAL  Ca19i22366   8.001   8.240   0.396
    1CAL  Ca19j22367   6.501   9.444   0.396
    1CAL  Ca19k22368   7.497   8.439   1.009
    1CAL  Ca19l22369   7.251   8.947   0.089
    1CAL  Ca19m22370   6.751   8.947   0.089
    1CAL  Ca19n22371   7.001   8.240   0.396
    1CAL  Ca19o22372   7.001   9.043   0.395
    1CAL  Ca19p22373   6.501   8.642   0.396
    1CAL  Ca19q22374   7.001   8.642   0.396
    1CAL  Ca19r22375   6.750   9.137   0.703
    1CAL  Ca19s22376   6.251   8.143   0.089
    1CAL  Ca19t22377   6.751   8.545   0.089
    1CAL  Ca19u22378   7.251   8.545   0.089
    1CAL  Ca19v22379   7.250   9.137   0.703
    1CAL  Ca19w22380   7.251   9.538   0.704
    1CAL  Ca19x22381   7.750   8.334   0.704
    1CAL  Ca19y22382   7.003   8.038   1.009
    1CAL  Ca19z22383   6.749   8.334   0.704
    1CAL  Ca1A022384   6.504   8.841   1.008
    1CAL  Ca1A122385   6.501   8.240   0.396
    1CAL  Ca1A222386   6.751   8.143   0.089
    1CAL  Ca1A322387   7.251   9.348   0.090
    1CAL  Ca1A422388   7.250   8.334   0.704
    1CAL  Ca1A522389   6.997   8.439   1.009
    1CAL  Ca1A622390   6.751   9.348   0.090
    1CAL  Ca1A722391   6.997   9.242   1.009
    1CAL  Ca1A822392   6.251   9.348   0.090
    1CAL  Ca1A922393   7.501   8.240   0.396
    1CAL  Ca1AA22394   7.504   8.841   1.008
    1CAL  Ca1AB22395   7.503   8.037   1.009
    1CAL  Ca1AC22396   6.751   8.736   0.704
    1CAL  Ca1AD22397   7.751   9.539   0.704
    1CAL  Ca1AE22398   7.251   8.736   0.704
    1CAL  Ca1AF22399   6.250   8.334   0.704
    1CAL  Ca1AG22400   8.001   9.043   0.395
    1CAL  C01AH22401   8.001   9.548   1.317
    1CAL  C01AI22402   7.251   8.038   1.624
    1CAL  C01AJ22403   6.251   8.038   1.624
    1CAL  C01AK22404   7.500   8.536   1.930
    1CAL  C01AL22405   7.500   9.339   1.930
    1CAL  C01AM22406   6.751   8.038   1.624
    1CAL  C01AN22407   7.001   8.746   1.317
    1CAL  C01AO22408   7.251   9.243   1.621
    1CAL  C01AP22409   6.751   9.243   1.622
    1CAL  C01AQ22410   6.501   8.938   1.931
    1CAL  C01AR22411   6.501   8.344   1.317
    1CAL  C01AS22412   7.001   9.148   1.317
    1CAL  C01AT22413   7.001   8.344   1.317
    1CAL  C01AU22414   6.251   8.441   1.624
    1CAL  C01AV22415   6.501   8.134   1.931
    1CAL  C01AW22416   7.001   8.938   1.930
    1CAL  C01AX22417   7.751   8.038   1.624
    1CAL  C01AY22418   7.501   8.134   1.931
    1CAL  C01AZ22419   6.251   8.843   1.624
    1CAL  C01Aa22420   8.000   8.536   1.931
    1CAL  C01Ab22421   8.001   8.938   1.930
    1CAL  C01Ac22422   8.001   8.344   1.317
    1CAL  C01Ad22423   8.001   9.148   1.317
    1CAL  C01Ae22424   6.251   9.243   1.622
    1CAL  C01Af22425   6.500   8.536   1.930
    1CAL  C01Ag22426   7.501   8.746   1.317
    1CAL  C01Ah22427   8.001   8.746   1.317
    1CAL  C01Ai22428   7.751   8.441   1.624
    1CAL  C01Aj22429   7.251   8.441   1.624
    1CAL  C01Ak22430   7.501   8.344   1.317
    1CAL  C01Al22431   7.501   8.938   1.930
    1CAL  C01Am22432   6.499   9.339   1.930
    1CAL  C01An22433   7.501   9.548   1.317
    1CAL  C01Ao22434   6.751   8.441   1.624
    1CAL  C01Ap22435   7.251   8.843   1.624
    1CAL  C01Aq22436   6.501   9.148   1.317
    1CAL  C01Ar22437   7.751   9.243   1.621
    1CAL  C01As22438   7.001   9.548   1.317
    1CAL  C01At22439   8.000   9.339   1.931
    1CAL  C01Au22440   7.001   8.134   1.930
    1CAL  C01Av22441   7.000   9.339   1.930
    1CAL  C01Aw22442   7.000   8.536   1.931
    1CAL  C01Ax22443   7.751   8.843   1.624
    1CAL  C01Ay22444   6.501   9.548   1.317
    1CAL  C01Az22445   7.501   9.148   1.317
    1CAL  C01B022446   6.501   8.746   1.317
    1CAL  C01B122447   6.751   8.843   1.624
    1CAL  C01B222448   8.001   8.134   1.931
    1CAL  C01B322449   6.752   8.634   2.241
    1CAL  C01B422450   6.748   8.233   2.241
    1CAL  C01B522451   6.748   9.036   2.240
    1CAL  C01B622452   6.752   9.437   2.241
    1CAL  C01B722453   7.752   8.634   2.241
    1CAL  C01B822454   7.748   8.233   2.241
    1CAL  C01B922455   7.752   9.437   2.241
    1CAL  C01BA22456   7.749   9.036   2.240
    1CAL  C01BB22457   7.252   9.437   2.241
    1CAL  C01BC22458   7.249   9.035   2.241
    1CAL  C01BD22459   7.252   8.634   2.241
    1CAL  C01BE22460   7.248   8.232   2.242
    1CAL  C01BF22461   6.252   9.437   2.242
    1CAL  C01BG22462   6.249   9.035   2.242
    1CAL  C01BH22463   6.252   8.635   2.241
    1CAL  C01BI22464   6.248   8.232   2.243
    1CAL  O03Un22465   6.186   8.765   1.703
    1CAL  O03Uo22466   7.187   8.922   1.545
    1CAL  O03Up22467   7.186   8.765   1.703
    1CAL  O03Uq22468   7.380   8.843   1.625
    1CAL  O03Ur22469   6.565   9.469   1.396
    1CAL  O03Us22470   6.372   9.549   1.316
    1CAL  O03Ut22471   6.565   8.825   1.238
    1CAL  O03Uu22472   6.687   8.922   1.545
    1CAL  O03Uv22473   6.686   8.765   1.703
    1CAL  O03Uw22474   6.880   8.843   1.625
    1CAL  O03Ux22475   6.566   9.626   1.238
    1CAL  O03Uy22476   6.565   8.668   1.396
    1CAL  O03Uz22477   6.372   8.746   1.317
    1CAL  O03V022478   7.129   9.338   1.931
    1CAL  O03V122479   6.936   9.417   1.850
    1CAL  O03V222480   6.937   8.615   1.850
    1CAL  O03V322481   6.934   8.458   2.010
    1CAL  O03V422482   7.129   8.535   1.932
    1CAL  O03V522483   6.934   9.261   2.010
    1CAL  O03V622484   6.622   8.441   1.624
    1CAL  O03V722485   7.064   9.017   1.850
    1CAL  O03V822486   7.123   9.243   1.621
    1CAL  O03V922487   7.315   9.164   1.701
    1CAL  O03VA22488   7.316   9.321   1.543
    1CAL  O03VB22489   6.437   8.265   1.396
    1CAL  O03VC22490   6.436   8.422   1.238
    1CAL  O03VD22491   6.622   9.243   1.621
    1CAL  O03VE22492   6.815   9.164   1.701
    1CAL  O03VF22493   6.816   9.321   1.543
    1CAL  O03VG22494   6.315   8.520   1.545
    1CAL  O03VH22495   6.815   8.362   1.703
    1CAL  O03VI22496   6.937   9.227   1.237
    1CAL  O03VJ22497   7.130   9.148   1.317
    1CAL  O03VK22498   6.315   8.362   1.704
    1CAL  O03VL22499   6.122   8.441   1.624
    1CAL  O03VM22500   6.815   8.520   1.545
    1CAL  O03VN22501   6.937   8.423   1.237
    1CAL  O03VO22502   6.937   8.265   1.396
    1CAL  O03VP22503   7.130   8.344   1.317
    1CAL  O03VQ22504   6.871   8.937   1.931
    1CAL  O03VR22505   7.067   8.860   2.009
    1CAL  O03VS22506   6.936   9.070   1.396
    1CAL  O03VT22507   7.687   8.922   1.545
    1CAL  O03VU22508   7.686   8.765   1.703
    1CAL  O03VV22509   7.880   8.843   1.625
    1CAL  O03VW22510   7.935   9.260   2.010
    1CAL  O03VX22511   7.937   8.615   1.851
    1CAL  O03VY22512   7.935   8.457   2.010
    1CAL  O03VZ22513   6.129   9.338   1.932
    1CAL  O03Va22514   6.065   8.213   1.851
    1CAL  O03Vb22515   7.437   9.227   1.237
    1CAL  O03Vc22516   7.436   9.070   1.396
    1CAL  O03Vd22517   7.630   9.148   1.317
    1CAL  O03Ve22518   6.066   8.056   2.011
    1CAL  O03Vf22519   7.435   9.261   2.010
    1CAL  O03Vg22520   6.066   9.626   1.238
    1CAL  O03Vh22521   6.065   9.469   1.396
    1CAL  O03Vi22522   6.872   9.549   1.316
    1CAL  O03Vj22523   7.872   8.937   1.932
    1CAL  O03Vk22524   7.937   8.265   1.396
    1CAL  O03Vl22525   7.065   8.213   1.851
    1CAL  O03Vm22526   6.437   9.227   1.237
    1CAL  O03Vn22527   6.436   9.070   1.396
    1CAL  O03Vo22528   6.630   9.148   1.317
    1CAL  O03Vp22529   7.066   8.055   2.010
    1CAL  O03Vq22530   6.434   9.261   2.010
    1CAL  O03Vr22531   6.872   8.134   1.931
    1CAL  O03Vs22532   7.873   8.746   1.317
    1CAL  O03Vt22533   7.066   9.626   1.238
    1CAL  O03Vu22534   7.065   9.469   1.396
    1CAL  O03Vv22535   7.623   9.243   1.621
    1CAL  O03Vw22536   7.815   9.164   1.701
    1CAL  O03Vx22537   7.816   9.321   1.542
    1CAL  O03Vy22538   7.938   9.227   1.237
    1CAL  O03Vz22539   7.936   9.070   1.396
    1CAL  O03W022540   7.937   8.423   1.237
    1CAL  O03W122541   6.630   8.344   1.316
    1CAL  O03W222542   6.380   8.843   1.625
    1CAL  O03W322543   6.371   8.937   1.934
    1CAL  O03W422544   7.066   8.668   1.396
    1CAL  O03W522545   7.565   9.469   1.396
    1CAL  O03W622546   7.566   9.626   1.238
    1CAL  O03W722547   7.623   8.441   1.624
    1CAL  O03W822548   7.816   8.362   1.703
    1CAL  O03W922549   7.373   9.549   1.316
    1CAL  O03WA22550   7.122   8.441   1.624
    1CAL  O03WB22551   7.315   8.520   1.545
    1CAL  O03WC22552   6.629   9.338   1.931
    1CAL  O03WD22553   7.437   8.422   1.238
    1CAL  O03WE22554   7.437   8.265   1.396
    1CAL  O03WF22555   7.630   8.344   1.316
    1CAL  O03WG22556   7.372   8.937   1.933
    1CAL  O03WH22557   7.567   8.860   2.009
    1CAL  O03WI22558   7.316   8.362   1.703
    1CAL  O03WJ22559   7.564   9.018   1.850
    1CAL  O03WK22560   6.066   8.668   1.396
    1CAL  O03WL22561   7.566   8.668   1.396
    1CAL  O03WM22562   6.187   8.922   1.545
    1CAL  O03WN22563   6.064   9.018   1.850
    1CAL  O03WO22564   6.066   8.860   2.010
    1CAL  O03WP22565   6.129   8.535   1.932
    1CAL  O03WQ22566   6.130   8.344   1.317
    1CAL  O03WR22567   6.129   9.148   1.317
    1CAL  O03WS22568   7.565   8.825   1.238
    1CAL  O03WT22569   6.316   9.321   1.543
    1CAL  O03WU22570   7.873   9.549   1.316
    1CAL  O03WV22571   7.872   8.134   1.932
    1CAL  O03WW22572   6.122   9.243   1.621
    1CAL  O03WX22573   7.936   9.417   1.850
    1CAL  O03WY22574   6.065   8.825   1.238
    1CAL  O03WZ22575   7.373   8.746   1.317
    1CAL  O03Wa22576   6.315   9.164   1.701
    1CAL  O03Wb22577   6.435   9.418   1.850
    1CAL  O03Wc22578   6.629   8.535   1.931
    1CAL  O03Wd22579   7.372   8.133   1.933
    1CAL  O03We22580   7.437   8.615   1.850
    1CAL  O03Wf22581   7.435   8.458   2.010
    1CAL  O03Wg22582   7.630   8.535   1.931
    1CAL  O03Wh22583   6.880   8.038   1.624
    1CAL  O03Wi22584   6.687   9.566   1.703
    1CAL  O03Wj22585   7.435   9.417   1.850
    1CAL  O03Wk22586   7.629   9.338   1.930
    1CAL  O03Wl22587   6.687   8.117   1.545
    1CAL  O03Wm22588   6.564   8.213   1.851
    1CAL  O03Wn22589   6.567   8.056   2.010
    1CAL  O03Wo22590   6.371   8.134   1.933
    1CAL  O03Wp22591   6.563   9.018   1.850
    1CAL  O03Wq22592   6.568   8.860   2.010
    1CAL  O03Wr22593   6.872   8.746   1.317
    1CAL  O03Ws22594   7.567   8.055   2.010
    1CAL  O03Wt22595   7.565   8.213   1.851
    1CAL  O03Wu22596   6.434   8.458   2.010
    1CAL  O03Wv22597   6.436   8.616   1.851
    1CAL  O03Ww22598   7.687   8.117   1.545
    1CAL  O03Wx22599   7.687   9.566   1.703
    1CAL  O03Wy22600   7.880   8.038   1.624
    1CAL  O03Wz22601   6.380   8.039   1.624
    1CAL  O03X022602   6.187   9.566   1.703
    1CAL  O03X122603   6.186   8.117   1.545
    1CAL  O03X222604   7.187   8.117   1.545
    1CAL  O03X322605   7.187   9.566   1.703
    1CAL  O03X422606   7.380   8.039   1.624
    1CAL  O03X522607   7.065   8.825   1.238
    1CAL  O03X622608   7.816   8.520   1.545
    1CAL  O03X722609   6.821   9.511   2.159
    1CAL  O03X822610   6.812   9.359   2.325
    1CAL  O03X922611   6.622   9.443   2.239
    1CAL  O03XA22612   6.679   9.110   2.158
    1CAL  O03XB22613   6.688   8.959   2.324
    1CAL  O03XC22614   6.878   9.041   2.237
    1CAL  O03XD22615   6.878   8.238   2.238
    1CAL  O03XE22616   6.688   8.155   2.325
    1CAL  O03XF22617   6.679   8.306   2.159
    1CAL  O03XG22618   6.622   8.640   2.238
    1CAL  O03XH22619   6.812   8.556   2.324
    1CAL  O03XI22620   6.821   8.708   2.159
    1CAL  O03XJ22621   7.680   9.110   2.158
    1CAL  O03XK22622   7.878   9.041   2.238
    1CAL  O03XL22623   7.688   8.958   2.324
    1CAL  O03XM22624   7.623   9.442   2.238
    1CAL  O03XN22625   7.812   9.359   2.324
    1CAL  O03XO22626   7.821   9.511   2.159
    1CAL  O03XP22627   7.679   8.306   2.159
    1CAL  O03XQ22628   7.878   8.238   2.238
    1CAL  O03XR22629   7.688   8.155   2.325
    1CAL  O03XS22630   7.622   8.639   2.238
    1CAL  O03XT22631   7.812   8.556   2.324
    1CAL  O03XU22632   7.821   8.708   2.159
    1CAL  O03XV22633   7.312   9.359   2.325
    1CAL  O03XW22634   7.122   9.442   2.239
    1CAL  O03XX22635   7.321   9.510   2.159
    1CAL  O03XY22636   7.180   9.109   2.159
    1CAL  O03XZ22637   7.189   8.957   2.325
    1CAL  O03Xa22638   7.379   9.041   2.239
    1CAL  O03Xb22639   7.312   8.556   2.325
    1CAL  O03Xc22640   7.321   8.707   2.159
    1CAL  O03Xd22641   7.122   8.640   2.238
    1CAL  O03Xe22642   7.180   8.306   2.160
    1CAL  O03Xf22643   7.188   8.154   2.325
    1CAL  O03Xg22644   7.378   8.238   2.240
    1CAL  O03Xh22645   6.311   9.359   2.326
    1CAL  O03Xi22646   6.122   9.443   2.239
    1CAL  O03Xj22647   6.321   9.510   2.160
    1CAL  O03Xk22648   6.180   9.109   2.160
    1CAL  O03Xl22649   6.189   8.957   2.325
    1CAL  O03Xm22650   6.379   9.041   2.241
    1CAL  O03Xn22651   6.311   8.557   2.326
    1CAL  O03Xo22652   6.122   8.640   2.238
    1CAL  O03Xp22653   6.321   8.708   2.159
    1CAL  O03Xq22654   6.378   8.238   2.241
    1CAL  O03Xr22655   6.188   8.154   2.326
    1CAL  O03Xs22656   6.180   8.306   2.161
    1CAL  Ca1AH22657   7.003   8.841   2.236
    1CAL  Ca1AI22658   7.751   8.545   1.317
    1CAL  Ca1AJ22659   7.497   9.242   2.237
    1CAL  Ca1AK22660   6.003   8.841   2.237
    1CAL  Ca1AL22661   6.751   9.538   1.932
    1CAL  Ca1AM22662   7.751   8.947   1.317
    1CAL  Ca1AN22663   7.501   8.642   1.624
    1CAL  Ca1AO22664   7.501   9.444   1.624
    1CAL  Ca1AP22665   6.250   9.137   1.931
    1CAL  Ca1AQ22666   7.001   9.444   1.624
    1CAL  Ca1AR22667   6.503   8.038   2.237
    1CAL  Ca1AS22668   6.251   8.545   1.317
    1CAL  Ca1AT22669   6.251   8.736   1.932
    1CAL  Ca1AU22670   7.998   8.439   2.237
    1CAL  Ca1AV22671   7.998   9.242   2.237
    1CAL  Ca1AW22672   7.750   9.137   1.930
    1CAL  Ca1AX22673   7.251   8.143   1.317
    1CAL  Ca1AY22674   8.001   9.444   1.624
    1CAL  Ca1AZ22675   7.751   8.143   1.317
    1CAL  Ca1Aa22676   6.496   8.440   2.237
    1CAL  Ca1Ab22677   6.003   8.038   2.238
    1CAL  Ca1Ac22678   7.752   8.736   1.932
    1CAL  Ca1Ad22679   6.251   8.947   1.317
    1CAL  Ca1Ae22680   8.001   8.642   1.624
    1CAL  Ca1Af22681   7.501   9.043   1.623
    1CAL  Ca1Ag22682   6.251   9.539   1.932
    1CAL  Ca1Ah22683   7.751   9.348   1.318
    1CAL  Ca1Ai22684   6.501   9.043   1.623
    1CAL  Ca1Aj22685   6.497   9.243   2.237
    1CAL  Ca1Ak22686   8.001   8.240   1.624
    1CAL  Ca1Al22687   6.501   9.444   1.624
    1CAL  Ca1Am22688   7.497   8.439   2.237
    1CAL  Ca1An22689   7.251   8.947   1.317
    1CAL  Ca1Ao22690   6.751   8.947   1.317
    1CAL  Ca1Ap22691   7.001   8.240   1.624
    1CAL  Ca1Aq22692   7.001   9.043   1.623
    1CAL  Ca1Ar22693   6.501   8.642   1.624
    1CAL  Ca1As22694   7.001   8.642   1.624
    1CAL  Ca1At22695   6.750   9.137   1.931
    1CAL  Ca1Au22696   6.251   8.143   1.317
    1CAL  Ca1Av22697   6.751   8.545   1.317
    1CAL  Ca1Aw22698   7.251   8.545   1.317
    1CAL  Ca1Ax22699   7.250   9.137   1.931
    1CAL  Ca1Ay22700   7.251   9.538   1.932
    1CAL  Ca1Az22701   7.750   8.334   1.932
    1CAL  Ca1B022702   7.003   8.038   2.237
    1CAL  Ca1B122703   6.749   8.334   1.932
    1CAL  Ca1B222704   6.504   8.841   2.236
    1CAL  Ca1B322705   6.501   8.240   1.624
    1CAL  Ca1B422706   6.751   8.143   1.317
    1CAL  Ca1B522707   7.251   9.348   1.318
    1CAL  Ca1B622708   7.250   8.334   1.932
    1CAL  Ca1B722709   6.997   8.439   2.237
    1CAL  Ca1B822710   6.751   9.348   1.318
    1CAL  Ca1B922711   6.997   9.242   2.237
    1CAL  Ca1BA22712   6.251   9.348   1.318
    1CAL  Ca1BB22713   7.501   8.240   1.624
    1CAL  Ca1BC22714   7.504   8.841   2.236
    1CAL  Ca1BD22715   7.503   8.037   2.237
    1CAL  Ca1BE22716   6.751   8.736   1.932
    1CAL  Ca1BF22717   7.751   9.539   1.932
    1CAL  Ca1BG22718   7.251   8.736   1.932
    1CAL  Ca1BH22719   6.250   8.334   1.932
    1CAL  Ca1BI22720   8.001   9.043   1.623
    1CAL  C01BJ22721   8.001   9.548   2.545
    1CAL  C01BK22722   7.251   8.038   2.852
    1CAL  C01BL22723   6.251   8.038   2.852
    1CAL  C01BM22724   7.500   8.536   3.158
    1CAL  C01BN22725   7.500   9.339   3.158
    1CAL  C01BO22726   6.751   8.038   2.852
    1CAL  C01BP22727   7.001   8.746   2.545
    1CAL  C01BQ22728   7.251   9.243   2.849
    1CAL  C01BR22729   6.751   9.243   2.850
    1CAL  C01BS22730   6.501   8.938   3.159
    1CAL  C01BT22731   6.501   8.344   2.545
    1CAL  C01BU22732   7.001   9.148   2.545
    1CAL  C01BV22733   7.001   8.344   2.545
    1CAL  C01BW22734   6.251   8.441   2.852
    1CAL  C01BX22735   6.501   8.134   3.159
    1CAL  C01BY22736   7.001   8.938   3.158
    1CAL  C01BZ22737   7.751   8.038   2.852
    1CAL  C01Ba22738   7.501   8.134   3.159
    1CAL  C01Bb22739   6.251   8.843   2.852
    1CAL  C01Bc22740   8.000   8.536   3.159
    1CAL  C01Bd22741   8.001   8.938   3.158
    1CAL  C01Be22742   8.001   8.344   2.545
    1CAL  C01Bf22743   8.001   9.148   2.545
    1CAL  C01Bg22744   6.251   9.243   2.850
    1CAL  C01Bh22745   6.500   8.536   3.158
    1CAL  C01Bi22746   7.501   8.746   2.545
    1CAL  C01Bj22747   8.001   8.746   2.545
    1CAL  C01Bk22748   7.751   8.441   2.852
    1CAL  C01Bl22749   7.251   8.441   2.852
    1CAL  C01Bm22750   7.501   8.344   2.545
    1CAL  C01Bn22751   7.501   8.938   3.158
    1CAL  C01Bo22752   6.499   9.339   3.158
    1CAL  C01Bp22753   7.501   9.548   2.545
    1CAL  C01Bq22754   6.751   8.441   2.852
    1CAL  C01Br22755   7.251   8.843   2.852
    1CAL  C01Bs22756   6.501   9.148   2.545
    1CAL  C01Bt22757   7.751   9.243   2.849
    1CAL  C01Bu22758   7.001   9.548   2.545
    1CAL  C01Bv22759   8.000   9.339   3.159
    1CAL  C01Bw22760   7.001   8.134   3.158
    1CAL  C01Bx22761   7.000   9.339   3.158
    1CAL  C01By22762   7.000   8.536   3.159
    1CAL  C01Bz22763   7.751   8.843   2.852
    1CAL  C01C022764   6.501   9.548   2.545
    1CAL  C01C122765   7.501   9.148   2.545
    1CAL  C01C222766   6.501   8.746   2.545
    1CAL  C01C322767   6.751   8.843   2.852
    1CAL  C01C422768   8.001   8.134   3.159
    1CAL  C01C522769   6.752   8.634   3.469
    1CAL  C01C622770   6.748   8.233   3.469
    1CAL  C01C722771   6.748   9.036   3.468
    1CAL  C01C822772   6.752   9.437   3.469
    1CAL  C01C922773   7.752   8.634   3.469
    1CAL  C01CA22774   7.748   8.233   3.469
    1CAL  C01CB22775   7.752   9.437   3.469
    1CAL  C01CC22776   7.749   9.036   3.468
    1CAL  C01CD22777   7.252   9.437   3.469
    1CAL  C01CE22778   7.249   9.035   3.469
    1CAL  C01CF22779   7.252   8.634   3.469
    1CAL  C01CG22780   7.248   8.232   3.470
    1CAL  C01CH22781   6.252   9.437   3.470
    1CAL  C01CI22782   6.249   9.035   3.470
    1CAL  C01CJ22783   6.252   8.635   3.469
    1CAL  C01CK22784   6.248   8.232   3.471
    1CAL  O03Xt22785   6.186   8.765   2.931
    1CAL  O03Xu22786   7.187   8.922   2.773
    1CAL  O03Xv22787   7.186   8.765   2.931
    1CAL  O03Xw22788   7.380   8.843   2.853
    1CAL  O03Xx22789   6.565   9.469   2.624
    1CAL  O03Xy22790   6.372   9.549   2.544
    1CAL  O03Xz22791   6.565   8.825   2.466
    1CAL  O03Y022792   6.687   8.922   2.773
    1CAL  O03Y122793   6.686   8.765   2.931
    1CAL  O03Y222794   6.880   8.843   2.853
    1CAL  O03Y322795   6.566   9.626   2.466
    1CAL  O03Y422796   6.565   8.668   2.624
    1CAL  O03Y522797   6.372   8.746   2.545
    1CAL  O03Y622798   7.129   9.338   3.159
    1CAL  O03Y722799   6.936   9.417   3.078
    1CAL  O03Y822800   6.937   8.615   3.078
    1CAL  O03Y922801   6.934   8.458   3.238
    1CAL  O03YA22802   7.129   8.535   3.160
    1CAL  O03YB22803   6.934   9.261   3.238
    1CAL  O03YC22804   6.622   8.441   2.852
    1CAL  O03YD22805   7.064   9.017   3.078
    1CAL  O03YE22806   7.123   9.243   2.849
    1CAL  O03YF22807   7.315   9.164   2.929
    1CAL  O03YG22808   7.316   9.321   2.771
    1CAL  O03YH22809   6.437   8.265   2.624
    1CAL  O03YI22810   6.436   8.422   2.466
    1CAL  O03YJ22811   6.622   9.243   2.849
    1CAL  O03YK22812   6.815   9.164   2.929
    1CAL  O03YL22813   6.816   9.321   2.771
    1CAL  O03YM22814   6.315   8.520   2.773
    1CAL  O03YN22815   6.815   8.362   2.931
    1CAL  O03YO22816   6.937   9.227   2.465
    1CAL  O03YP22817   7.130   9.148   2.545
    1CAL  O03YQ22818   6.315   8.362   2.932
    1CAL  O03YR22819   6.122   8.441   2.852
    1CAL  O03YS22820   6.815   8.520   2.773
    1CAL  O03YT22821   6.937   8.423   2.465
    1CAL  O03YU22822   6.937   8.265   2.624
    1CAL  O03YV22823   7.130   8.344   2.545
    1CAL  O03YW22824   6.871   8.937   3.159
    1CAL  O03YX22825   7.067   8.860   3.237
    1CAL  O03YY22826   6.936   9.070   2.624
    1CAL  O03YZ22827   7.687   8.922   2.773
    1CAL  O03Ya22828   7.686   8.765   2.931
    1CAL  O03Yb22829   7.880   8.843   2.853
    1CAL  O03Yc22830   7.935   9.260   3.238
    1CAL  O03Yd22831   7.937   8.615   3.079
    1CAL  O03Ye22832   7.935   8.457   3.238
    1CAL  O03Yf22833   6.129   9.338   3.160
    1CAL  O03Yg22834   6.065   8.213   3.079
    1CAL  O03Yh22835   7.437   9.227   2.465
    1CAL  O03Yi22836   7.436   9.070   2.624
    1CAL  O03Yj22837   7.630   9.148   2.545
    1CAL  O03Yk22838   6.066   8.056   3.239
    1CAL  O03Yl22839   7.435   9.261   3.238
    1CAL  O03Ym22840   6.066   9.626   2.466
    1CAL  O03Yn22841   6.065   9.469   2.624
    1CAL  O03Yo22842   6.872   9.549   2.544
    1CAL  O03Yp22843   7.872   8.937   3.160
    1CAL  O03Yq22844   7.937   8.265   2.624
    1CAL  O03Yr22845   7.065   8.213   3.079
    1CAL  O03Ys22846   6.437   9.227   2.465
    1CAL  O03Yt22847   6.436   9.070   2.624
    1CAL  O03Yu22848   6.630   9.148   2.545
    1CAL  O03Yv22849   7.066   8.055   3.238
    1CAL  O03Yw22850   6.434   9.261   3.238
    1CAL  O03Yx22851   6.872   8.134   3.159
    1CAL  O03Yy22852   7.873   8.746   2.545
    1CAL  O03Yz22853   7.066   9.626   2.466
    1CAL  O03Z022854   7.065   9.469   2.624
    1CAL  O03Z122855   7.623   9.243   2.849
    1CAL  O03Z222856   7.815   9.164   2.929
    1CAL  O03Z322857   7.816   9.321   2.770
    1CAL  O03Z422858   7.938   9.227   2.465
    1CAL  O03Z522859   7.936   9.070   2.624
    1CAL  O03Z622860   7.937   8.423   2.465
    1CAL  O03Z722861   6.630   8.344   2.544
    1CAL  O03Z822862   6.380   8.843   2.853
    1CAL  O03Z922863   6.371   8.937   3.162
    1CAL  O03ZA22864   7.066   8.668   2.624
    1CAL  O03ZB22865   7.565   9.469   2.624
    1CAL  O03ZC22866   7.566   9.626   2.466
    1CAL  O03ZD22867   7.623   8.441   2.852
    1CAL  O03ZE22868   7.816   8.362   2.931
    1CAL  O03ZF22869   7.373   9.549   2.544
    1CAL  O03ZG22870   7.122   8.441   2.852
    1CAL  O03ZH22871   7.315   8.520   2.773
    1CAL  O03ZI22872   6.629   9.338   3.159
    1CAL  O03ZJ22873   7.437   8.422   2.466
    1CAL  O03ZK22874   7.437   8.265   2.624
    1CAL  O03ZL22875   7.630   8.344   2.544
    1CAL  O03ZM22876   7.372   8.937   3.161
    1CAL  O03ZN22877   7.567   8.860   3.237
    1CAL  O03ZO22878   7.316   8.362   2.931
    1CAL  O03ZP22879   7.564   9.018   3.078
    1CAL  O03ZQ22880   6.066   8.668   2.624
    1CAL  O03ZR22881   7.566   8.668   2.624
    1CAL  O03ZS22882   6.187   8.922   2.773
    1CAL  O03ZT22883   6.064   9.018   3.078
    1CAL  O03ZU22884   6.066   8.860   3.238
    1CAL  O03ZV22885   6.129   8.535   3.160
    1CAL  O03ZW22886   6.130   8.344   2.545
    1CAL  O03ZX22887   6.129   9.148   2.545
    1CAL  O03ZY22888   7.565   8.825   2.466
    1CAL  O03ZZ22889   6.316   9.321   2.771
    1CAL  O03Za22890   7.873   9.549   2.544
    1CAL  O03Zb22891   7.872   8.134   3.160
    1CAL  O03Zc22892   6.122   9.243   2.849
    1CAL  O03Zd22893   7.936   9.417   3.078
    1CAL  O03Ze22894   6.065   8.825   2.466
    1CAL  O03Zf22895   7.373   8.746   2.545
    1CAL  O03Zg22896   6.315   9.164   2.929
    1CAL  O03Zh22897   6.435   9.418   3.078
    1CAL  O03Zi22898   6.629   8.535   3.159
    1CAL  O03Zj22899   7.372   8.133   3.161
    1CAL  O03Zk22900   7.437   8.615   3.078
    1CAL  O03Zl22901   7.435   8.458   3.238
    1CAL  O03Zm22902   7.630   8.535   3.159
    1CAL  O03Zn22903   6.880   8.038   2.852
    1CAL  O03Zo22904   6.687   9.566   2.931
    1CAL  O03Zp22905   7.435   9.417   3.078
    1CAL  O03Zq22906   7.629   9.338   3.158
    1CAL  O03Zr22907   6.687   8.117   2.773
    1CAL  O03Zs22908   6.564   8.213   3.079
    1CAL  O03Zt22909   6.567   8.056   3.238
    1CAL  O03Zu22910   6.371   8.134   3.161
    1CAL  O03Zv22911   6.563   9.018   3.078
    1CAL  O03Zw22912   6.568   8.860   3.238
    1CAL  O03Zx22913   6.872   8.746   2.545
    1CAL  O03Zy22914   7.567   8.055   3.238
    1CAL  O03Zz22915   7.565   8.213   3.079
    1CAL  O03a022916   6.434   8.458   3.238
    1CAL  O03a122917   6.436   8.616   3.079
    1CAL  O03a222918   7.687   8.117   2.773
    1CAL  O03a322919   7.687   9.566   2.931
    1CAL  O03a422920   7.880   8.038   2.852
    1CAL  O03a522921   6.380   8.039   2.852
    1CAL  O03a622922   6.187   9.566   2.931
    1CAL  O03a722923   6.186   8.117   2.773
    1CAL  O03a822924   7.187   8.117   2.773
    1CAL  O03a922925   7.187   9.566   2.931
    1CAL  O03aA22926   7.380   8.039   2.852
    1CAL  O03aB22927   7.065   8.825   2.466
    1CAL  O03aC22928   7.816   8.520   2.773
    1CAL  O03aD22929   6.821   9.511   3.387
    1CAL  O03aE22930   6.812   9.359   3.553
    1CAL  O03aF22931   6.622   9.443   3.467
    1CAL  O03aG22932   6.679   9.110   3.386
    1CAL  O03aH22933   6.688   8.959   3.552
    1CAL  O03aI22934   6.878   9.041   3.465
    1CAL  O03aJ22935   6.878   8.238   3.466
    1CAL  O03aK22936   6.688   8.155   3.553
    1CAL  O03aL22937   6.679   8.306   3.387
    1CAL  O03aM22938   6.622   8.640   3.466
    1CAL  O03aN22939   6.812   8.556   3.552
    1CAL  O03aO22940   6.821   8.708   3.387
    1CAL  O03aP22941   7.680   9.110   3.386
    1CAL  O03aQ22942   7.878   9.041   3.466
    1CAL  O03aR22943   7.688   8.958   3.552
    1CAL  O03aS22944   7.623   9.442   3.466
    1CAL  O03aT22945   7.812   9.359   3.552
    1CAL  O03aU22946   7.821   9.511   3.387
    1CAL  O03aV22947   7.679   8.306   3.387
    1CAL  O03aW22948   7.878   8.238   3.466
    1CAL  O03aX22949   7.688   8.155   3.553
    1CAL  O03aY22950   7.622   8.639   3.466
    1CAL  O03aZ22951   7.812   8.556   3.552
    1CAL  O03aa22952   7.821   8.708   3.387
    1CAL  O03ab22953   7.312   9.359   3.553
    1CAL  O03ac22954   7.122   9.442   3.467
    1CAL  O03ad22955   7.321   9.510   3.387
    1CAL  O03ae22956   7.180   9.109   3.387
    1CAL  O03af22957   7.189   8.957   3.553
    1CAL  O03ag22958   7.379   9.041   3.467
    1CAL  O03ah22959   7.312   8.556   3.553
    1CAL  O03ai22960   7.321   8.707   3.387
    1CAL  O03aj22961   7.122   8.640   3.466
    1CAL  O03ak22962   7.180   8.306   3.388
    1CAL  O03al22963   7.188   8.154   3.553
    1CAL  O03am22964   7.378   8.238   3.468
    1CAL  O03an22965   6.311   9.359   3.554
    1CAL  O03ao22966   6.122   9.443   3.467
    1CAL  O03ap22967   6.321   9.510   3.388
    1CAL  O03aq22968   6.180   9.109   3.388
    1CAL  O03ar22969   6.189   8.957   3.553
    1CAL  O03as22970   6.379   9.041   3.469
    1CAL  O03at22971   6.311   8.557   3.554
    1CAL  O03au22972   6.122   8.640   3.466
    1CAL  O03av22973   6.321   8.708   3.387
    1CAL  O03aw22974   6.378   8.238   3.469
    1CAL  O03ax22975   6.188   8.154   3.554
    1CAL  O03ay22976   6.180   8.306   3.389
    1CAL  Ca1BJ22977   7.003   8.841   3.464
    1CAL  Ca1BK22978   7.751   8.545   2.545
    1CAL  Ca1BL22979   7.497   9.242   3.465
    1CAL  Ca1BM22980   6.003   8.841   3.465
    1CAL  Ca1BN22981   6.751   9.538   3.160
    1CAL  Ca1BO22982   7.751   8.947   2.545
    1CAL  Ca1BP22983   7.501   8.642   2.852
    1CAL  Ca1BQ22984   7.501   9.444   2.852
    1CAL  Ca1BR22985   6.250   9.137   3.159
    1CAL  Ca1BS22986   7.001   9.444   2.852
    1CAL  Ca1BT22987   6.503   8.038   3.465
    1CAL  Ca1BU22988   6.251   8.545   2.545
    1CAL  Ca1BV22989   6.251   8.736   3.160
    1CAL  Ca1BW22990   7.998   8.439   3.465
    1CAL  Ca1BX22991   7.998   9.242   3.465
    1CAL  Ca1BY22992   7.750   9.137   3.158
    1CAL  Ca1BZ22993   7.251   8.143   2.545
    1CAL  Ca1Ba22994   8.001   9.444   2.852
    1CAL  Ca1Bb22995   7.751   8.143   2.545
    1CAL  Ca1Bc22996   6.496   8.440   3.465
    1CAL  Ca1Bd22997   6.003   8.038   3.466
    1CAL  Ca1Be22998   7.752   8.736   3.160
    1CAL  Ca1Bf22999   6.251   8.947   2.545
    1CAL  Ca1Bg23000   8.001   8.642   2.852
    1CAL  Ca1Bh23001   7.501   9.043   2.851
    1CAL  Ca1Bi23002   6.251   9.539   3.160
    1CAL  Ca1Bj23003   7.751   9.348   2.546
    1CAL  Ca1Bk23004   6.501   9.043   2.851
    1CAL  Ca1Bl23005   6.497   9.243   3.465
    1CAL  Ca1Bm23006   8.001   8.240   2.852
    1CAL  Ca1Bn23007   6.501   9.444   2.852
    1CAL  Ca1Bo23008   7.497   8.439   3.465
    1CAL  Ca1Bp23009   7.251   8.947   2.545
    1CAL  Ca1Bq23010   6.751   8.947   2.545
    1CAL  Ca1Br23011   7.001   8.240   2.852
    1CAL  Ca1Bs23012   7.001   9.043   2.851
    1CAL  Ca1Bt23013   6.501   8.642   2.852
    1CAL  Ca1Bu23014   7.001   8.642   2.852
    1CAL  Ca1Bv23015   6.750   9.137   3.159
    1CAL  Ca1Bw23016   6.251   8.143   2.545
    1CAL  Ca1Bx23017   6.751   8.545   2.545
    1CAL  Ca1By23018   7.251   8.545   2.545
    1CAL  Ca1Bz23019   7.250   9.137   3.159
    1CAL  Ca1C023020   7.251   9.538   3.160
    1CAL  Ca1C123021   7.750   8.334   3.160
    1CAL  Ca1C223022   7.003   8.038   3.465
    1CAL  Ca1C323023   6.749   8.334   3.160
    1CAL  Ca1C423024   6.504   8.841   3.464
    1CAL  Ca1C523025   6.501   8.240   2.852
    1CAL  Ca1C623026   6.751   8.143   2.545
    1CAL  Ca1C723027   7.251   9.348   2.546
    1CAL  Ca1C823028   7.250   8.334   3.160
    1CAL  Ca1C923029   6.997   8.439   3.465
    1CAL  Ca1CA23030   6.751   9.348   2.546
    1CAL  Ca1CB23031   6.997   9.242   3.465
    1CAL  Ca1CC23032   6.251   9.348   2.546
    1CAL  Ca1CD23033   7.501   8.240   2.852
    1CAL  Ca1CE23034   7.504   8.841   3.464
    1CAL  Ca1CF23035   7.503   8.037   3.465
    1CAL  Ca1CG23036   6.751   8.736   3.160
    1CAL  Ca1CH23037   7.751   9.539   3.160
    1CAL  Ca1CI23038   7.251   8.736   3.160
    1CAL  Ca1CJ23039   6.250   8.334   3.160
    1CAL  Ca1CK23040   8.001   9.043   2.851
    1CAL  C01CL23041  10.002   1.517   0.089
    1CAL  C01CM23042   9.252   0.007   0.396
    1CAL  C01CN23043   8.252   0.007   0.396
    1CAL  C01CO23044   9.501   0.505   0.702
    1CAL  C01CP23045   9.501   1.308   0.702
    1CAL  C01CQ23046   8.752   0.007   0.396
    1CAL  C01CR23047   9.002   0.715   0.089
    1CAL  C01CS23048   9.252   1.212   0.393
    1CAL  C01CT23049   8.752   1.212   0.394
    1CAL  C01CU23050   8.502   0.907   0.703
    1CAL  C01CV23051   8.502   0.313   0.089
    1CAL  C01CW23052   9.002   1.117   0.089
    1CAL  C01CX23053   9.002   0.313   0.089
    1CAL  C01CY23054   8.252   0.410   0.396
    1CAL  C01CZ23055   8.502   0.103   0.703
    1CAL  C01Ca23056   9.002   0.907   0.702
    1CAL  C01Cb23057   9.752   0.007   0.396
    1CAL  C01Cc23058   9.502   0.103   0.703
    1CAL  C01Cd23059   8.252   0.812   0.396
    1CAL  C01Ce23060  10.001   0.505   0.703
    1CAL  C01Cf23061  10.002   0.907   0.702
    1CAL  C01Cg23062  10.002   0.313   0.089
    1CAL  C01Ch23063  10.002   1.117   0.089
    1CAL  C01Ci23064   8.252   1.212   0.394
    1CAL  C01Cj23065   8.501   0.505   0.702
    1CAL  C01Ck23066   9.502   0.715   0.089
    1CAL  C01Cl23067  10.002   0.715   0.089
    1CAL  C01Cm23068   9.752   0.410   0.396
    1CAL  C01Cn23069   9.252   0.410   0.396
    1CAL  C01Co23070   9.502   0.313   0.089
    1CAL  C01Cp23071   9.502   0.907   0.702
    1CAL  C01Cq23072   8.500   1.308   0.702
    1CAL  C01Cr23073   9.502   1.517   0.089
    1CAL  C01Cs23074   8.752   0.410   0.396
    1CAL  C01Ct23075   9.252   0.812   0.396
    1CAL  C01Cu23076   8.502   1.117   0.089
    1CAL  C01Cv23077   9.752   1.212   0.393
    1CAL  C01Cw23078   9.002   1.517   0.089
    1CAL  C01Cx23079  10.001   1.308   0.703
    1CAL  C01Cy23080   9.002   0.103   0.702
    1CAL  C01Cz23081   9.001   1.308   0.702
    1CAL  C01D023082   9.001   0.505   0.703
    1CAL  C01D123083   9.752   0.812   0.396
    1CAL  C01D223084   8.502   1.517   0.089
    1CAL  C01D323085   9.502   1.117   0.089
    1CAL  C01D423086   8.502   0.715   0.089
    1CAL  C01D523087   8.752   0.812   0.396
    1CAL  C01D623088  10.002   0.103   0.703
    1CAL  C01D723089   8.753   0.603   1.013
    1CAL  C01D823090   8.749   0.202   1.013
    1CAL  C01D923091   8.749   1.005   1.012
    1CAL  C01DA23092   8.753   1.406   1.013
    1CAL  C01DB23093   9.753   0.603   1.013
    1CAL  C01DC23094   9.749   0.202   1.013
    1CAL  C01DD23095   9.753   1.406   1.013
    1CAL  C01DE23096   9.750   1.005   1.012
    1CAL  C01DF23097   9.253   1.406   1.013
    1CAL  C01DG23098   9.250   1.004   1.013
    1CAL  C01DH23099   9.253   0.603   1.013
    1CAL  C01DI23100   9.249   0.201   1.014
    1CAL  C01DJ23101   8.253   1.406   1.014
    1CAL  C01DK23102   8.250   1.004   1.014
    1CAL  C01DL23103   8.253   0.604   1.013
    1CAL  C01DM23104   8.249   0.201   1.015
    1CAL  O03az23105   8.187   0.734   0.475
    1CAL  O03b023106   9.188   0.891   0.317
    1CAL  O03b123107   9.187   0.734   0.475
    1CAL  O03b223108   9.381   0.812   0.397
    1CAL  O03b323109   8.566   1.438   0.168
    1CAL  O03b423110   8.373   1.518   0.088
    1CAL  O03b523111   8.566   0.794   0.010
    1CAL  O03b623112   8.688   0.891   0.317
    1CAL  O03b723113   8.687   0.734   0.475
    1CAL  O03b823114   8.881   0.812   0.397
    1CAL  O03b923115   8.567   1.595   0.010
    1CAL  O03bA23116   8.566   0.637   0.168
    1CAL  O03bB23117   8.373   0.715   0.089
    1CAL  O03bC23118   9.130   1.307   0.703
    1CAL  O03bD23119   8.937   1.386   0.622
    1CAL  O03bE23120   8.938   0.584   0.622
    1CAL  O03bF23121   8.935   0.427   0.782
    1CAL  O03bG23122   9.130   0.504   0.704
    1CAL  O03bH23123   8.935   1.230   0.782
    1CAL  O03bI23124   8.623   0.410   0.396
    1CAL  O03bJ23125   9.065   0.986   0.622
    1CAL  O03bK23126   9.124   1.212   0.393
    1CAL  O03bL23127   9.316   1.133   0.473
    1CAL  O03bM23128   9.317   1.290   0.315
    1CAL  O03bN23129   8.438   0.234   0.168
    1CAL  O03bO23130   8.437   0.391   0.010
    1CAL  O03bP23131   8.623   1.212   0.393
    1CAL  O03bQ23132   8.816   1.133   0.473
    1CAL  O03bR23133   8.817   1.290   0.315
    1CAL  O03bS23134   8.316   0.489   0.317
    1CAL  O03bT23135   8.816   0.331   0.475
    1CAL  O03bU23136   8.938   1.196   0.009
    1CAL  O03bV23137   9.131   1.117   0.089
    1CAL  O03bW23138   8.316   0.331   0.476
    1CAL  O03bX23139   8.123   0.410   0.396
    1CAL  O03bY23140   8.816   0.489   0.317
    1CAL  O03bZ23141   8.938   0.392   0.009
    1CAL  O03ba23142   8.938   0.234   0.168
    1CAL  O03bb23143   9.131   0.313   0.089
    1CAL  O03bc23144   8.872   0.906   0.703
    1CAL  O03bd23145   9.068   0.829   0.781
    1CAL  O03be23146   8.937   1.039   0.168
    1CAL  O03bf23147   9.688   0.891   0.317
    1CAL  O03bg23148   9.687   0.734   0.475
    1CAL  O03bh23149   9.881   0.812   0.397
    1CAL  O03bi23150   9.936   1.229   0.782
    1CAL  O03bj23151   9.938   0.584   0.623
    1CAL  O03bk23152   9.936   0.426   0.782
    1CAL  O03bl23153   8.130   1.307   0.704
    1CAL  O03bm23154   8.066   0.182   0.623
    1CAL  O03bn23155   9.438   1.196   0.009
    1CAL  O03bo23156   9.437   1.039   0.168
    1CAL  O03bp23157   9.631   1.117   0.089
    1CAL  O03bq23158   8.067   0.025   0.783
    1CAL  O03br23159   9.436   1.230   0.782
    1CAL  O03bs23160   8.067   1.595   0.010
    1CAL  O03bt23161   8.066   1.438   0.168
    1CAL  O03bu23162   8.873   1.518   0.088
    1CAL  O03bv23163   9.873   0.906   0.704
    1CAL  O03bw23164   9.938   0.234   0.168
    1CAL  O03bx23165   9.066   0.182   0.623
    1CAL  O03by23166   8.438   1.196   0.009
    1CAL  O03bz23167   8.437   1.039   0.168
    1CAL  O03c023168   8.631   1.117   0.089
    1CAL  O03c123169   9.067   0.024   0.782
    1CAL  O03c223170   8.435   1.230   0.782
    1CAL  O03c323171   8.873   0.103   0.703
    1CAL  O03c423172   9.874   0.715   0.089
    1CAL  O03c523173   9.067   1.595   0.010
    1CAL  O03c623174   9.066   1.438   0.168
    1CAL  O03c723175   9.624   1.212   0.393
    1CAL  O03c823176   9.816   1.133   0.473
    1CAL  O03c923177   9.817   1.290   0.314
    1CAL  O03cA23178   9.939   1.196   0.009
    1CAL  O03cB23179   9.937   1.039   0.168
    1CAL  O03cC23180   9.938   0.392   0.009
    1CAL  O03cD23181   8.631   0.313   0.088
    1CAL  O03cE23182   8.381   0.812   0.397
    1CAL  O03cF23183   8.372   0.906   0.706
    1CAL  O03cG23184   9.067   0.637   0.168
    1CAL  O03cH23185   9.566   1.438   0.168
    1CAL  O03cI23186   9.567   1.595   0.010
    1CAL  O03cJ23187   9.624   0.410   0.396
    1CAL  O03cK23188   9.817   0.331   0.475
    1CAL  O03cL23189   9.374   1.518   0.088
    1CAL  O03cM23190   9.123   0.410   0.396
    1CAL  O03cN23191   9.316   0.489   0.317
    1CAL  O03cO23192   8.630   1.307   0.703
    1CAL  O03cP23193   9.438   0.391   0.010
    1CAL  O03cQ23194   9.438   0.234   0.168
    1CAL  O03cR23195   9.631   0.313   0.088
    1CAL  O03cS23196   9.373   0.906   0.705
    1CAL  O03cT23197   9.568   0.829   0.781
    1CAL  O03cU23198   9.317   0.331   0.475
    1CAL  O03cV23199   9.565   0.987   0.622
    1CAL  O03cW23200   8.067   0.637   0.168
    1CAL  O03cX23201   9.567   0.637   0.168
    1CAL  O03cY23202   8.188   0.891   0.317
    1CAL  O03cZ23203   8.065   0.987   0.622
    1CAL  O03ca23204   8.067   0.829   0.782
    1CAL  O03cb23205   8.130   0.504   0.704
    1CAL  O03cc23206   8.131   0.313   0.089
    1CAL  O03cd23207   8.130   1.117   0.089
    1CAL  O03ce23208   9.566   0.794   0.010
    1CAL  O03cf23209   8.317   1.290   0.315
    1CAL  O03cg23210   9.874   1.518   0.088
    1CAL  O03ch23211   9.873   0.103   0.704
    1CAL  O03ci23212   8.123   1.212   0.393
    1CAL  O03cj23213   9.937   1.386   0.622
    1CAL  O03ck23214   8.066   0.794   0.010
    1CAL  O03cl23215   9.374   0.715   0.089
    1CAL  O03cm23216   8.316   1.133   0.473
    1CAL  O03cn23217   8.436   1.387   0.622
    1CAL  O03co23218   8.630   0.504   0.703
    1CAL  O03cp23219   9.373   0.102   0.705
    1CAL  O03cq23220   9.438   0.584   0.622
    1CAL  O03cr23221   9.436   0.427   0.782
    1CAL  O03cs23222   9.631   0.504   0.703
    1CAL  O03ct23223   8.881   0.007   0.396
    1CAL  O03cu23224   8.688   1.535   0.475
    1CAL  O03cv23225   9.436   1.386   0.622
    1CAL  O03cw23226   9.630   1.307   0.702
    1CAL  O03cx23227   8.688   0.086   0.317
    1CAL  O03cy23228   8.565   0.182   0.623
    1CAL  O03cz23229   8.568   0.025   0.782
    1CAL  O03d023230   8.372   0.103   0.705
    1CAL  O03d123231   8.564   0.987   0.622
    1CAL  O03d223232   8.569   0.829   0.782
    1CAL  O03d323233   8.873   0.715   0.089
    1CAL  O03d423234   9.568   0.024   0.782
    1CAL  O03d523235   9.566   0.182   0.623
    1CAL  O03d623236   8.435   0.427   0.782
    1CAL  O03d723237   8.437   0.585   0.623
    1CAL  O03d823238   9.688   0.086   0.317
    1CAL  O03d923239   9.688   1.535   0.475
    1CAL  O03dA23240   9.881   0.007   0.396
    1CAL  O03dB23241   8.381   0.008   0.396
    1CAL  O03dC23242   8.188   1.535   0.475
    1CAL  O03dD23243   8.187   0.086   0.317
    1CAL  O03dE23244   9.188   0.086   0.317
    1CAL  O03dF23245   9.188   1.535   0.475
    1CAL  O03dG23246   9.381   0.008   0.396
    1CAL  O03dH23247   9.066   0.794   0.010
    1CAL  O03dI23248   9.817   0.489   0.317
    1CAL  O03dJ23249   8.822   1.480   0.931
    1CAL  O03dK23250   8.813   1.328   1.097
    1CAL  O03dL23251   8.623   1.412   1.011
    1CAL  O03dM23252   8.680   1.079   0.930
    1CAL  O03dN23253   8.689   0.928   1.096
    1CAL  O03dO23254   8.879   1.010   1.009
    1CAL  O03dP23255   8.879   0.207   1.010
    1CAL  O03dQ23256   8.689   0.124   1.097
    1CAL  O03dR23257   8.680   0.275   0.931
    1CAL  O03dS23258   8.623   0.609   1.010
    1CAL  O03dT23259   8.813   0.525   1.096
    1CAL  O03dU23260   8.822   0.677   0.931
    1CAL  O03dV23261   9.681   1.079   0.930
    1CAL  O03dW23262   9.879   1.010   1.010
    1CAL  O03dX23263   9.689   0.927   1.096
    1CAL  O03dY23264   9.624   1.411   1.010
    1CAL  O03dZ23265   9.813   1.328   1.096
    1CAL  O03da23266   9.822   1.480   0.931
    1CAL  O03db23267   9.680   0.275   0.931
    1CAL  O03dc23268   9.879   0.207   1.010
    1CAL  O03dd23269   9.689   0.124   1.097
    1CAL  O03de23270   9.623   0.608   1.010
    1CAL  O03df23271   9.813   0.525   1.096
    1CAL  O03dg23272   9.822   0.677   0.931
    1CAL  O03dh23273   9.313   1.328   1.097
    1CAL  O03di23274   9.123   1.411   1.011
    1CAL  O03dj23275   9.322   1.479   0.931
    1CAL  O03dk23276   9.181   1.078   0.931
    1CAL  O03dl23277   9.190   0.926   1.097
    1CAL  O03dm23278   9.380   1.010   1.011
    1CAL  O03dn23279   9.313   0.525   1.097
    1CAL  O03do23280   9.322   0.676   0.931
    1CAL  O03dp23281   9.123   0.609   1.010
    1CAL  O03dq23282   9.181   0.275   0.932
    1CAL  O03dr23283   9.189   0.123   1.097
    1CAL  O03ds23284   9.379   0.207   1.012
    1CAL  O03dt23285   8.312   1.328   1.098
    1CAL  O03du23286   8.123   1.412   1.011
    1CAL  O03dv23287   8.322   1.479   0.932
    1CAL  O03dw23288   8.181   1.078   0.932
    1CAL  O03dx23289   8.190   0.926   1.097
    1CAL  O03dy23290   8.380   1.010   1.013
    1CAL  O03dz23291   8.312   0.526   1.098
    1CAL  O03e023292   8.123   0.609   1.010
    1CAL  O03e123293   8.322   0.677   0.931
    1CAL  O03e223294   8.379   0.207   1.013
    1CAL  O03e323295   8.189   0.123   1.098
    1CAL  O03e423296   8.181   0.275   0.933
    1CAL  Ca1CL23297   9.004   0.810   1.008
    1CAL  Ca1CM23298   9.752   0.514   0.089
    1CAL  Ca1CN23299   9.498   1.211   1.009
    1CAL  Ca1CO23300   8.004   0.810   1.009
    1CAL  Ca1CP23301   8.752   1.507   0.704
    1CAL  Ca1CQ23302   9.752   0.916   0.089
    1CAL  Ca1CR23303   9.502   0.611   0.396
    1CAL  Ca1CS23304   9.502   1.413   0.396
    1CAL  Ca1CT23305   8.251   1.106   0.703
    1CAL  Ca1CU23306   9.002   1.413   0.396
    1CAL  Ca1CV23307   8.504   0.007   1.009
    1CAL  Ca1CW23308   8.252   0.514   0.089
    1CAL  Ca1CX23309   8.252   0.705   0.704
    1CAL  Ca1CY23310   9.999   0.408   1.009
    1CAL  Ca1CZ23311   9.999   1.211   1.009
    1CAL  Ca1Ca23312   9.751   1.106   0.702
    1CAL  Ca1Cb23313   9.252   0.112   0.089
    1CAL  Ca1Cc23314  10.002   1.413   0.396
    1CAL  Ca1Cd23315   9.752   0.112   0.089
    1CAL  Ca1Ce23316   8.497   0.409   1.009
    1CAL  Ca1Cf23317   8.004   0.007   1.010
    1CAL  Ca1Cg23318   9.753   0.705   0.704
    1CAL  Ca1Ch23319   8.252   0.916   0.089
    1CAL  Ca1Ci23320  10.002   0.611   0.396
    1CAL  Ca1Cj23321   9.502   1.012   0.395
    1CAL  Ca1Ck23322   8.252   1.508   0.704
    1CAL  Ca1Cl23323   9.752   1.317   0.090
    1CAL  Ca1Cm23324   8.502   1.012   0.395
    1CAL  Ca1Cn23325   8.498   1.212   1.009
    1CAL  Ca1Co23326  10.002   0.209   0.396
    1CAL  Ca1Cp23327   8.502   1.413   0.396
    1CAL  Ca1Cq23328   9.498   0.408   1.009
    1CAL  Ca1Cr23329   9.252   0.916   0.089
    1CAL  Ca1Cs23330   8.752   0.916   0.089
    1CAL  Ca1Ct23331   9.002   0.209   0.396
    1CAL  Ca1Cu23332   9.002   1.012   0.395
    1CAL  Ca1Cv23333   8.502   0.611   0.396
    1CAL  Ca1Cw23334   9.002   0.611   0.396
    1CAL  Ca1Cx23335   8.751   1.106   0.703
    1CAL  Ca1Cy23336   8.252   0.112   0.089
    1CAL  Ca1Cz23337   8.752   0.514   0.089
    1CAL  Ca1D023338   9.252   0.514   0.089
    1CAL  Ca1D123339   9.251   1.106   0.703
    1CAL  Ca1D223340   9.252   1.507   0.704
    1CAL  Ca1D323341   9.751   0.303   0.704
    1CAL  Ca1D423342   9.004   0.007   1.009
    1CAL  Ca1D523343   8.750   0.303   0.704
    1CAL  Ca1D623344   8.505   0.810   1.008
    1CAL  Ca1D723345   8.502   0.209   0.396
    1CAL  Ca1D823346   8.752   0.112   0.089
    1CAL  Ca1D923347   9.252   1.317   0.090
    1CAL  Ca1DA23348   9.251   0.303   0.704
    1CAL  Ca1DB23349   8.998   0.408   1.009
    1CAL  Ca1DC23350   8.752   1.317   0.090
    1CAL  Ca1DD23351   8.998   1.211   1.009
    1CAL  Ca1DE23352   8.252   1.317   0.090
    1CAL  Ca1DF23353   9.502   0.209   0.396
    1CAL  Ca1DG23354   9.505   0.810   1.008
    1CAL  Ca1DH23355   9.504   0.006   1.009
    1CAL  Ca1DI23356   8.752   0.705   0.704
    1CAL  Ca1DJ23357   9.752   1.508   0.704
    1CAL  Ca1DK23358   9.252   0.705   0.704
    1CAL  Ca1DL23359   8.251   0.303   0.704
    1CAL  Ca1DM23360  10.002   1.012   0.395
    1CAL  C01DN23361  10.002   1.517   1.317
    1CAL  C01DO23362   9.252   0.007   1.624
    1CAL  C01DP23363   8.252   0.007   1.624
    1CAL  C01DQ23364   9.501   0.505   1.930
    1CAL  C01DR23365   9.501   1.308   1.930
    1CAL  C01DS23366   8.752   0.007   1.624
    1CAL  C01DT23367   9.002   0.715   1.317
    1CAL  C01DU23368   9.252   1.212   1.621
    1CAL  C01DV23369   8.752   1.212   1.622
    1CAL  C01DW23370   8.502   0.907   1.931
    1CAL  C01DX23371   8.502   0.313   1.317
    1CAL  C01DY23372   9.002   1.117   1.317
    1CAL  C01DZ23373   9.002   0.313   1.317
    1CAL  C01Da23374   8.252   0.410   1.624
    1CAL  C01Db23375   8.502   0.103   1.931
    1CAL  C01Dc23376   9.002   0.907   1.930
    1CAL  C01Dd23377   9.752   0.007   1.624
    1CAL  C01De23378   9.502   0.103   1.931
    1CAL  C01Df23379   8.252   0.812   1.624
    1CAL  C01Dg23380  10.001   0.505   1.931
    1CAL  C01Dh23381  10.002   0.907   1.930
    1CAL  C01Di23382  10.002   0.313   1.317
    1CAL  C01Dj23383  10.002   1.117   1.317
    1CAL  C01Dk23384   8.252   1.212   1.622
    1CAL  C01Dl23385   8.501   0.505   1.930
    1CAL  C01Dm23386   9.502   0.715   1.317
    1CAL  C01Dn23387  10.002   0.715   1.317
    1CAL  C01Do23388   9.752   0.410   1.624
    1CAL  C01Dp23389   9.252   0.410   1.624
    1CAL  C01Dq23390   9.502   0.313   1.317
    1CAL  C01Dr23391   9.502   0.907   1.930
    1CAL  C01Ds23392   8.500   1.308   1.930
    1CAL  C01Dt23393   9.502   1.517   1.317
    1CAL  C01Du23394   8.752   0.410   1.624
    1CAL  C01Dv23395   9.252   0.812   1.624
    1CAL  C01Dw23396   8.502   1.117   1.317
    1CAL  C01Dx23397   9.752   1.212   1.621
    1CAL  C01Dy23398   9.002   1.517   1.317
    1CAL  C01Dz23399  10.001   1.308   1.931
    1CAL  C01E023400   9.002   0.103   1.930
    1CAL  C01E123401   9.001   1.308   1.930
    1CAL  C01E223402   9.001   0.505   1.931
    1CAL  C01E323403   9.752   0.812   1.624
    1CAL  C01E423404   8.502   1.517   1.317
    1CAL  C01E523405   9.502   1.117   1.317
    1CAL  C01E623406   8.502   0.715   1.317
    1CAL  C01E723407   8.752   0.812   1.624
    1CAL  C01E823408  10.002   0.103   1.931
    1CAL  C01E923409   8.753   0.603   2.241
    1CAL  C01EA23410   8.749   0.202   2.241
    1CAL  C01EB23411   8.749   1.005   2.240
    1CAL  C01EC23412   8.753   1.406   2.241
    1CAL  C01ED23413   9.753   0.603   2.241
    1CAL  C01EE23414   9.749   0.202   2.241
    1CAL  C01EF23415   9.753   1.406   2.241
    1CAL  C01EG23416   9.750   1.005   2.240
    1CAL  C01EH23417   9.253   1.406   2.241
    1CAL  C01EI23418   9.250   1.004   2.241
    1CAL  C01EJ23419   9.253   0.603   2.241
    1CAL  C01EK23420   9.249   0.201   2.242
    1CAL  C01EL23421   8.253   1.406   2.242
    1CAL  C01EM23422   8.250   1.004   2.242
    1CAL  C01EN23423   8.253   0.604   2.241
    1CAL  C01EO23424   8.249   0.201   2.243
    1CAL  O03e523425   8.187   0.734   1.703
    1CAL  O03e623426   9.188   0.891   1.545
    1CAL  O03e723427   9.187   0.734   1.703
    1CAL  O03e823428   9.381   0.812   1.625
    1CAL  O03e923429   8.566   1.438   1.396
    1CAL  O03eA23430   8.373   1.518   1.316
    1CAL  O03eB23431   8.566   0.794   1.238
    1CAL  O03eC23432   8.688   0.891   1.545
    1CAL  O03eD23433   8.687   0.734   1.703
    1CAL  O03eE23434   8.881   0.812   1.625
    1CAL  O03eF23435   8.567   1.595   1.238
    1CAL  O03eG23436   8.566   0.637   1.396
    1CAL  O03eH23437   8.373   0.715   1.317
    1CAL  O03eI23438   9.130   1.307   1.931
    1CAL  O03eJ23439   8.937   1.386   1.850
    1CAL  O03eK23440   8.938   0.584   1.850
    1CAL  O03eL23441   8.935   0.427   2.010
    1CAL  O03eM23442   9.130   0.504   1.932
    1CAL  O03eN23443   8.935   1.230   2.010
    1CAL  O03eO23444   8.623   0.410   1.624
    1CAL  O03eP23445   9.065   0.986   1.850
    1CAL  O03eQ23446   9.124   1.212   1.621
    1CAL  O03eR23447   9.316   1.133   1.701
    1CAL  O03eS23448   9.317   1.290   1.543
    1CAL  O03eT23449   8.438   0.234   1.396
    1CAL  O03eU23450   8.437   0.391   1.238
    1CAL  O03eV23451   8.623   1.212   1.621
    1CAL  O03eW23452   8.816   1.133   1.701
    1CAL  O03eX23453   8.817   1.290   1.543
    1CAL  O03eY23454   8.316   0.489   1.545
    1CAL  O03eZ23455   8.816   0.331   1.703
    1CAL  O03ea23456   8.938   1.196   1.237
    1CAL  O03eb23457   9.131   1.117   1.317
    1CAL  O03ec23458   8.316   0.331   1.704
    1CAL  O03ed23459   8.123   0.410   1.624
    1CAL  O03ee23460   8.816   0.489   1.545
    1CAL  O03ef23461   8.938   0.392   1.237
    1CAL  O03eg23462   8.938   0.234   1.396
    1CAL  O03eh23463   9.131   0.313   1.317
    1CAL  O03ei23464   8.872   0.906   1.931
    1CAL  O03ej23465   9.068   0.829   2.009
    1CAL  O03ek23466   8.937   1.039   1.396
    1CAL  O03el23467   9.688   0.891   1.545
    1CAL  O03em23468   9.687   0.734   1.703
    1CAL  O03en23469   9.881   0.812   1.625
    1CAL  O03eo23470   9.936   1.229   2.010
    1CAL  O03ep23471   9.938   0.584   1.851
    1CAL  O03eq23472   9.936   0.426   2.010
    1CAL  O03er23473   8.130   1.307   1.932
    1CAL  O03es23474   8.066   0.182   1.851
    1CAL  O03et23475   9.438   1.196   1.237
    1CAL  O03eu23476   9.437   1.039   1.396
    1CAL  O03ev23477   9.631   1.117   1.317
    1CAL  O03ew23478   8.067   0.025   2.011
    1CAL  O03ex23479   9.436   1.230   2.010
    1CAL  O03ey23480   8.067   1.595   1.238
    1CAL  O03ez23481   8.066   1.438   1.396
    1CAL  O03f023482   8.873   1.518   1.316
    1CAL  O03f123483   9.873   0.906   1.932
    1CAL  O03f223484   9.938   0.234   1.396
    1CAL  O03f323485   9.066   0.182   1.851
    1CAL  O03f423486   8.438   1.196   1.237
    1CAL  O03f523487   8.437   1.039   1.396
    1CAL  O03f623488   8.631   1.117   1.317
    1CAL  O03f723489   9.067   0.024   2.010
    1CAL  O03f823490   8.435   1.230   2.010
    1CAL  O03f923491   8.873   0.103   1.931
    1CAL  O03fA23492   9.874   0.715   1.317
    1CAL  O03fB23493   9.067   1.595   1.238
    1CAL  O03fC23494   9.066   1.438   1.396
    1CAL  O03fD23495   9.624   1.212   1.621
    1CAL  O03fE23496   9.816   1.133   1.701
    1CAL  O03fF23497   9.817   1.290   1.542
    1CAL  O03fG23498   9.939   1.196   1.237
    1CAL  O03fH23499   9.937   1.039   1.396
    1CAL  O03fI23500   9.938   0.392   1.237
    1CAL  O03fJ23501   8.631   0.313   1.316
    1CAL  O03fK23502   8.381   0.812   1.625
    1CAL  O03fL23503   8.372   0.906   1.934
    1CAL  O03fM23504   9.067   0.637   1.396
    1CAL  O03fN23505   9.566   1.438   1.396
    1CAL  O03fO23506   9.567   1.595   1.238
    1CAL  O03fP23507   9.624   0.410   1.624
    1CAL  O03fQ23508   9.817   0.331   1.703
    1CAL  O03fR23509   9.374   1.518   1.316
    1CAL  O03fS23510   9.123   0.410   1.624
    1CAL  O03fT23511   9.316   0.489   1.545
    1CAL  O03fU23512   8.630   1.307   1.931
    1CAL  O03fV23513   9.438   0.391   1.238
    1CAL  O03fW23514   9.438   0.234   1.396
    1CAL  O03fX23515   9.631   0.313   1.316
    1CAL  O03fY23516   9.373   0.906   1.933
    1CAL  O03fZ23517   9.568   0.829   2.009
    1CAL  O03fa23518   9.317   0.331   1.703
    1CAL  O03fb23519   9.565   0.987   1.850
    1CAL  O03fc23520   8.067   0.637   1.396
    1CAL  O03fd23521   9.567   0.637   1.396
    1CAL  O03fe23522   8.188   0.891   1.545
    1CAL  O03ff23523   8.065   0.987   1.850
    1CAL  O03fg23524   8.067   0.829   2.010
    1CAL  O03fh23525   8.130   0.504   1.932
    1CAL  O03fi23526   8.131   0.313   1.317
    1CAL  O03fj23527   8.130   1.117   1.317
    1CAL  O03fk23528   9.566   0.794   1.238
    1CAL  O03fl23529   8.317   1.290   1.543
    1CAL  O03fm23530   9.874   1.518   1.316
    1CAL  O03fn23531   9.873   0.103   1.932
    1CAL  O03fo23532   8.123   1.212   1.621
    1CAL  O03fp23533   9.937   1.386   1.850
    1CAL  O03fq23534   8.066   0.794   1.238
    1CAL  O03fr23535   9.374   0.715   1.317
    1CAL  O03fs23536   8.316   1.133   1.701
    1CAL  O03ft23537   8.436   1.387   1.850
    1CAL  O03fu23538   8.630   0.504   1.931
    1CAL  O03fv23539   9.373   0.102   1.933
    1CAL  O03fw23540   9.438   0.584   1.850
    1CAL  O03fx23541   9.436   0.427   2.010
    1CAL  O03fy23542   9.631   0.504   1.931
    1CAL  O03fz23543   8.881   0.007   1.624
    1CAL  O03g023544   8.688   1.535   1.703
    1CAL  O03g123545   9.436   1.386   1.850
    1CAL  O03g223546   9.630   1.307   1.930
    1CAL  O03g323547   8.688   0.086   1.545
    1CAL  O03g423548   8.565   0.182   1.851
    1CAL  O03g523549   8.568   0.025   2.010
    1CAL  O03g623550   8.372   0.103   1.933
    1CAL  O03g723551   8.564   0.987   1.850
    1CAL  O03g823552   8.569   0.829   2.010
    1CAL  O03g923553   8.873   0.715   1.317
    1CAL  O03gA23554   9.568   0.024   2.010
    1CAL  O03gB23555   9.566   0.182   1.851
    1CAL  O03gC23556   8.435   0.427   2.010
    1CAL  O03gD23557   8.437   0.585   1.851
    1CAL  O03gE23558   9.688   0.086   1.545
    1CAL  O03gF23559   9.688   1.535   1.703
    1CAL  O03gG23560   9.881   0.007   1.624
    1CAL  O03gH23561   8.381   0.008   1.624
    1CAL  O03gI23562   8.188   1.535   1.703
    1CAL  O03gJ23563   8.187   0.086   1.545
    1CAL  O03gK23564   9.188   0.086   1.545
    1CAL  O03gL23565   9.188   1.535   1.703
    1CAL  O03gM23566   9.381   0.008   1.624
    1CAL  O03gN23567   9.066   0.794   1.238
    1CAL  O03gO23568   9.817   0.489   1.545
    1CAL  O03gP23569   8.822   1.480   2.159
    1CAL  O03gQ23570   8.813   1.328   2.325
    1CAL  O03gR23571   8.623   1.412   2.239
    1CAL  O03gS23572   8.680   1.079   2.158
    1CAL  O03gT23573   8.689   0.928   2.324
    1CAL  O03gU23574   8.879   1.010   2.237
    1CAL  O03gV23575   8.879   0.207   2.238
    1CAL  O03gW23576   8.689   0.124   2.325
    1CAL  O03gX23577   8.680   0.275   2.159
    1CAL  O03gY23578   8.623   0.609   2.238
    1CAL  O03gZ23579   8.813   0.525   2.324
    1CAL  O03ga23580   8.822   0.677   2.159
    1CAL  O03gb23581   9.681   1.079   2.158
    1CAL  O03gc23582   9.879   1.010   2.238
    1CAL  O03gd23583   9.689   0.927   2.324
    1CAL  O03ge23584   9.624   1.411   2.238
    1CAL  O03gf23585   9.813   1.328   2.324
    1CAL  O03gg23586   9.822   1.480   2.159
    1CAL  O03gh23587   9.680   0.275   2.159
    1CAL  O03gi23588   9.879   0.207   2.238
    1CAL  O03gj23589   9.689   0.124   2.325
    1CAL  O03gk23590   9.623   0.608   2.238
    1CAL  O03gl23591   9.813   0.525   2.324
    1CAL  O03gm23592   9.822   0.677   2.159
    1CAL  O03gn23593   9.313   1.328   2.325
    1CAL  O03go23594   9.123   1.411   2.239
    1CAL  O03gp23595   9.322   1.479   2.159
    1CAL  O03gq23596   9.181   1.078   2.159
    1CAL  O03gr23597   9.190   0.926   2.325
    1CAL  O03gs23598   9.380   1.010   2.239
    1CAL  O03gt23599   9.313   0.525   2.325
    1CAL  O03gu23600   9.322   0.676   2.159
    1CAL  O03gv23601   9.123   0.609   2.238
    1CAL  O03gw23602   9.181   0.275   2.160
    1CAL  O03gx23603   9.189   0.123   2.325
    1CAL  O03gy23604   9.379   0.207   2.240
    1CAL  O03gz23605   8.312   1.328   2.326
    1CAL  O03h023606   8.123   1.412   2.239
    1CAL  O03h123607   8.322   1.479   2.160
    1CAL  O03h223608   8.181   1.078   2.160
    1CAL  O03h323609   8.190   0.926   2.325
    1CAL  O03h423610   8.380   1.010   2.241
    1CAL  O03h523611   8.312   0.526   2.326
    1CAL  O03h623612   8.123   0.609   2.238
    1CAL  O03h723613   8.322   0.677   2.159
    1CAL  O03h823614   8.379   0.207   2.241
    1CAL  O03h923615   8.189   0.123   2.326
    1CAL  O03hA23616   8.181   0.275   2.161
    1CAL  Ca1DN23617   9.004   0.810   2.236
    1CAL  Ca1DO23618   9.752   0.514   1.317
    1CAL  Ca1DP23619   9.498   1.211   2.237
    1CAL  Ca1DQ23620   8.004   0.810   2.237
    1CAL  Ca1DR23621   8.752   1.507   1.932
    1CAL  Ca1DS23622   9.752   0.916   1.317
    1CAL  Ca1DT23623   9.502   0.611   1.624
    1CAL  Ca1DU23624   9.502   1.413   1.624
    1CAL  Ca1DV23625   8.251   1.106   1.931
    1CAL  Ca1DW23626   9.002   1.413   1.624
    1CAL  Ca1DX23627   8.504   0.007   2.237
    1CAL  Ca1DY23628   8.252   0.514   1.317
    1CAL  Ca1DZ23629   8.252   0.705   1.932
    1CAL  Ca1Da23630   9.999   0.408   2.237
    1CAL  Ca1Db23631   9.999   1.211   2.237
    1CAL  Ca1Dc23632   9.751   1.106   1.930
    1CAL  Ca1Dd23633   9.252   0.112   1.317
    1CAL  Ca1De23634  10.002   1.413   1.624
    1CAL  Ca1Df23635   9.752   0.112   1.317
    1CAL  Ca1Dg23636   8.497   0.409   2.237
    1CAL  Ca1Dh23637   8.004   0.007   2.238
    1CAL  Ca1Di23638   9.753   0.705   1.932
    1CAL  Ca1Dj23639   8.252   0.916   1.317
    1CAL  Ca1Dk23640  10.002   0.611   1.624
    1CAL  Ca1Dl23641   9.502   1.012   1.623
    1CAL  Ca1Dm23642   8.252   1.508   1.932
    1CAL  Ca1Dn23643   9.752   1.317   1.318
    1CAL  Ca1Do23644   8.502   1.012   1.623
    1CAL  Ca1Dp23645   8.498   1.212   2.237
    1CAL  Ca1Dq23646  10.002   0.209   1.624
    1CAL  Ca1Dr23647   8.502   1.413   1.624
    1CAL  Ca1Ds23648   9.498   0.408   2.237
    1CAL  Ca1Dt23649   9.252   0.916   1.317
    1CAL  Ca1Du23650   8.752   0.916   1.317
    1CAL  Ca1Dv23651   9.002   0.209   1.624
    1CAL  Ca1Dw23652   9.002   1.012   1.623
    1CAL  Ca1Dx23653   8.502   0.611   1.624
    1CAL  Ca1Dy23654   9.002   0.611   1.624
    1CAL  Ca1Dz23655   8.751   1.106   1.931
    1CAL  Ca1E023656   8.252   0.112   1.317
    1CAL  Ca1E123657   8.752   0.514   1.317
    1CAL  Ca1E223658   9.252   0.514   1.317
    1CAL  Ca1E323659   9.251   1.106   1.931
    1CAL  Ca1E423660   9.252   1.507   1.932
    1CAL  Ca1E523661   9.751   0.303   1.932
    1CAL  Ca1E623662   9.004   0.007   2.237
    1CAL  Ca1E723663   8.750   0.303   1.932
    1CAL  Ca1E823664   8.505   0.810   2.236
    1CAL  Ca1E923665   8.502   0.209   1.624
    1CAL  Ca1EA23666   8.752   0.112   1.317
    1CAL  Ca1EB23667   9.252   1.317   1.318
    1CAL  Ca1EC23668   9.251   0.303   1.932
    1CAL  Ca1ED23669   8.998   0.408   2.237
    1CAL  Ca1EE23670   8.752   1.317   1.318
    1CAL  Ca1EF23671   8.998   1.211   2.237
    1CAL  Ca1EG23672   8.252   1.317   1.318
    1CAL  Ca1EH23673   9.502   0.209   1.624
    1CAL  Ca1EI23674   9.505   0.810   2.236
    1CAL  Ca1EJ23675   9.504   0.006   2.237
    1CAL  Ca1EK23676   8.752   0.705   1.932
    1CAL  Ca1EL23677   9.752   1.508   1.932
    1CAL  Ca1EM23678   9.252   0.705   1.932
    1CAL  Ca1EN23679   8.251   0.303   1.932
    1CAL  Ca1EO23680  10.002   1.012   1.623
    1CAL  C01EP23681  10.002   1.517   2.545
    1CAL  C01EQ23682   9.252   0.007   2.852
    1CAL  C01ER23683   8.252   0.007   2.852
    1CAL  C01ES23684   9.501   0.505   3.158
    1CAL  C01ET23685   9.501   1.308   3.158
    1CAL  C01EU23686   8.752   0.007   2.852
    1CAL  C01EV23687   9.002   0.715   2.545
    1CAL  C01EW23688   9.252   1.212   2.849
    1CAL  C01EX23689   8.752   1.212   2.850
    1CAL  C01EY23690   8.502   0.907   3.159
    1CAL  C01EZ23691   8.502   0.313   2.545
    1CAL  C01Ea23692   9.002   1.117   2.545
    1CAL  C01Eb23693   9.002   0.313   2.545
    1CAL  C01Ec23694   8.252   0.410   2.852
    1CAL  C01Ed23695   8.502   0.103   3.159
    1CAL  C01Ee23696   9.002   0.907   3.158
    1CAL  C01Ef23697   9.752   0.007   2.852
    1CAL  C01Eg23698   9.502   0.103   3.159
    1CAL  C01Eh23699   8.252   0.812   2.852
    1CAL  C01Ei23700  10.001   0.505   3.159
    1CAL  C01Ej23701  10.002   0.907   3.158
    1CAL  C01Ek23702  10.002   0.313   2.545
    1CAL  C01El23703  10.002   1.117   2.545
    1CAL  C01Em23704   8.252   1.212   2.850
    1CAL  C01En23705   8.501   0.505   3.158
    1CAL  C01Eo23706   9.502   0.715   2.545
    1CAL  C01Ep23707  10.002   0.715   2.545
    1CAL  C01Eq23708   9.752   0.410   2.852
    1CAL  C01Er23709   9.252   0.410   2.852
    1CAL  C01Es23710   9.502   0.313   2.545
    1CAL  C01Et23711   9.502   0.907   3.158
    1CAL  C01Eu23712   8.500   1.308   3.158
    1CAL  C01Ev23713   9.502   1.517   2.545
    1CAL  C01Ew23714   8.752   0.410   2.852
    1CAL  C01Ex23715   9.252   0.812   2.852
    1CAL  C01Ey23716   8.502   1.117   2.545
    1CAL  C01Ez23717   9.752   1.212   2.849
    1CAL  C01F023718   9.002   1.517   2.545
    1CAL  C01F123719  10.001   1.308   3.159
    1CAL  C01F223720   9.002   0.103   3.158
    1CAL  C01F323721   9.001   1.308   3.158
    1CAL  C01F423722   9.001   0.505   3.159
    1CAL  C01F523723   9.752   0.812   2.852
    1CAL  C01F623724   8.502   1.517   2.545
    1CAL  C01F723725   9.502   1.117   2.545
    1CAL  C01F823726   8.502   0.715   2.545
    1CAL  C01F923727   8.752   0.812   2.852
    1CAL  C01FA23728  10.002   0.103   3.159
    1CAL  C01FB23729   8.753   0.603   3.469
    1CAL  C01FC23730   8.749   0.202   3.469
    1CAL  C01FD23731   8.749   1.005   3.468
    1CAL  C01FE23732   8.753   1.406   3.469
    1CAL  C01FF23733   9.753   0.603   3.469
    1CAL  C01FG23734   9.749   0.202   3.469
    1CAL  C01FH23735   9.753   1.406   3.469
    1CAL  C01FI23736   9.750   1.005   3.468
    1CAL  C01FJ23737   9.253   1.406   3.469
    1CAL  C01FK23738   9.250   1.004   3.469
    1CAL  C01FL23739   9.253   0.603   3.469
    1CAL  C01FM23740   9.249   0.201   3.470
    1CAL  C01FN23741   8.253   1.406   3.470
    1CAL  C01FO23742   8.250   1.004   3.470
    1CAL  C01FP23743   8.253   0.604   3.469
    1CAL  C01FQ23744   8.249   0.201   3.471
    1CAL  O03hB23745   8.187   0.734   2.931
    1CAL  O03hC23746   9.188   0.891   2.773
    1CAL  O03hD23747   9.187   0.734   2.931
    1CAL  O03hE23748   9.381   0.812   2.853
    1CAL  O03hF23749   8.566   1.438   2.624
    1CAL  O03hG23750   8.373   1.518   2.544
    1CAL  O03hH23751   8.566   0.794   2.466
    1CAL  O03hI23752   8.688   0.891   2.773
    1CAL  O03hJ23753   8.687   0.734   2.931
    1CAL  O03hK23754   8.881   0.812   2.853
    1CAL  O03hL23755   8.567   1.595   2.466
    1CAL  O03hM23756   8.566   0.637   2.624
    1CAL  O03hN23757   8.373   0.715   2.545
    1CAL  O03hO23758   9.130   1.307   3.159
    1CAL  O03hP23759   8.937   1.386   3.078
    1CAL  O03hQ23760   8.938   0.584   3.078
    1CAL  O03hR23761   8.935   0.427   3.238
    1CAL  O03hS23762   9.130   0.504   3.160
    1CAL  O03hT23763   8.935   1.230   3.238
    1CAL  O03hU23764   8.623   0.410   2.852
    1CAL  O03hV23765   9.065   0.986   3.078
    1CAL  O03hW23766   9.124   1.212   2.849
    1CAL  O03hX23767   9.316   1.133   2.929
    1CAL  O03hY23768   9.317   1.290   2.771
    1CAL  O03hZ23769   8.438   0.234   2.624
    1CAL  O03ha23770   8.437   0.391   2.466
    1CAL  O03hb23771   8.623   1.212   2.849
    1CAL  O03hc23772   8.816   1.133   2.929
    1CAL  O03hd23773   8.817   1.290   2.771
    1CAL  O03he23774   8.316   0.489   2.773
    1CAL  O03hf23775   8.816   0.331   2.931
    1CAL  O03hg23776   8.938   1.196   2.465
    1CAL  O03hh23777   9.131   1.117   2.545
    1CAL  O03hi23778   8.316   0.331   2.932
    1CAL  O03hj23779   8.123   0.410   2.852
    1CAL  O03hk23780   8.816   0.489   2.773
    1CAL  O03hl23781   8.938   0.392   2.465
    1CAL  O03hm23782   8.938   0.234   2.624
    1CAL  O03hn23783   9.131   0.313   2.545
    1CAL  O03ho23784   8.872   0.906   3.159
    1CAL  O03hp23785   9.068   0.829   3.237
    1CAL  O03hq23786   8.937   1.039   2.624
    1CAL  O03hr23787   9.688   0.891   2.773
    1CAL  O03hs23788   9.687   0.734   2.931
    1CAL  O03ht23789   9.881   0.812   2.853
    1CAL  O03hu23790   9.936   1.229   3.238
    1CAL  O03hv23791   9.938   0.584   3.079
    1CAL  O03hw23792   9.936   0.426   3.238
    1CAL  O03hx23793   8.130   1.307   3.160
    1CAL  O03hy23794   8.066   0.182   3.079
    1CAL  O03hz23795   9.438   1.196   2.465
    1CAL  O03i023796   9.437   1.039   2.624
    1CAL  O03i123797   9.631   1.117   2.545
    1CAL  O03i223798   8.067   0.025   3.239
    1CAL  O03i323799   9.436   1.230   3.238
    1CAL  O03i423800   8.067   1.595   2.466
    1CAL  O03i523801   8.066   1.438   2.624
    1CAL  O03i623802   8.873   1.518   2.544
    1CAL  O03i723803   9.873   0.906   3.160
    1CAL  O03i823804   9.938   0.234   2.624
    1CAL  O03i923805   9.066   0.182   3.079
    1CAL  O03iA23806   8.438   1.196   2.465
    1CAL  O03iB23807   8.437   1.039   2.624
    1CAL  O03iC23808   8.631   1.117   2.545
    1CAL  O03iD23809   9.067   0.024   3.238
    1CAL  O03iE23810   8.435   1.230   3.238
    1CAL  O03iF23811   8.873   0.103   3.159
    1CAL  O03iG23812   9.874   0.715   2.545
    1CAL  O03iH23813   9.067   1.595   2.466
    1CAL  O03iI23814   9.066   1.438   2.624
    1CAL  O03iJ23815   9.624   1.212   2.849
    1CAL  O03iK23816   9.816   1.133   2.929
    1CAL  O03iL23817   9.817   1.290   2.770
    1CAL  O03iM23818   9.939   1.196   2.465
    1CAL  O03iN23819   9.937   1.039   2.624
    1CAL  O03iO23820   9.938   0.392   2.465
    1CAL  O03iP23821   8.631   0.313   2.544
    1CAL  O03iQ23822   8.381   0.812   2.853
    1CAL  O03iR23823   8.372   0.906   3.162
    1CAL  O03iS23824   9.067   0.637   2.624
    1CAL  O03iT23825   9.566   1.438   2.624
    1CAL  O03iU23826   9.567   1.595   2.466
    1CAL  O03iV23827   9.624   0.410   2.852
    1CAL  O03iW23828   9.817   0.331   2.931
    1CAL  O03iX23829   9.374   1.518   2.544
    1CAL  O03iY23830   9.123   0.410   2.852
    1CAL  O03iZ23831   9.316   0.489   2.773
    1CAL  O03ia23832   8.630   1.307   3.159
    1CAL  O03ib23833   9.438   0.391   2.466
    1CAL  O03ic23834   9.438   0.234   2.624
    1CAL  O03id23835   9.631   0.313   2.544
    1CAL  O03ie23836   9.373   0.906   3.161
    1CAL  O03if23837   9.568   0.829   3.237
    1CAL  O03ig23838   9.317   0.331   2.931
    1CAL  O03ih23839   9.565   0.987   3.078
    1CAL  O03ii23840   8.067   0.637   2.624
    1CAL  O03ij23841   9.567   0.637   2.624
    1CAL  O03ik23842   8.188   0.891   2.773
    1CAL  O03il23843   8.065   0.987   3.078
    1CAL  O03im23844   8.067   0.829   3.238
    1CAL  O03in23845   8.130   0.504   3.160
    1CAL  O03io23846   8.131   0.313   2.545
    1CAL  O03ip23847   8.130   1.117   2.545
    1CAL  O03iq23848   9.566   0.794   2.466
    1CAL  O03ir23849   8.317   1.290   2.771
    1CAL  O03is23850   9.874   1.518   2.544
    1CAL  O03it23851   9.873   0.103   3.160
    1CAL  O03iu23852   8.123   1.212   2.849
    1CAL  O03iv23853   9.937   1.386   3.078
    1CAL  O03iw23854   8.066   0.794   2.466
    1CAL  O03ix23855   9.374   0.715   2.545
    1CAL  O03iy23856   8.316   1.133   2.929
    1CAL  O03iz23857   8.436   1.387   3.078
    1CAL  O03j023858   8.630   0.504   3.159
    1CAL  O03j123859   9.373   0.102   3.161
    1CAL  O03j223860   9.438   0.584   3.078
    1CAL  O03j323861   9.436   0.427   3.238
    1CAL  O03j423862   9.631   0.504   3.159
    1CAL  O03j523863   8.881   0.007   2.852
    1CAL  O03j623864   8.688   1.535   2.931
    1CAL  O03j723865   9.436   1.386   3.078
    1CAL  O03j823866   9.630   1.307   3.158
    1CAL  O03j923867   8.688   0.086   2.773
    1CAL  O03jA23868   8.565   0.182   3.079
    1CAL  O03jB23869   8.568   0.025   3.238
    1CAL  O03jC23870   8.372   0.103   3.161
    1CAL  O03jD23871   8.564   0.987   3.078
    1CAL  O03jE23872   8.569   0.829   3.238
    1CAL  O03jF23873   8.873   0.715   2.545
    1CAL  O03jG23874   9.568   0.024   3.238
    1CAL  O03jH23875   9.566   0.182   3.079
    1CAL  O03jI23876   8.435   0.427   3.238
    1CAL  O03jJ23877   8.437   0.585   3.079
    1CAL  O03jK23878   9.688   0.086   2.773
    1CAL  O03jL23879   9.688   1.535   2.931
    1CAL  O03jM23880   9.881   0.007   2.852
    1CAL  O03jN23881   8.381   0.008   2.852
    1CAL  O03jO23882   8.188   1.535   2.931
    1CAL  O03jP23883   8.187   0.086   2.773
    1CAL  O03jQ23884   9.188   0.086   2.773
    1CAL  O03jR23885   9.188   1.535   2.931
    1CAL  O03jS23886   9.381   0.008   2.852
    1CAL  O03jT23887   9.066   0.794   2.466
    1CAL  O03jU23888   9.817   0.489   2.773
    1CAL  O03jV23889   8.822   1.480   3.387
    1CAL  O03jW23890   8.813   1.328   3.553
    1CAL  O03jX23891   8.623   1.412   3.467
    1CAL  O03jY23892   8.680   1.079   3.386
    1CAL  O03jZ23893   8.689   0.928   3.552
    1CAL  O03ja23894   8.879   1.010   3.465
    1CAL  O03jb23895   8.879   0.207   3.466
    1CAL  O03jc23896   8.689   0.124   3.553
    1CAL  O03jd23897   8.680   0.275   3.387
    1CAL  O03je23898   8.623   0.609   3.466
    1CAL  O03jf23899   8.813   0.525   3.552
    1CAL  O03jg23900   8.822   0.677   3.387
    1CAL  O03jh23901   9.681   1.079   3.386
    1CAL  O03ji23902   9.879   1.010   3.466
    1CAL  O03jj23903   9.689   0.927   3.552
    1CAL  O03jk23904   9.624   1.411   3.466
    1CAL  O03jl23905   9.813   1.328   3.552
    1CAL  O03jm23906   9.822   1.480   3.387
    1CAL  O03jn23907   9.680   0.275   3.387
    1CAL  O03jo23908   9.879   0.207   3.466
    1CAL  O03jp23909   9.689   0.124   3.553
    1CAL  O03jq23910   9.623   0.608   3.466
    1CAL  O03jr23911   9.813   0.525   3.552
    1CAL  O03js23912   9.822   0.677   3.387
    1CAL  O03jt23913   9.313   1.328   3.553
    1CAL  O03ju23914   9.123   1.411   3.467
    1CAL  O03jv23915   9.322   1.479   3.387
    1CAL  O03jw23916   9.181   1.078   3.387
    1CAL  O03jx23917   9.190   0.926   3.553
    1CAL  O03jy23918   9.380   1.010   3.467
    1CAL  O03jz23919   9.313   0.525   3.553
    1CAL  O03k023920   9.322   0.676   3.387
    1CAL  O03k123921   9.123   0.609   3.466
    1CAL  O03k223922   9.181   0.275   3.388
    1CAL  O03k323923   9.189   0.123   3.553
    1CAL  O03k423924   9.379   0.207   3.468
    1CAL  O03k523925   8.312   1.328   3.554
    1CAL  O03k623926   8.123   1.412   3.467
    1CAL  O03k723927   8.322   1.479   3.388
    1CAL  O03k823928   8.181   1.078   3.388
    1CAL  O03k923929   8.190   0.926   3.553
    1CAL  O03kA23930   8.380   1.010   3.469
    1CAL  O03kB23931   8.312   0.526   3.554
    1CAL  O03kC23932   8.123   0.609   3.466
    1CAL  O03kD23933   8.322   0.677   3.387
    1CAL  O03kE23934   8.379   0.207   3.469
    1CAL  O03kF23935   8.189   0.123   3.554
    1CAL  O03kG23936   8.181   0.275   3.389
    1CAL  Ca1EP23937   9.004   0.810   3.464
    1CAL  Ca1EQ23938   9.752   0.514   2.545
    1CAL  Ca1ER23939   9.498   1.211   3.465
    1CAL  Ca1ES23940   8.004   0.810   3.465
    1CAL  Ca1ET23941   8.752   1.507   3.160
    1CAL  Ca1EU23942   9.752   0.916   2.545
    1CAL  Ca1EV23943   9.502   0.611   2.852
    1CAL  Ca1EW23944   9.502   1.413   2.852
    1CAL  Ca1EX23945   8.251   1.106   3.159
    1CAL  Ca1EY23946   9.002   1.413   2.852
    1CAL  Ca1EZ23947   8.504   0.007   3.465
    1CAL  Ca1Ea23948   8.252   0.514   2.545
    1CAL  Ca1Eb23949   8.252   0.705   3.160
    1CAL  Ca1Ec23950   9.999   0.408   3.465
    1CAL  Ca1Ed23951   9.999   1.211   3.465
    1CAL  Ca1Ee23952   9.751   1.106   3.158
    1CAL  Ca1Ef23953   9.252   0.112   2.545
    1CAL  Ca1Eg23954  10.002   1.413   2.852
    1CAL  Ca1Eh23955   9.752   0.112   2.545
    1CAL  Ca1Ei23956   8.497   0.409   3.465
    1CAL  Ca1Ej23957   8.004   0.007   3.466
    1CAL  Ca1Ek23958   9.753   0.705   3.160
    1CAL  Ca1El23959   8.252   0.916   2.545
    1CAL  Ca1Em23960  10.002   0.611   2.852
    1CAL  Ca1En23961   9.502   1.012   2.851
    1CAL  Ca1Eo23962   8.252   1.508   3.160
    1CAL  Ca1Ep23963   9.752   1.317   2.546
    1CAL  Ca1Eq23964   8.502   1.012   2.851
    1CAL  Ca1Er23965   8.498   1.212   3.465
    1CAL  Ca1Es23966  10.002   0.209   2.852
    1CAL  Ca1Et23967   8.502   1.413   2.852
    1CAL  Ca1Eu23968   9.498   0.408   3.465
    1CAL  Ca1Ev23969   9.252   0.916   2.545
    1CAL  Ca1Ew23970   8.752   0.916   2.545
    1CAL  Ca1Ex23971   9.002   0.209   2.852
    1CAL  Ca1Ey23972   9.002   1.012   2.851
    1CAL  Ca1Ez23973   8.502   0.611   2.852
    1CAL  Ca1F023974   9.002   0.611   2.852
    1CAL  Ca1F123975   8.751   1.106   3.159
    1CAL  Ca1F223976   8.252   0.112   2.545
    1CAL  Ca1F323977   8.752   0.514   2.545
    1CAL  Ca1F423978   9.252   0.514   2.545
    1CAL  Ca1F523979   9.251   1.106   3.159
    1CAL  Ca1F623980   9.252   1.507   3.160
    1CAL  Ca1F723981   9.751   0.303   3.160
    1CAL  Ca1F823982   9.004   0.007   3.465
    1CAL  Ca1F923983   8.750   0.303   3.160
    1CAL  Ca1FA23984   8.505   0.810   3.464
    1CAL  Ca1FB23985   8.502   0.209   2.852
    1CAL  Ca1FC23986   8.752   0.112   2.545
    1CAL  Ca1FD23987   9.252   1.317   2.546
    1CAL  Ca1FE23988   9.251   0.303   3.160
    1CAL  Ca1FF23989   8.998   0.408   3.465
    1CAL  Ca1FG23990   8.752   1.317   2.546
    1CAL  Ca1FH23991   8.998   1.211   3.465
    1CAL  Ca1FI23992   8.252   1.317   2.546
    1CAL  Ca1FJ23993   9.502   0.209   2.852
    1CAL  Ca1FK23994   9.505   0.810   3.464
    1CAL  Ca1FL23995   9.504   0.006   3.465
    1CAL  Ca1FM23996   8.752   0.705   3.160
    1CAL  Ca1FN23997   9.752   1.508   3.160
    1CAL  Ca1FO23998   9.252   0.705   3.160
    1CAL  Ca1FP23999   8.251   0.303   3.160
    1CAL  Ca1FQ24000  10.002   1.012   2.851
    1CAL  C01FR24001  10.002   3.123   0.089
    1CAL  C01FS24002   9.252   1.613   0.396
    1CAL  C01FT24003   8.252   1.613   0.396
    1CAL  C01FU24004   9.501   2.111   0.702
    1CAL  C01FV24005   9.501   2.914   0.702
    1CAL  C01FW24006   8.752   1.613   0.396
    1CAL  C01FX24007   9.002   2.321   0.089
    1CAL  C01FY24008   9.252   2.818   0.393
    1CAL  C01FZ24009   8.752   2.818   0.394
    1CAL  C01Fa24010   8.502   2.513   0.703
    1CAL  C01Fb24011   8.502   1.919   0.089
    1CAL  C01Fc24012   9.002   2.723   0.089
    1CAL  C01Fd24013   9.002   1.919   0.089
    1CAL  C01Fe24014   8.252   2.016   0.396
    1CAL  C01Ff24015   8.502   1.709   0.703
    1CAL  C01Fg24016   9.002   2.513   0.702
    1CAL  C01Fh24017   9.752   1.613   0.396
    1CAL  C01Fi24018   9.502   1.709   0.703
    1CAL  C01Fj24019   8.252   2.418   0.396
    1CAL  C01Fk24020  10.001   2.111   0.703
    1CAL  C01Fl24021  10.002   2.513   0.702
    1CAL  C01Fm24022  10.002   1.919   0.089
    1CAL  C01Fn24023  10.002   2.723   0.089
    1CAL  C01Fo24024   8.252   2.818   0.394
    1CAL  C01Fp24025   8.501   2.111   0.702
    1CAL  C01Fq24026   9.502   2.321   0.089
    1CAL  C01Fr24027  10.002   2.321   0.089
    1CAL  C01Fs24028   9.752   2.016   0.396
    1CAL  C01Ft24029   9.252   2.016   0.396
    1CAL  C01Fu24030   9.502   1.919   0.089
    1CAL  C01Fv24031   9.502   2.513   0.702
    1CAL  C01Fw24032   8.500   2.914   0.702
    1CAL  C01Fx24033   9.502   3.123   0.089
    1CAL  C01Fy24034   8.752   2.016   0.396
    1CAL  C01Fz24035   9.252   2.418   0.396
    1CAL  C01G024036   8.502   2.723   0.089
    1CAL  C01G124037   9.752   2.818   0.393
    1CAL  C01G224038   9.002   3.123   0.089
    1CAL  C01G324039  10.001   2.914   0.703
    1CAL  C01G424040   9.002   1.709   0.702
    1CAL  C01G524041   9.001   2.914   0.702
    1CAL  C01G624042   9.001   2.111   0.703
    1CAL  C01G724043   9.752   2.418   0.396
    1CAL  C01G824044   8.502   3.123   0.089
    1CAL  C01G924045   9.502   2.723   0.089
    1CAL  C01GA24046   8.502   2.321   0.089
    1CAL  C01GB24047   8.752   2.418   0.396
    1CAL  C01GC24048  10.002   1.709   0.703
    1CAL  C01GD24049   8.753   2.209   1.013
    1CAL  C01GE24050   8.749   1.808   1.013
    1CAL  C01GF24051   8.749   2.611   1.012
    1CAL  C01GG24052   8.753   3.012   1.013
    1CAL  C01GH24053   9.753   2.209   1.013
    1CAL  C01GI24054   9.749   1.808   1.013
    1CAL  C01GJ24055   9.753   3.012   1.013
    1CAL  C01GK24056   9.750   2.611   1.012
    1CAL  C01GL24057   9.253   3.012   1.013
    1CAL  C01GM24058   9.250   2.610   1.013
    1CAL  C01GN24059   9.253   2.209   1.013
    1CAL  C01GO24060   9.249   1.807   1.014
    1CAL  C01GP24061   8.253   3.012   1.014
    1CAL  C01GQ24062   8.250   2.610   1.014
    1CAL  C01GR24063   8.253   2.210   1.013
    1CAL  C01GS24064   8.249   1.807   1.015
    1CAL  O03kH24065   8.187   2.340   0.475
    1CAL  O03kI24066   9.188   2.497   0.317
    1CAL  O03kJ24067   9.187   2.340   0.475
    1CAL  O03kK24068   9.381   2.418   0.397
    1CAL  O03kL24069   8.566   3.044   0.168
    1CAL  O03kM24070   8.373   3.124   0.088
    1CAL  O03kN24071   8.566   2.400   0.010
    1CAL  O03kO24072   8.688   2.497   0.317
    1CAL  O03kP24073   8.687   2.340   0.475
    1CAL  O03kQ24074   8.881   2.418   0.397
    1CAL  O03kR24075   8.567   3.201   0.010
    1CAL  O03kS24076   8.566   2.243   0.168
    1CAL  O03kT24077   8.373   2.321   0.089
    1CAL  O03kU24078   9.130   2.913   0.703
    1CAL  O03kV24079   8.937   2.992   0.622
    1CAL  O03kW24080   8.938   2.190   0.622
    1CAL  O03kX24081   8.935   2.033   0.782
    1CAL  O03kY24082   9.130   2.110   0.704
    1CAL  O03kZ24083   8.935   2.836   0.782
    1CAL  O03ka24084   8.623   2.016   0.396
    1CAL  O03kb24085   9.065   2.592   0.622
    1CAL  O03kc24086   9.124   2.818   0.393
    1CAL  O03kd24087   9.316   2.739   0.473
    1CAL  O03ke24088   9.317   2.896   0.315
    1CAL  O03kf24089   8.438   1.840   0.168
    1CAL  O03kg24090   8.437   1.997   0.010
    1CAL  O03kh24091   8.623   2.818   0.393
    1CAL  O03ki24092   8.816   2.739   0.473
    1CAL  O03kj24093   8.817   2.896   0.315
    1CAL  O03kk24094   8.316   2.095   0.317
    1CAL  O03kl24095   8.816   1.937   0.475
    1CAL  O03km24096   8.938   2.802   0.009
    1CAL  O03kn24097   9.131   2.723   0.089
    1CAL  O03ko24098   8.316   1.937   0.476
    1CAL  O03kp24099   8.123   2.016   0.396
    1CAL  O03kq24100   8.816   2.095   0.317
    1CAL  O03kr24101   8.938   1.998   0.009
    1CAL  O03ks24102   8.938   1.840   0.168
    1CAL  O03kt24103   9.131   1.919   0.089
    1CAL  O03ku24104   8.872   2.512   0.703
    1CAL  O03kv24105   9.068   2.435   0.781
    1CAL  O03kw24106   8.937   2.645   0.168
    1CAL  O03kx24107   9.688   2.497   0.317
    1CAL  O03ky24108   9.687   2.340   0.475
    1CAL  O03kz24109   9.881   2.418   0.397
    1CAL  O03l024110   9.936   2.835   0.782
    1CAL  O03l124111   9.938   2.190   0.623
    1CAL  O03l224112   9.936   2.032   0.782
    1CAL  O03l324113   8.130   2.913   0.704
    1CAL  O03l424114   8.066   1.788   0.623
    1CAL  O03l524115   9.438   2.802   0.009
    1CAL  O03l624116   9.437   2.645   0.168
    1CAL  O03l724117   9.631   2.723   0.089
    1CAL  O03l824118   8.067   1.631   0.783
    1CAL  O03l924119   9.436   2.836   0.782
    1CAL  O03lA24120   8.067   3.201   0.010
    1CAL  O03lB24121   8.066   3.044   0.168
    1CAL  O03lC24122   8.873   3.124   0.088
    1CAL  O03lD24123   9.873   2.512   0.704
    1CAL  O03lE24124   9.938   1.840   0.168
    1CAL  O03lF24125   9.066   1.788   0.623
    1CAL  O03lG24126   8.438   2.802   0.009
    1CAL  O03lH24127   8.437   2.645   0.168
    1CAL  O03lI24128   8.631   2.723   0.089
    1CAL  O03lJ24129   9.067   1.630   0.782
    1CAL  O03lK24130   8.435   2.836   0.782
    1CAL  O03lL24131   8.873   1.709   0.703
    1CAL  O03lM24132   9.874   2.321   0.089
    1CAL  O03lN24133   9.067   3.201   0.010
    1CAL  O03lO24134   9.066   3.044   0.168
    1CAL  O03lP24135   9.624   2.818   0.393
    1CAL  O03lQ24136   9.816   2.739   0.473
    1CAL  O03lR24137   9.817   2.896   0.314
    1CAL  O03lS24138   9.939   2.802   0.009
    1CAL  O03lT24139   9.937   2.645   0.168
    1CAL  O03lU24140   9.938   1.998   0.009
    1CAL  O03lV24141   8.631   1.919   0.088
    1CAL  O03lW24142   8.381   2.418   0.397
    1CAL  O03lX24143   8.372   2.512   0.706
    1CAL  O03lY24144   9.067   2.243   0.168
    1CAL  O03lZ24145   9.566   3.044   0.168
    1CAL  O03la24146   9.567   3.201   0.010
    1CAL  O03lb24147   9.624   2.016   0.396
    1CAL  O03lc24148   9.817   1.937   0.475
    1CAL  O03ld24149   9.374   3.124   0.088
    1CAL  O03le24150   9.123   2.016   0.396
    1CAL  O03lf24151   9.316   2.095   0.317
    1CAL  O03lg24152   8.630   2.913   0.703
    1CAL  O03lh24153   9.438   1.997   0.010
    1CAL  O03li24154   9.438   1.840   0.168
    1CAL  O03lj24155   9.631   1.919   0.088
    1CAL  O03lk24156   9.373   2.512   0.705
    1CAL  O03ll24157   9.568   2.435   0.781
    1CAL  O03lm24158   9.317   1.937   0.475
    1CAL  O03ln24159   9.565   2.593   0.622
    1CAL  O03lo24160   8.067   2.243   0.168
    1CAL  O03lp24161   9.567   2.243   0.168
    1CAL  O03lq24162   8.188   2.497   0.317
    1CAL  O03lr24163   8.065   2.593   0.622
    1CAL  O03ls24164   8.067   2.435   0.782
    1CAL  O03lt24165   8.130   2.110   0.704
    1CAL  O03lu24166   8.131   1.919   0.089
    1CAL  O03lv24167   8.130   2.723   0.089
    1CAL  O03lw24168   9.566   2.400   0.010
    1CAL  O03lx24169   8.317   2.896   0.315
    1CAL  O03ly24170   9.874   3.124   0.088
    1CAL  O03lz24171   9.873   1.709   0.704
    1CAL  O03m024172   8.123   2.818   0.393
    1CAL  O03m124173   9.937   2.992   0.622
    1CAL  O03m224174   8.066   2.400   0.010
    1CAL  O03m324175   9.374   2.321   0.089
    1CAL  O03m424176   8.316   2.739   0.473
    1CAL  O03m524177   8.436   2.993   0.622
    1CAL  O03m624178   8.630   2.110   0.703
    1CAL  O03m724179   9.373   1.708   0.705
    1CAL  O03m824180   9.438   2.190   0.622
    1CAL  O03m924181   9.436   2.033   0.782
    1CAL  O03mA24182   9.631   2.110   0.703
    1CAL  O03mB24183   8.881   1.613   0.396
    1CAL  O03mC24184   8.688   3.141   0.475
    1CAL  O03mD24185   9.436   2.992   0.622
    1CAL  O03mE24186   9.630   2.913   0.702
    1CAL  O03mF24187   8.688   1.692   0.317
    1CAL  O03mG24188   8.565   1.788   0.623
    1CAL  O03mH24189   8.568   1.631   0.782
    1CAL  O03mI24190   8.372   1.709   0.705
    1CAL  O03mJ24191   8.564   2.593   0.622
    1CAL  O03mK24192   8.569   2.435   0.782
    1CAL  O03mL24193   8.873   2.321   0.089
    1CAL  O03mM24194   9.568   1.630   0.782
    1CAL  O03mN24195   9.566   1.788   0.623
    1CAL  O03mO24196   8.435   2.033   0.782
    1CAL  O03mP24197   8.437   2.191   0.623
    1CAL  O03mQ24198   9.688   1.692   0.317
    1CAL  O03mR24199   9.688   3.141   0.475
    1CAL  O03mS24200   9.881   1.613   0.396
    1CAL  O03mT24201   8.381   1.614   0.396
    1CAL  O03mU24202   8.188   3.141   0.475
    1CAL  O03mV24203   8.187   1.692   0.317
    1CAL  O03mW24204   9.188   1.692   0.317
    1CAL  O03mX24205   9.188   3.141   0.475
    1CAL  O03mY24206   9.381   1.614   0.396
    1CAL  O03mZ24207   9.066   2.400   0.010
    1CAL  O03ma24208   9.817   2.095   0.317
    1CAL  O03mb24209   8.822   3.086   0.931
    1CAL  O03mc24210   8.813   2.934   1.097
    1CAL  O03md24211   8.623   3.018   1.011
    1CAL  O03me24212   8.680   2.685   0.930
    1CAL  O03mf24213   8.689   2.534   1.096
    1CAL  O03mg24214   8.879   2.616   1.009
    1CAL  O03mh24215   8.879   1.813   1.010
    1CAL  O03mi24216   8.689   1.730   1.097
    1CAL  O03mj24217   8.680   1.881   0.931
    1CAL  O03mk24218   8.623   2.215   1.010
    1CAL  O03ml24219   8.813   2.131   1.096
    1CAL  O03mm24220   8.822   2.283   0.931
    1CAL  O03mn24221   9.681   2.685   0.930
    1CAL  O03mo24222   9.879   2.616   1.010
    1CAL  O03mp24223   9.689   2.533   1.096
    1CAL  O03mq24224   9.624   3.017   1.010
    1CAL  O03mr24225   9.813   2.934   1.096
    1CAL  O03ms24226   9.822   3.086   0.931
    1CAL  O03mt24227   9.680   1.881   0.931
    1CAL  O03mu24228   9.879   1.813   1.010
    1CAL  O03mv24229   9.689   1.730   1.097
    1CAL  O03mw24230   9.623   2.214   1.010
    1CAL  O03mx24231   9.813   2.131   1.096
    1CAL  O03my24232   9.822   2.283   0.931
    1CAL  O03mz24233   9.313   2.934   1.097
    1CAL  O03n024234   9.123   3.017   1.011
    1CAL  O03n124235   9.322   3.085   0.931
    1CAL  O03n224236   9.181   2.684   0.931
    1CAL  O03n324237   9.190   2.532   1.097
    1CAL  O03n424238   9.380   2.616   1.011
    1CAL  O03n524239   9.313   2.131   1.097
    1CAL  O03n624240   9.322   2.282   0.931
    1CAL  O03n724241   9.123   2.215   1.010
    1CAL  O03n824242   9.181   1.881   0.932
    1CAL  O03n924243   9.189   1.729   1.097
    1CAL  O03nA24244   9.379   1.813   1.012
    1CAL  O03nB24245   8.312   2.934   1.098
    1CAL  O03nC24246   8.123   3.018   1.011
    1CAL  O03nD24247   8.322   3.085   0.932
    1CAL  O03nE24248   8.181   2.684   0.932
    1CAL  O03nF24249   8.190   2.532   1.097
    1CAL  O03nG24250   8.380   2.616   1.013
    1CAL  O03nH24251   8.312   2.132   1.098
    1CAL  O03nI24252   8.123   2.215   1.010
    1CAL  O03nJ24253   8.322   2.283   0.931
    1CAL  O03nK24254   8.379   1.813   1.013
    1CAL  O03nL24255   8.189   1.729   1.098
    1CAL  O03nM24256   8.181   1.881   0.933
    1CAL  Ca1FR24257   9.004   2.416   1.008
    1CAL  Ca1FS24258   9.752   2.120   0.089
    1CAL  Ca1FT24259   9.498   2.817   1.009
    1CAL  Ca1FU24260   8.004   2.416   1.009
    1CAL  Ca1FV24261   8.752   3.113   0.704
    1CAL  Ca1FW24262   9.752   2.522   0.089
    1CAL  Ca1FX24263   9.502   2.217   0.396
    1CAL  Ca1FY24264   9.502   3.019   0.396
    1CAL  Ca1FZ24265   8.251   2.712   0.703
    1CAL  Ca1Fa24266   9.002   3.019   0.396
    1CAL  Ca1Fb24267   8.504   1.613   1.009
    1CAL  Ca1Fc24268   8.252   2.120   0.089
    1CAL  Ca1Fd24269   8.252   2.311   0.704
    1CAL  Ca1Fe24270   9.999   2.014   1.009
    1CAL  Ca1Ff24271   9.999   2.817   1.009
    1CAL  Ca1Fg24272   9.751   2.712   0.702
    1CAL  Ca1Fh24273   9.252   1.718   0.089
    1CAL  Ca1Fi24274  10.002   3.019   0.396
    1CAL  Ca1Fj24275   9.752   1.718   0.089
    1CAL  Ca1Fk24276   8.497   2.015   1.009
    1CAL  Ca1Fl24277   8.004   1.613   1.010
    1CAL  Ca1Fm24278   9.753   2.311   0.704
    1CAL  Ca1Fn24279   8.252   2.522   0.089
    1CAL  Ca1Fo24280  10.002   2.217   0.396
    1CAL  Ca1Fp24281   9.502   2.618   0.395
    1CAL  Ca1Fq24282   8.252   3.114   0.704
    1CAL  Ca1Fr24283   9.752   2.923   0.090
    1CAL  Ca1Fs24284   8.502   2.618   0.395
    1CAL  Ca1Ft24285   8.498   2.818   1.009
    1CAL  Ca1Fu24286  10.002   1.815   0.396
    1CAL  Ca1Fv24287   8.502   3.019   0.396
    1CAL  Ca1Fw24288   9.498   2.014   1.009
    1CAL  Ca1Fx24289   9.252   2.522   0.089
    1CAL  Ca1Fy24290   8.752   2.522   0.089
    1CAL  Ca1Fz24291   9.002   1.815   0.396
    1CAL  Ca1G024292   9.002   2.618   0.395
    1CAL  Ca1G124293   8.502   2.217   0.396
    1CAL  Ca1G224294   9.002   2.217   0.396
    1CAL  Ca1G324295   8.751   2.712   0.703
    1CAL  Ca1G424296   8.252   1.718   0.089
    1CAL  Ca1G524297   8.752   2.120   0.089
    1CAL  Ca1G624298   9.252   2.120   0.089
    1CAL  Ca1G724299   9.251   2.712   0.703
    1CAL  Ca1G824300   9.252   3.113   0.704
    1CAL  Ca1G924301   9.751   1.909   0.704
    1CAL  Ca1GA24302   9.004   1.613   1.009
    1CAL  Ca1GB24303   8.750   1.909   0.704
    1CAL  Ca1GC24304   8.505   2.416   1.008
    1CAL  Ca1GD24305   8.502   1.815   0.396
    1CAL  Ca1GE24306   8.752   1.718   0.089
    1CAL  Ca1GF24307   9.252   2.923   0.090
    1CAL  Ca1GG24308   9.251   1.909   0.704
    1CAL  Ca1GH24309   8.998   2.014   1.009
    1CAL  Ca1GI24310   8.752   2.923   0.090
    1CAL  Ca1GJ24311   8.998   2.817   1.009
    1CAL  Ca1GK24312   8.252   2.923   0.090
    1CAL  Ca1GL24313   9.502   1.815   0.396
    1CAL  Ca1GM24314   9.505   2.416   1.008
    1CAL  Ca1GN24315   9.504   1.612   1.009
    1CAL  Ca1GO24316   8.752   2.311   0.704
    1CAL  Ca1GP24317   9.752   3.114   0.704
    1CAL  Ca1GQ24318   9.252   2.311   0.704
    1CAL  Ca1GR24319   8.251   1.909   0.704
    1CAL  Ca1GS24320  10.002   2.618   0.395
    1CAL  C01GT24321  10.002   3.123   1.317
    1CAL  C01GU24322   9.252   1.613   1.624
    1CAL  C01GV24323   8.252   1.613   1.624
    1CAL  C01GW24324   9.501   2.111   1.930
    1CAL  C01GX24325   9.501   2.914   1.930
    1CAL  C01GY24326   8.752   1.613   1.624
    1CAL  C01GZ24327   9.002   2.321   1.317
    1CAL  C01Ga24328   9.252   2.818   1.621
    1CAL  C01Gb24329   8.752   2.818   1.622
    1CAL  C01Gc24330   8.502   2.513   1.931
    1CAL  C01Gd24331   8.502   1.919   1.317
    1CAL  C01Ge24332   9.002   2.723   1.317
    1CAL  C01Gf24333   9.002   1.919   1.317
    1CAL  C01Gg24334   8.252   2.016   1.624
    1CAL  C01Gh24335   8.502   1.709   1.931
    1CAL  C01Gi24336   9.002   2.513   1.930
    1CAL  C01Gj24337   9.752   1.613   1.624
    1CAL  C01Gk24338   9.502   1.709   1.931
    1CAL  C01Gl24339   8.252   2.418   1.624
    1CAL  C01Gm24340  10.001   2.111   1.931
    1CAL  C01Gn24341  10.002   2.513   1.930
    1CAL  C01Go24342  10.002   1.919   1.317
    1CAL  C01Gp24343  10.002   2.723   1.317
    1CAL  C01Gq24344   8.252   2.818   1.622
    1CAL  C01Gr24345   8.501   2.111   1.930
    1CAL  C01Gs24346   9.502   2.321   1.317
    1CAL  C01Gt24347  10.002   2.321   1.317
    1CAL  C01Gu24348   9.752   2.016   1.624
    1CAL  C01Gv24349   9.252   2.016   1.624
    1CAL  C01Gw24350   9.502   1.919   1.317
    1CAL  C01Gx24351   9.502   2.513   1.930
    1CAL  C01Gy24352   8.500   2.914   1.930
    1CAL  C01Gz24353   9.502   3.123   1.317
    1CAL  C01H024354   8.752   2.016   1.624
    1CAL  C01H124355   9.252   2.418   1.624
    1CAL  C01H224356   8.502   2.723   1.317
    1CAL  C01H324357   9.752   2.818   1.621
    1CAL  C01H424358   9.002   3.123   1.317
    1CAL  C01H524359  10.001   2.914   1.931
    1CAL  C01H624360   9.002   1.709   1.930
    1CAL  C01H724361   9.001   2.914   1.930
    1CAL  C01H824362   9.001   2.111   1.931
    1CAL  C01H924363   9.752   2.418   1.624
    1CAL  C01HA24364   8.502   3.123   1.317
    1CAL  C01HB24365   9.502   2.723   1.317
    1CAL  C01HC24366   8.502   2.321   1.317
    1CAL  C01HD24367   8.752   2.418   1.624
    1CAL  C01HE24368  10.002   1.709   1.931
    1CAL  C01HF24369   8.753   2.209   2.241
    1CAL  C01HG24370   8.749   1.808   2.241
    1CAL  C01HH24371   8.749   2.611   2.240
    1CAL  C01HI24372   8.753   3.012   2.241
    1CAL  C01HJ24373   9.753   2.209   2.241
    1CAL  C01HK24374   9.749   1.808   2.241
    1CAL  C01HL24375   9.753   3.012   2.241
    1CAL  C01HM24376   9.750   2.611   2.240
    1CAL  C01HN24377   9.253   3.012   2.241
    1CAL  C01HO24378   9.250   2.610   2.241
    1CAL  C01HP24379   9.253   2.209   2.241
    1CAL  C01HQ24380   9.249   1.807   2.242
    1CAL  C01HR24381   8.253   3.012   2.242
    1CAL  C01HS24382   8.250   2.610   2.242
    1CAL  C01HT24383   8.253   2.210   2.241
    1CAL  C01HU24384   8.249   1.807   2.243
    1CAL  O03nN24385   8.187   2.340   1.703
    1CAL  O03nO24386   9.188   2.497   1.545
    1CAL  O03nP24387   9.187   2.340   1.703
    1CAL  O03nQ24388   9.381   2.418   1.625
    1CAL  O03nR24389   8.566   3.044   1.396
    1CAL  O03nS24390   8.373   3.124   1.316
    1CAL  O03nT24391   8.566   2.400   1.238
    1CAL  O03nU24392   8.688   2.497   1.545
    1CAL  O03nV24393   8.687   2.340   1.703
    1CAL  O03nW24394   8.881   2.418   1.625
    1CAL  O03nX24395   8.567   3.201   1.238
    1CAL  O03nY24396   8.566   2.243   1.396
    1CAL  O03nZ24397   8.373   2.321   1.317
    1CAL  O03na24398   9.130   2.913   1.931
    1CAL  O03nb24399   8.937   2.992   1.850
    1CAL  O03nc24400   8.938   2.190   1.850
    1CAL  O03nd24401   8.935   2.033   2.010
    1CAL  O03ne24402   9.130   2.110   1.932
    1CAL  O03nf24403   8.935   2.836   2.010
    1CAL  O03ng24404   8.623   2.016   1.624
    1CAL  O03nh24405   9.065   2.592   1.850
    1CAL  O03ni24406   9.124   2.818   1.621
    1CAL  O03nj24407   9.316   2.739   1.701
    1CAL  O03nk24408   9.317   2.896   1.543
    1CAL  O03nl24409   8.438   1.840   1.396
    1CAL  O03nm24410   8.437   1.997   1.238
    1CAL  O03nn24411   8.623   2.818   1.621
    1CAL  O03no24412   8.816   2.739   1.701
    1CAL  O03np24413   8.817   2.896   1.543
    1CAL  O03nq24414   8.316   2.095   1.545
    1CAL  O03nr24415   8.816   1.937   1.703
    1CAL  O03ns24416   8.938   2.802   1.237
    1CAL  O03nt24417   9.131   2.723   1.317
    1CAL  O03nu24418   8.316   1.937   1.704
    1CAL  O03nv24419   8.123   2.016   1.624
    1CAL  O03nw24420   8.816   2.095   1.545
    1CAL  O03nx24421   8.938   1.998   1.237
    1CAL  O03ny24422   8.938   1.840   1.396
    1CAL  O03nz24423   9.131   1.919   1.317
    1CAL  O03o024424   8.872   2.512   1.931
    1CAL  O03o124425   9.068   2.435   2.009
    1CAL  O03o224426   8.937   2.645   1.396
    1CAL  O03o324427   9.688   2.497   1.545
    1CAL  O03o424428   9.687   2.340   1.703
    1CAL  O03o524429   9.881   2.418   1.625
    1CAL  O03o624430   9.936   2.835   2.010
    1CAL  O03o724431   9.938   2.190   1.851
    1CAL  O03o824432   9.936   2.032   2.010
    1CAL  O03o924433   8.130   2.913   1.932
    1CAL  O03oA24434   8.066   1.788   1.851
    1CAL  O03oB24435   9.438   2.802   1.237
    1CAL  O03oC24436   9.437   2.645   1.396
    1CAL  O03oD24437   9.631   2.723   1.317
    1CAL  O03oE24438   8.067   1.631   2.011
    1CAL  O03oF24439   9.436   2.836   2.010
    1CAL  O03oG24440   8.067   3.201   1.238
    1CAL  O03oH24441   8.066   3.044   1.396
    1CAL  O03oI24442   8.873   3.124   1.316
    1CAL  O03oJ24443   9.873   2.512   1.932
    1CAL  O03oK24444   9.938   1.840   1.396
    1CAL  O03oL24445   9.066   1.788   1.851
    1CAL  O03oM24446   8.438   2.802   1.237
    1CAL  O03oN24447   8.437   2.645   1.396
    1CAL  O03oO24448   8.631   2.723   1.317
    1CAL  O03oP24449   9.067   1.630   2.010
    1CAL  O03oQ24450   8.435   2.836   2.010
    1CAL  O03oR24451   8.873   1.709   1.931
    1CAL  O03oS24452   9.874   2.321   1.317
    1CAL  O03oT24453   9.067   3.201   1.238
    1CAL  O03oU24454   9.066   3.044   1.396
    1CAL  O03oV24455   9.624   2.818   1.621
    1CAL  O03oW24456   9.816   2.739   1.701
    1CAL  O03oX24457   9.817   2.896   1.542
    1CAL  O03oY24458   9.939   2.802   1.237
    1CAL  O03oZ24459   9.937   2.645   1.396
    1CAL  O03oa24460   9.938   1.998   1.237
    1CAL  O03ob24461   8.631   1.919   1.316
    1CAL  O03oc24462   8.381   2.418   1.625
    1CAL  O03od24463   8.372   2.512   1.934
    1CAL  O03oe24464   9.067   2.243   1.396
    1CAL  O03of24465   9.566   3.044   1.396
    1CAL  O03og24466   9.567   3.201   1.238
    1CAL  O03oh24467   9.624   2.016   1.624
    1CAL  O03oi24468   9.817   1.937   1.703
    1CAL  O03oj24469   9.374   3.124   1.316
    1CAL  O03ok24470   9.123   2.016   1.624
    1CAL  O03ol24471   9.316   2.095   1.545
    1CAL  O03om24472   8.630   2.913   1.931
    1CAL  O03on24473   9.438   1.997   1.238
    1CAL  O03oo24474   9.438   1.840   1.396
    1CAL  O03op24475   9.631   1.919   1.316
    1CAL  O03oq24476   9.373   2.512   1.933
    1CAL  O03or24477   9.568   2.435   2.009
    1CAL  O03os24478   9.317   1.937   1.703
    1CAL  O03ot24479   9.565   2.593   1.850
    1CAL  O03ou24480   8.067   2.243   1.396
    1CAL  O03ov24481   9.567   2.243   1.396
    1CAL  O03ow24482   8.188   2.497   1.545
    1CAL  O03ox24483   8.065   2.593   1.850
    1CAL  O03oy24484   8.067   2.435   2.010
    1CAL  O03oz24485   8.130   2.110   1.932
    1CAL  O03p024486   8.131   1.919   1.317
    1CAL  O03p124487   8.130   2.723   1.317
    1CAL  O03p224488   9.566   2.400   1.238
    1CAL  O03p324489   8.317   2.896   1.543
    1CAL  O03p424490   9.874   3.124   1.316
    1CAL  O03p524491   9.873   1.709   1.932
    1CAL  O03p624492   8.123   2.818   1.621
    1CAL  O03p724493   9.937   2.992   1.850
    1CAL  O03p824494   8.066   2.400   1.238
    1CAL  O03p924495   9.374   2.321   1.317
    1CAL  O03pA24496   8.316   2.739   1.701
    1CAL  O03pB24497   8.436   2.993   1.850
    1CAL  O03pC24498   8.630   2.110   1.931
    1CAL  O03pD24499   9.373   1.708   1.933
    1CAL  O03pE24500   9.438   2.190   1.850
    1CAL  O03pF24501   9.436   2.033   2.010
    1CAL  O03pG24502   9.631   2.110   1.931
    1CAL  O03pH24503   8.881   1.613   1.624
    1CAL  O03pI24504   8.688   3.141   1.703
    1CAL  O03pJ24505   9.436   2.992   1.850
    1CAL  O03pK24506   9.630   2.913   1.930
    1CAL  O03pL24507   8.688   1.692   1.545
    1CAL  O03pM24508   8.565   1.788   1.851
    1CAL  O03pN24509   8.568   1.631   2.010
    1CAL  O03pO24510   8.372   1.709   1.933
    1CAL  O03pP24511   8.564   2.593   1.850
    1CAL  O03pQ24512   8.569   2.435   2.010
    1CAL  O03pR24513   8.873   2.321   1.317
    1CAL  O03pS24514   9.568   1.630   2.010
    1CAL  O03pT24515   9.566   1.788   1.851
    1CAL  O03pU24516   8.435   2.033   2.010
    1CAL  O03pV24517   8.437   2.191   1.851
    1CAL  O03pW24518   9.688   1.692   1.545
    1CAL  O03pX24519   9.688   3.141   1.703
    1CAL  O03pY24520   9.881   1.613   1.624
    1CAL  O03pZ24521   8.381   1.614   1.624
    1CAL  O03pa24522   8.188   3.141   1.703
    1CAL  O03pb24523   8.187   1.692   1.545
    1CAL  O03pc24524   9.188   1.692   1.545
    1CAL  O03pd24525   9.188   3.141   1.703
    1CAL  O03pe24526   9.381   1.614   1.624
    1CAL  O03pf24527   9.066   2.400   1.238
    1CAL  O03pg24528   9.817   2.095   1.545
    1CAL  O03ph24529   8.822   3.086   2.159
    1CAL  O03pi24530   8.813   2.934   2.325
    1CAL  O03pj24531   8.623   3.018   2.239
    1CAL  O03pk24532   8.680   2.685   2.158
    1CAL  O03pl24533   8.689   2.534   2.324
    1CAL  O03pm24534   8.879   2.616   2.237
    1CAL  O03pn24535   8.879   1.813   2.238
    1CAL  O03po24536   8.689   1.730   2.325
    1CAL  O03pp24537   8.680   1.881   2.159
    1CAL  O03pq24538   8.623   2.215   2.238
    1CAL  O03pr24539   8.813   2.131   2.324
    1CAL  O03ps24540   8.822   2.283   2.159
    1CAL  O03pt24541   9.681   2.685   2.158
    1CAL  O03pu24542   9.879   2.616   2.238
    1CAL  O03pv24543   9.689   2.533   2.324
    1CAL  O03pw24544   9.624   3.017   2.238
    1CAL  O03px24545   9.813   2.934   2.324
    1CAL  O03py24546   9.822   3.086   2.159
    1CAL  O03pz24547   9.680   1.881   2.159
    1CAL  O03q024548   9.879   1.813   2.238
    1CAL  O03q124549   9.689   1.730   2.325
    1CAL  O03q224550   9.623   2.214   2.238
    1CAL  O03q324551   9.813   2.131   2.324
    1CAL  O03q424552   9.822   2.283   2.159
    1CAL  O03q524553   9.313   2.934   2.325
    1CAL  O03q624554   9.123   3.017   2.239
    1CAL  O03q724555   9.322   3.085   2.159
    1CAL  O03q824556   9.181   2.684   2.159
    1CAL  O03q924557   9.190   2.532   2.325
    1CAL  O03qA24558   9.380   2.616   2.239
    1CAL  O03qB24559   9.313   2.131   2.325
    1CAL  O03qC24560   9.322   2.282   2.159
    1CAL  O03qD24561   9.123   2.215   2.238
    1CAL  O03qE24562   9.181   1.881   2.160
    1CAL  O03qF24563   9.189   1.729   2.325
    1CAL  O03qG24564   9.379   1.813   2.240
    1CAL  O03qH24565   8.312   2.934   2.326
    1CAL  O03qI24566   8.123   3.018   2.239
    1CAL  O03qJ24567   8.322   3.085   2.160
    1CAL  O03qK24568   8.181   2.684   2.160
    1CAL  O03qL24569   8.190   2.532   2.325
    1CAL  O03qM24570   8.380   2.616   2.241
    1CAL  O03qN24571   8.312   2.132   2.326
    1CAL  O03qO24572   8.123   2.215   2.238
    1CAL  O03qP24573   8.322   2.283   2.159
    1CAL  O03qQ24574   8.379   1.813   2.241
    1CAL  O03qR24575   8.189   1.729   2.326
    1CAL  O03qS24576   8.181   1.881   2.161
    1CAL  Ca1GT24577   9.004   2.416   2.236
    1CAL  Ca1GU24578   9.752   2.120   1.317
    1CAL  Ca1GV24579   9.498   2.817   2.237
    1CAL  Ca1GW24580   8.004   2.416   2.237
    1CAL  Ca1GX24581   8.752   3.113   1.932
    1CAL  Ca1GY24582   9.752   2.522   1.317
    1CAL  Ca1GZ24583   9.502   2.217   1.624
    1CAL  Ca1Ga24584   9.502   3.019   1.624
    1CAL  Ca1Gb24585   8.251   2.712   1.931
    1CAL  Ca1Gc24586   9.002   3.019   1.624
    1CAL  Ca1Gd24587   8.504   1.613   2.237
    1CAL  Ca1Ge24588   8.252   2.120   1.317
    1CAL  Ca1Gf24589   8.252   2.311   1.932
    1CAL  Ca1Gg24590   9.999   2.014   2.237
    1CAL  Ca1Gh24591   9.999   2.817   2.237
    1CAL  Ca1Gi24592   9.751   2.712   1.930
    1CAL  Ca1Gj24593   9.252   1.718   1.317
    1CAL  Ca1Gk24594  10.002   3.019   1.624
    1CAL  Ca1Gl24595   9.752   1.718   1.317
    1CAL  Ca1Gm24596   8.497   2.015   2.237
    1CAL  Ca1Gn24597   8.004   1.613   2.238
    1CAL  Ca1Go24598   9.753   2.311   1.932
    1CAL  Ca1Gp24599   8.252   2.522   1.317
    1CAL  Ca1Gq24600  10.002   2.217   1.624
    1CAL  Ca1Gr24601   9.502   2.618   1.623
    1CAL  Ca1Gs24602   8.252   3.114   1.932
    1CAL  Ca1Gt24603   9.752   2.923   1.318
    1CAL  Ca1Gu24604   8.502   2.618   1.623
    1CAL  Ca1Gv24605   8.498   2.818   2.237
    1CAL  Ca1Gw24606  10.002   1.815   1.624
    1CAL  Ca1Gx24607   8.502   3.019   1.624
    1CAL  Ca1Gy24608   9.498   2.014   2.237
    1CAL  Ca1Gz24609   9.252   2.522   1.317
    1CAL  Ca1H024610   8.752   2.522   1.317
    1CAL  Ca1H124611   9.002   1.815   1.624
    1CAL  Ca1H224612   9.002   2.618   1.623
    1CAL  Ca1H324613   8.502   2.217   1.624
    1CAL  Ca1H424614   9.002   2.217   1.624
    1CAL  Ca1H524615   8.751   2.712   1.931
    1CAL  Ca1H624616   8.252   1.718   1.317
    1CAL  Ca1H724617   8.752   2.120   1.317
    1CAL  Ca1H824618   9.252   2.120   1.317
    1CAL  Ca1H924619   9.251   2.712   1.931
    1CAL  Ca1HA24620   9.252   3.113   1.932
    1CAL  Ca1HB24621   9.751   1.909   1.932
    1CAL  Ca1HC24622   9.004   1.613   2.237
    1CAL  Ca1HD24623   8.750   1.909   1.932
    1CAL  Ca1HE24624   8.505   2.416   2.236
    1CAL  Ca1HF24625   8.502   1.815   1.624
    1CAL  Ca1HG24626   8.752   1.718   1.317
    1CAL  Ca1HH24627   9.252   2.923   1.318
    1CAL  Ca1HI24628   9.251   1.909   1.932
    1CAL  Ca1HJ24629   8.998   2.014   2.237
    1CAL  Ca1HK24630   8.752   2.923   1.318
    1CAL  Ca1HL24631   8.998   2.817   2.237
    1CAL  Ca1HM24632   8.252   2.923   1.318
    1CAL  Ca1HN24633   9.502   1.815   1.624
    1CAL  Ca1HO24634   9.505   2.416   2.236
    1CAL  Ca1HP24635   9.504   1.612   2.237
    1CAL  Ca1HQ24636   8.752   2.311   1.932
    1CAL  Ca1HR24637   9.752   3.114   1.932
    1CAL  Ca1HS24638   9.252   2.311   1.932
    1CAL  Ca1HT24639   8.251   1.909   1.932
    1CAL  Ca1HU24640  10.002   2.618   1.623
    1CAL  C01HV24641  10.002   3.123   2.545
    1CAL  C01HW24642   9.252   1.613   2.852
    1CAL  C01HX24643   8.252   1.613   2.852
    1CAL  C01HY24644   9.501   2.111   3.158
    1CAL  C01HZ24645   9.501   2.914   3.158
    1CAL  C01Ha24646   8.752   1.613   2.852
    1CAL  C01Hb24647   9.002   2.321   2.545
    1CAL  C01Hc24648   9.252   2.818   2.849
    1CAL  C01Hd24649   8.752   2.818   2.850
    1CAL  C01He24650   8.502   2.513   3.159
    1CAL  C01Hf24651   8.502   1.919   2.545
    1CAL  C01Hg24652   9.002   2.723   2.545
    1CAL  C01Hh24653   9.002   1.919   2.545
    1CAL  C01Hi24654   8.252   2.016   2.852
    1CAL  C01Hj24655   8.502   1.709   3.159
    1CAL  C01Hk24656   9.002   2.513   3.158
    1CAL  C01Hl24657   9.752   1.613   2.852
    1CAL  C01Hm24658   9.502   1.709   3.159
    1CAL  C01Hn24659   8.252   2.418   2.852
    1CAL  C01Ho24660  10.001   2.111   3.159
    1CAL  C01Hp24661  10.002   2.513   3.158
    1CAL  C01Hq24662  10.002   1.919   2.545
    1CAL  C01Hr24663  10.002   2.723   2.545
    1CAL  C01Hs24664   8.252   2.818   2.850
    1CAL  C01Ht24665   8.501   2.111   3.158
    1CAL  C01Hu24666   9.502   2.321   2.545
    1CAL  C01Hv24667  10.002   2.321   2.545
    1CAL  C01Hw24668   9.752   2.016   2.852
    1CAL  C01Hx24669   9.252   2.016   2.852
    1CAL  C01Hy24670   9.502   1.919   2.545
    1CAL  C01Hz24671   9.502   2.513   3.158
    1CAL  C01I024672   8.500   2.914   3.158
    1CAL  C01I124673   9.502   3.123   2.545
    1CAL  C01I224674   8.752   2.016   2.852
    1CAL  C01I324675   9.252   2.418   2.852
    1CAL  C01I424676   8.502   2.723   2.545
    1CAL  C01I524677   9.752   2.818   2.849
    1CAL  C01I624678   9.002   3.123   2.545
    1CAL  C01I724679  10.001   2.914   3.159
    1CAL  C01I824680   9.002   1.709   3.158
    1CAL  C01I924681   9.001   2.914   3.158
    1CAL  C01IA24682   9.001   2.111   3.159
    1CAL  C01IB24683   9.752   2.418   2.852
    1CAL  C01IC24684   8.502   3.123   2.545
    1CAL  C01ID24685   9.502   2.723   2.545
    1CAL  C01IE24686   8.502   2.321   2.545
    1CAL  C01IF24687   8.752   2.418   2.852
    1CAL  C01IG24688  10.002   1.709   3.159
    1CAL  C01IH24689   8.753   2.209   3.469
    1CAL  C01II24690   8.749   1.808   3.469
    1CAL  C01IJ24691   8.749   2.611   3.468
    1CAL  C01IK24692   8.753   3.012   3.469
    1CAL  C01IL24693   9.753   2.209   3.469
    1CAL  C01IM24694   9.749   1.808   3.469
    1CAL  C01IN24695   9.753   3.012   3.469
    1CAL  C01IO24696   9.750   2.611   3.468
    1CAL  C01IP24697   9.253   3.012   3.469
    1CAL  C01IQ24698   9.250   2.610   3.469
    1CAL  C01IR24699   9.253   2.209   3.469
    1CAL  C01IS24700   9.249   1.807   3.470
    1CAL  C01IT24701   8.253   3.012   3.470
    1CAL  C01IU24702   8.250   2.610   3.470
    1CAL  C01IV24703   8.253   2.210   3.469
    1CAL  C01IW24704   8.249   1.807   3.471
    1CAL  O03qT24705   8.187   2.340   2.931
    1CAL  O03qU24706   9.188   2.497   2.773
    1CAL  O03qV24707   9.187   2.340   2.931
    1CAL  O03qW24708   9.381   2.418   2.853
    1CAL  O03qX24709   8.566   3.044   2.624
    1CAL  O03qY24710   8.373   3.124   2.544
    1CAL  O03qZ24711   8.566   2.400   2.466
    1CAL  O03qa24712   8.688   2.497   2.773
    1CAL  O03qb24713   8.687   2.340   2.931
    1CAL  O03qc24714   8.881   2.418   2.853
    1CAL  O03qd24715   8.567   3.201   2.466
    1CAL  O03qe24716   8.566   2.243   2.624
    1CAL  O03qf24717   8.373   2.321   2.545
    1CAL  O03qg24718   9.130   2.913   3.159
    1CAL  O03qh24719   8.937   2.992   3.078
    1CAL  O03qi24720   8.938   2.190   3.078
    1CAL  O03qj24721   8.935   2.033   3.238
    1CAL  O03qk24722   9.130   2.110   3.160
    1CAL  O03ql24723   8.935   2.836   3.238
    1CAL  O03qm24724   8.623   2.016   2.852
    1CAL  O03qn24725   9.065   2.592   3.078
    1CAL  O03qo24726   9.124   2.818   2.849
    1CAL  O03qp24727   9.316   2.739   2.929
    1CAL  O03qq24728   9.317   2.896   2.771
    1CAL  O03qr24729   8.438   1.840   2.624
    1CAL  O03qs24730   8.437   1.997   2.466
    1CAL  O03qt24731   8.623   2.818   2.849
    1CAL  O03qu24732   8.816   2.739   2.929
    1CAL  O03qv24733   8.817   2.896   2.771
    1CAL  O03qw24734   8.316   2.095   2.773
    1CAL  O03qx24735   8.816   1.937   2.931
    1CAL  O03qy24736   8.938   2.802   2.465
    1CAL  O03qz24737   9.131   2.723   2.545
    1CAL  O03r024738   8.316   1.937   2.932
    1CAL  O03r124739   8.123   2.016   2.852
    1CAL  O03r224740   8.816   2.095   2.773
    1CAL  O03r324741   8.938   1.998   2.465
    1CAL  O03r424742   8.938   1.840   2.624
    1CAL  O03r524743   9.131   1.919   2.545
    1CAL  O03r624744   8.872   2.512   3.159
    1CAL  O03r724745   9.068   2.435   3.237
    1CAL  O03r824746   8.937   2.645   2.624
    1CAL  O03r924747   9.688   2.497   2.773
    1CAL  O03rA24748   9.687   2.340   2.931
    1CAL  O03rB24749   9.881   2.418   2.853
    1CAL  O03rC24750   9.936   2.835   3.238
    1CAL  O03rD24751   9.938   2.190   3.079
    1CAL  O03rE24752   9.936   2.032   3.238
    1CAL  O03rF24753   8.130   2.913   3.160
    1CAL  O03rG24754   8.066   1.788   3.079
    1CAL  O03rH24755   9.438   2.802   2.465
    1CAL  O03rI24756   9.437   2.645   2.624
    1CAL  O03rJ24757   9.631   2.723   2.545
    1CAL  O03rK24758   8.067   1.631   3.239
    1CAL  O03rL24759   9.436   2.836   3.238
    1CAL  O03rM24760   8.067   3.201   2.466
    1CAL  O03rN24761   8.066   3.044   2.624
    1CAL  O03rO24762   8.873   3.124   2.544
    1CAL  O03rP24763   9.873   2.512   3.160
    1CAL  O03rQ24764   9.938   1.840   2.624
    1CAL  O03rR24765   9.066   1.788   3.079
    1CAL  O03rS24766   8.438   2.802   2.465
    1CAL  O03rT24767   8.437   2.645   2.624
    1CAL  O03rU24768   8.631   2.723   2.545
    1CAL  O03rV24769   9.067   1.630   3.238
    1CAL  O03rW24770   8.435   2.836   3.238
    1CAL  O03rX24771   8.873   1.709   3.159
    1CAL  O03rY24772   9.874   2.321   2.545
    1CAL  O03rZ24773   9.067   3.201   2.466
    1CAL  O03ra24774   9.066   3.044   2.624
    1CAL  O03rb24775   9.624   2.818   2.849
    1CAL  O03rc24776   9.816   2.739   2.929
    1CAL  O03rd24777   9.817   2.896   2.770
    1CAL  O03re24778   9.939   2.802   2.465
    1CAL  O03rf24779   9.937   2.645   2.624
    1CAL  O03rg24780   9.938   1.998   2.465
    1CAL  O03rh24781   8.631   1.919   2.544
    1CAL  O03ri24782   8.381   2.418   2.853
    1CAL  O03rj24783   8.372   2.512   3.162
    1CAL  O03rk24784   9.067   2.243   2.624
    1CAL  O03rl24785   9.566   3.044   2.624
    1CAL  O03rm24786   9.567   3.201   2.466
    1CAL  O03rn24787   9.624   2.016   2.852
    1CAL  O03ro24788   9.817   1.937   2.931
    1CAL  O03rp24789   9.374   3.124   2.544
    1CAL  O03rq24790   9.123   2.016   2.852
    1CAL  O03rr24791   9.316   2.095   2.773
    1CAL  O03rs24792   8.630   2.913   3.159
    1CAL  O03rt24793   9.438   1.997   2.466
    1CAL  O03ru24794   9.438   1.840   2.624
    1CAL  O03rv24795   9.631   1.919   2.544
    1CAL  O03rw24796   9.373   2.512   3.161
    1CAL  O03rx24797   9.568   2.435   3.237
    1CAL  O03ry24798   9.317   1.937   2.931
    1CAL  O03rz24799   9.565   2.593   3.078
    1CAL  O03s024800   8.067   2.243   2.624
    1CAL  O03s124801   9.567   2.243   2.624
    1CAL  O03s224802   8.188   2.497   2.773
    1CAL  O03s324803   8.065   2.593   3.078
    1CAL  O03s424804   8.067   2.435   3.238
    1CAL  O03s524805   8.130   2.110   3.160
    1CAL  O03s624806   8.131   1.919   2.545
    1CAL  O03s724807   8.130   2.723   2.545
    1CAL  O03s824808   9.566   2.400   2.466
    1CAL  O03s924809   8.317   2.896   2.771
    1CAL  O03sA24810   9.874   3.124   2.544
    1CAL  O03sB24811   9.873   1.709   3.160
    1CAL  O03sC24812   8.123   2.818   2.849
    1CAL  O03sD24813   9.937   2.992   3.078
    1CAL  O03sE24814   8.066   2.400   2.466
    1CAL  O03sF24815   9.374   2.321   2.545
    1CAL  O03sG24816   8.316   2.739   2.929
    1CAL  O03sH24817   8.436   2.993   3.078
    1CAL  O03sI24818   8.630   2.110   3.159
    1CAL  O03sJ24819   9.373   1.708   3.161
    1CAL  O03sK24820   9.438   2.190   3.078
    1CAL  O03sL24821   9.436   2.033   3.238
    1CAL  O03sM24822   9.631   2.110   3.159
    1CAL  O03sN24823   8.881   1.613   2.852
    1CAL  O03sO24824   8.688   3.141   2.931
    1CAL  O03sP24825   9.436   2.992   3.078
    1CAL  O03sQ24826   9.630   2.913   3.158
    1CAL  O03sR24827   8.688   1.692   2.773
    1CAL  O03sS24828   8.565   1.788   3.079
    1CAL  O03sT24829   8.568   1.631   3.238
    1CAL  O03sU24830   8.372   1.709   3.161
    1CAL  O03sV24831   8.564   2.593   3.078
    1CAL  O03sW24832   8.569   2.435   3.238
    1CAL  O03sX24833   8.873   2.321   2.545
    1CAL  O03sY24834   9.568   1.630   3.238
    1CAL  O03sZ24835   9.566   1.788   3.079
    1CAL  O03sa24836   8.435   2.033   3.238
    1CAL  O03sb24837   8.437   2.191   3.079
    1CAL  O03sc24838   9.688   1.692   2.773
    1CAL  O03sd24839   9.688   3.141   2.931
    1CAL  O03se24840   9.881   1.613   2.852
    1CAL  O03sf24841   8.381   1.614   2.852
    1CAL  O03sg24842   8.188   3.141   2.931
    1CAL  O03sh24843   8.187   1.692   2.773
    1CAL  O03si24844   9.188   1.692   2.773
    1CAL  O03sj24845   9.188   3.141   2.931
    1CAL  O03sk24846   9.381   1.614   2.852
    1CAL  O03sl24847   9.066   2.400   2.466
    1CAL  O03sm24848   9.817   2.095   2.773
    1CAL  O03sn24849   8.822   3.086   3.387
    1CAL  O03so24850   8.813   2.934   3.553
    1CAL  O03sp24851   8.623   3.018   3.467
    1CAL  O03sq24852   8.680   2.685   3.386
    1CAL  O03sr24853   8.689   2.534   3.552
    1CAL  O03ss24854   8.879   2.616   3.465
    1CAL  O03st24855   8.879   1.813   3.466
    1CAL  O03su24856   8.689   1.730   3.553
    1CAL  O03sv24857   8.680   1.881   3.387
    1CAL  O03sw24858   8.623   2.215   3.466
    1CAL  O03sx24859   8.813   2.131   3.552
    1CAL  O03sy24860   8.822   2.283   3.387
    1CAL  O03sz24861   9.681   2.685   3.386
    1CAL  O03t024862   9.879   2.616   3.466
    1CAL  O03t124863   9.689   2.533   3.552
    1CAL  O03t224864   9.624   3.017   3.466
    1CAL  O03t324865   9.813   2.934   3.552
    1CAL  O03t424866   9.822   3.086   3.387
    1CAL  O03t524867   9.680   1.881   3.387
    1CAL  O03t624868   9.879   1.813   3.466
    1CAL  O03t724869   9.689   1.730   3.553
    1CAL  O03t824870   9.623   2.214   3.466
    1CAL  O03t924871   9.813   2.131   3.552
    1CAL  O03tA24872   9.822   2.283   3.387
    1CAL  O03tB24873   9.313   2.934   3.553
    1CAL  O03tC24874   9.123   3.017   3.467
    1CAL  O03tD24875   9.322   3.085   3.387
    1CAL  O03tE24876   9.181   2.684   3.387
    1CAL  O03tF24877   9.190   2.532   3.553
    1CAL  O03tG24878   9.380   2.616   3.467
    1CAL  O03tH24879   9.313   2.131   3.553
    1CAL  O03tI24880   9.322   2.282   3.387
    1CAL  O03tJ24881   9.123   2.215   3.466
    1CAL  O03tK24882   9.181   1.881   3.388
    1CAL  O03tL24883   9.189   1.729   3.553
    1CAL  O03tM24884   9.379   1.813   3.468
    1CAL  O03tN24885   8.312   2.934   3.554
    1CAL  O03tO24886   8.123   3.018   3.467
    1CAL  O03tP24887   8.322   3.085   3.388
    1CAL  O03tQ24888   8.181   2.684   3.388
    1CAL  O03tR24889   8.190   2.532   3.553
    1CAL  O03tS24890   8.380   2.616   3.469
    1CAL  O03tT24891   8.312   2.132   3.554
    1CAL  O03tU24892   8.123   2.215   3.466
    1CAL  O03tV24893   8.322   2.283   3.387
    1CAL  O03tW24894   8.379   1.813   3.469
    1CAL  O03tX24895   8.189   1.729   3.554
    1CAL  O03tY24896   8.181   1.881   3.389
    1CAL  Ca1HV24897   9.004   2.416   3.464
    1CAL  Ca1HW24898   9.752   2.120   2.545
    1CAL  Ca1HX24899   9.498   2.817   3.465
    1CAL  Ca1HY24900   8.004   2.416   3.465
    1CAL  Ca1HZ24901   8.752   3.113   3.160
    1CAL  Ca1Ha24902   9.752   2.522   2.545
    1CAL  Ca1Hb24903   9.502   2.217   2.852
    1CAL  Ca1Hc24904   9.502   3.019   2.852
    1CAL  Ca1Hd24905   8.251   2.712   3.159
    1CAL  Ca1He24906   9.002   3.019   2.852
    1CAL  Ca1Hf24907   8.504   1.613   3.465
    1CAL  Ca1Hg24908   8.252   2.120   2.545
    1CAL  Ca1Hh24909   8.252   2.311   3.160
    1CAL  Ca1Hi24910   9.999   2.014   3.465
    1CAL  Ca1Hj24911   9.999   2.817   3.465
    1CAL  Ca1Hk24912   9.751   2.712   3.158
    1CAL  Ca1Hl24913   9.252   1.718   2.545
    1CAL  Ca1Hm24914  10.002   3.019   2.852
    1CAL  Ca1Hn24915   9.752   1.718   2.545
    1CAL  Ca1Ho24916   8.497   2.015   3.465
    1CAL  Ca1Hp24917   8.004   1.613   3.466
    1CAL  Ca1Hq24918   9.753   2.311   3.160
    1CAL  Ca1Hr24919   8.252   2.522   2.545
    1CAL  Ca1Hs24920  10.002   2.217   2.852
    1CAL  Ca1Ht24921   9.502   2.618   2.851
    1CAL  Ca1Hu24922   8.252   3.114   3.160
    1CAL  Ca1Hv24923   9.752   2.923   2.546
    1CAL  Ca1Hw24924   8.502   2.618   2.851
    1CAL  Ca1Hx24925   8.498   2.818   3.465
    1CAL  Ca1Hy24926  10.002   1.815   2.852
    1CAL  Ca1Hz24927   8.502   3.019   2.852
    1CAL  Ca1I024928   9.498   2.014   3.465
    1CAL  Ca1I124929   9.252   2.522   2.545
    1CAL  Ca1I224930   8.752   2.522   2.545
    1CAL  Ca1I324931   9.002   1.815   2.852
    1CAL  Ca1I424932   9.002   2.618   2.851
    1CAL  Ca1I524933   8.502   2.217   2.852
    1CAL  Ca1I624934   9.002   2.217   2.852
    1CAL  Ca1I724935   8.751   2.712   3.159
    1CAL  Ca1I824936   8.252   1.718   2.545
    1CAL  Ca1I924937   8.752   2.120   2.545
    1CAL  Ca1IA24938   9.252   2.120   2.545
    1CAL  Ca1IB24939   9.251   2.712   3.159
    1CAL  Ca1IC24940   9.252   3.113   3.160
    1CAL  Ca1ID24941   9.751   1.909   3.160
    1CAL  Ca1IE24942   9.004   1.613   3.465
    1CAL  Ca1IF24943   8.750   1.909   3.160
    1CAL  Ca1IG24944   8.505   2.416   3.464
    1CAL  Ca1IH24945   8.502   1.815   2.852
    1CAL  Ca1II24946   8.752   1.718   2.545
    1CAL  Ca1IJ24947   9.252   2.923   2.546
    1CAL  Ca1IK24948   9.251   1.909   3.160
    1CAL  Ca1IL24949   8.998   2.014   3.465
    1CAL  Ca1IM24950   8.752   2.923   2.546
    1CAL  Ca1IN24951   8.998   2.817   3.465
    1CAL  Ca1IO24952   8.252   2.923   2.546
    1CAL  Ca1IP24953   9.502   1.815   2.852
    1CAL  Ca1IQ24954   9.505   2.416   3.464
    1CAL  Ca1IR24955   9.504   1.612   3.465
    1CAL  Ca1IS24956   8.752   2.311   3.160
    1CAL  Ca1IT24957   9.752   3.114   3.160
    1CAL  Ca1IU24958   9.252   2.311   3.160
    1CAL  Ca1IV24959   8.251   1.909   3.160
    1CAL  Ca1IW24960  10.002   2.618   2.851
    1CAL  C01IX24961  10.002   4.730   0.089
    1CAL  C01IY24962   9.252   3.220   0.396
    1CAL  C01IZ24963   8.252   3.220   0.396
    1CAL  C01Ia24964   9.501   3.718   0.702
    1CAL  C01Ib24965   9.501   4.521   0.702
    1CAL  C01Ic24966   8.752   3.220   0.396
    1CAL  C01Id24967   9.002   3.928   0.089
    1CAL  C01Ie24968   9.252   4.425   0.393
    1CAL  C01If24969   8.752   4.425   0.394
    1CAL  C01Ig24970   8.502   4.120   0.703
    1CAL  C01Ih24971   8.502   3.526   0.089
    1CAL  C01Ii24972   9.002   4.330   0.089
    1CAL  C01Ij24973   9.002   3.526   0.089
    1CAL  C01Ik24974   8.252   3.623   0.396
    1CAL  C01Il24975   8.502   3.316   0.703
    1CAL  C01Im24976   9.002   4.120   0.702
    1CAL  C01In24977   9.752   3.220   0.396
    1CAL  C01Io24978   9.502   3.316   0.703
    1CAL  C01Ip24979   8.252   4.025   0.396
    1CAL  C01Iq24980  10.001   3.718   0.703
    1CAL  C01Ir24981  10.002   4.120   0.702
    1CAL  C01Is24982  10.002   3.526   0.089
    1CAL  C01It24983  10.002   4.330   0.089
    1CAL  C01Iu24984   8.252   4.425   0.394
    1CAL  C01Iv24985   8.501   3.718   0.702
    1CAL  C01Iw24986   9.502   3.928   0.089
    1CAL  C01Ix24987  10.002   3.928   0.089
    1CAL  C01Iy24988   9.752   3.623   0.396
    1CAL  C01Iz24989   9.252   3.623   0.396
    1CAL  C01J024990   9.502   3.526   0.089
    1CAL  C01J124991   9.502   4.120   0.702
    1CAL  C01J224992   8.500   4.521   0.702
    1CAL  C01J324993   9.502   4.730   0.089
    1CAL  C01J424994   8.752   3.623   0.396
    1CAL  C01J524995   9.252   4.025   0.396
    1CAL  C01J624996   8.502   4.330   0.089
    1CAL  C01J724997   9.752   4.425   0.393
    1CAL  C01J824998   9.002   4.730   0.089
    1CAL  C01J924999  10.001   4.521   0.703
    1CAL  C01JA25000   9.002   3.316   0.702
    1CAL  C01JB25001   9.001   4.521   0.702
    1CAL  C01JC25002   9.001   3.718   0.703
    1CAL  C01JD25003   9.752   4.025   0.396
    1CAL  C01JE25004   8.502   4.730   0.089
    1CAL  C01JF25005   9.502   4.330   0.089
    1CAL  C01JG25006   8.502   3.928   0.089
    1CAL  C01JH25007   8.752   4.025   0.396
    1CAL  C01JI25008  10.002   3.316   0.703
    1CAL  C01JJ25009   8.753   3.816   1.013
    1CAL  C01JK25010   8.749   3.415   1.013
    1CAL  C01JL25011   8.749   4.218   1.012
    1CAL  C01JM25012   8.753   4.619   1.013
    1CAL  C01JN25013   9.753   3.816   1.013
    1CAL  C01JO25014   9.749   3.415   1.013
    1CAL  C01JP25015   9.753   4.619   1.013
    1CAL  C01JQ25016   9.750   4.218   1.012
    1CAL  C01JR25017   9.253   4.619   1.013
    1CAL  C01JS25018   9.250   4.217   1.013
    1CAL  C01JT25019   9.253   3.816   1.013
    1CAL  C01JU25020   9.249   3.414   1.014
    1CAL  C01JV25021   8.253   4.619   1.014
    1CAL  C01JW25022   8.250   4.217   1.014
    1CAL  C01JX25023   8.253   3.817   1.013
    1CAL  C01JY25024   8.249   3.414   1.015
    1CAL  O03tZ25025   8.187   3.947   0.475
    1CAL  O03ta25026   9.188   4.104   0.317
    1CAL  O03tb25027   9.187   3.947   0.475
    1CAL  O03tc25028   9.381   4.025   0.397
    1CAL  O03td25029   8.566   4.651   0.168
    1CAL  O03te25030   8.373   4.731   0.088
    1CAL  O03tf25031   8.566   4.007   0.010
    1CAL  O03tg25032   8.688   4.104   0.317
    1CAL  O03th25033   8.687   3.947   0.475
    1CAL  O03ti25034   8.881   4.025   0.397
    1CAL  O03tj25035   8.567   4.808   0.010
    1CAL  O03tk25036   8.566   3.850   0.168
    1CAL  O03tl25037   8.373   3.928   0.089
    1CAL  O03tm25038   9.130   4.520   0.703
    1CAL  O03tn25039   8.937   4.599   0.622
    1CAL  O03to25040   8.938   3.797   0.622
    1CAL  O03tp25041   8.935   3.640   0.782
    1CAL  O03tq25042   9.130   3.717   0.704
    1CAL  O03tr25043   8.935   4.443   0.782
    1CAL  O03ts25044   8.623   3.623   0.396
    1CAL  O03tt25045   9.065   4.199   0.622
    1CAL  O03tu25046   9.124   4.425   0.393
    1CAL  O03tv25047   9.316   4.346   0.473
    1CAL  O03tw25048   9.317   4.503   0.315
    1CAL  O03tx25049   8.438   3.447   0.168
    1CAL  O03ty25050   8.437   3.604   0.010
    1CAL  O03tz25051   8.623   4.425   0.393
    1CAL  O03u025052   8.816   4.346   0.473
    1CAL  O03u125053   8.817   4.503   0.315
    1CAL  O03u225054   8.316   3.702   0.317
    1CAL  O03u325055   8.816   3.544   0.475
    1CAL  O03u425056   8.938   4.409   0.009
    1CAL  O03u525057   9.131   4.330   0.089
    1CAL  O03u625058   8.316   3.544   0.476
    1CAL  O03u725059   8.123   3.623   0.396
    1CAL  O03u825060   8.816   3.702   0.317
    1CAL  O03u925061   8.938   3.605   0.009
    1CAL  O03uA25062   8.938   3.447   0.168
    1CAL  O03uB25063   9.131   3.526   0.089
    1CAL  O03uC25064   8.872   4.119   0.703
    1CAL  O03uD25065   9.068   4.042   0.781
    1CAL  O03uE25066   8.937   4.252   0.168
    1CAL  O03uF25067   9.688   4.104   0.317
    1CAL  O03uG25068   9.687   3.947   0.475
    1CAL  O03uH25069   9.881   4.025   0.397
    1CAL  O03uI25070   9.936   4.442   0.782
    1CAL  O03uJ25071   9.938   3.797   0.623
    1CAL  O03uK25072   9.936   3.639   0.782
    1CAL  O03uL25073   8.130   4.520   0.704
    1CAL  O03uM25074   8.066   3.395   0.623
    1CAL  O03uN25075   9.438   4.409   0.009
    1CAL  O03uO25076   9.437   4.252   0.168
    1CAL  O03uP25077   9.631   4.330   0.089
    1CAL  O03uQ25078   8.067   3.238   0.783
    1CAL  O03uR25079   9.436   4.443   0.782
    1CAL  O03uS25080   8.067   4.808   0.010
    1CAL  O03uT25081   8.066   4.651   0.168
    1CAL  O03uU25082   8.873   4.731   0.088
    1CAL  O03uV25083   9.873   4.119   0.704
    1CAL  O03uW25084   9.938   3.447   0.168
    1CAL  O03uX25085   9.066   3.395   0.623
    1CAL  O03uY25086   8.438   4.409   0.009
    1CAL  O03uZ25087   8.437   4.252   0.168
    1CAL  O03ua25088   8.631   4.330   0.089
    1CAL  O03ub25089   9.067   3.237   0.782
    1CAL  O03uc25090   8.435   4.443   0.782
    1CAL  O03ud25091   8.873   3.316   0.703
    1CAL  O03ue25092   9.874   3.928   0.089
    1CAL  O03uf25093   9.067   4.808   0.010
    1CAL  O03ug25094   9.066   4.651   0.168
    1CAL  O03uh25095   9.624   4.425   0.393
    1CAL  O03ui25096   9.816   4.346   0.473
    1CAL  O03uj25097   9.817   4.503   0.314
    1CAL  O03uk25098   9.939   4.409   0.009
    1CAL  O03ul25099   9.937   4.252   0.168
    1CAL  O03um25100   9.938   3.605   0.009
    1CAL  O03un25101   8.631   3.526   0.088
    1CAL  O03uo25102   8.381   4.025   0.397
    1CAL  O03up25103   8.372   4.119   0.706
    1CAL  O03uq25104   9.067   3.850   0.168
    1CAL  O03ur25105   9.566   4.651   0.168
    1CAL  O03us25106   9.567   4.808   0.010
    1CAL  O03ut25107   9.624   3.623   0.396
    1CAL  O03uu25108   9.817   3.544   0.475
    1CAL  O03uv25109   9.374   4.731   0.088
    1CAL  O03uw25110   9.123   3.623   0.396
    1CAL  O03ux25111   9.316   3.702   0.317
    1CAL  O03uy25112   8.630   4.520   0.703
    1CAL  O03uz25113   9.438   3.604   0.010
    1CAL  O03v025114   9.438   3.447   0.168
    1CAL  O03v125115   9.631   3.526   0.088
    1CAL  O03v225116   9.373   4.119   0.705
    1CAL  O03v325117   9.568   4.042   0.781
    1CAL  O03v425118   9.317   3.544   0.475
    1CAL  O03v525119   9.565   4.200   0.622
    1CAL  O03v625120   8.067   3.850   0.168
    1CAL  O03v725121   9.567   3.850   0.168
    1CAL  O03v825122   8.188   4.104   0.317
    1CAL  O03v925123   8.065   4.200   0.622
    1CAL  O03vA25124   8.067   4.042   0.782
    1CAL  O03vB25125   8.130   3.717   0.704
    1CAL  O03vC25126   8.131   3.526   0.089
    1CAL  O03vD25127   8.130   4.330   0.089
    1CAL  O03vE25128   9.566   4.007   0.010
    1CAL  O03vF25129   8.317   4.503   0.315
    1CAL  O03vG25130   9.874   4.731   0.088
    1CAL  O03vH25131   9.873   3.316   0.704
    1CAL  O03vI25132   8.123   4.425   0.393
    1CAL  O03vJ25133   9.937   4.599   0.622
    1CAL  O03vK25134   8.066   4.007   0.010
    1CAL  O03vL25135   9.374   3.928   0.089
    1CAL  O03vM25136   8.316   4.346   0.473
    1CAL  O03vN25137   8.436   4.600   0.622
    1CAL  O03vO25138   8.630   3.717   0.703
    1CAL  O03vP25139   9.373   3.315   0.705
    1CAL  O03vQ25140   9.438   3.797   0.622
    1CAL  O03vR25141   9.436   3.640   0.782
    1CAL  O03vS25142   9.631   3.717   0.703
    1CAL  O03vT25143   8.881   3.220   0.396
    1CAL  O03vU25144   8.688   4.748   0.475
    1CAL  O03vV25145   9.436   4.599   0.622
    1CAL  O03vW25146   9.630   4.520   0.702
    1CAL  O03vX25147   8.688   3.299   0.317
    1CAL  O03vY25148   8.565   3.395   0.623
    1CAL  O03vZ25149   8.568   3.238   0.782
    1CAL  O03va25150   8.372   3.316   0.705
    1CAL  O03vb25151   8.564   4.200   0.622
    1CAL  O03vc25152   8.569   4.042   0.782
    1CAL  O03vd25153   8.873   3.928   0.089
    1CAL  O03ve25154   9.568   3.237   0.782
    1CAL  O03vf25155   9.566   3.395   0.623
    1CAL  O03vg25156   8.435   3.640   0.782
    1CAL  O03vh25157   8.437   3.798   0.623
    1CAL  O03vi25158   9.688   3.299   0.317
    1CAL  O03vj25159   9.688   4.748   0.475
    1CAL  O03vk25160   9.881   3.220   0.396
    1CAL  O03vl25161   8.381   3.221   0.396
    1CAL  O03vm25162   8.188   4.748   0.475
    1CAL  O03vn25163   8.187   3.299   0.317
    1CAL  O03vo25164   9.188   3.299   0.317
    1CAL  O03vp25165   9.188   4.748   0.475
    1CAL  O03vq25166   9.381   3.221   0.396
    1CAL  O03vr25167   9.066   4.007   0.010
    1CAL  O03vs25168   9.817   3.702   0.317
    1CAL  O03vt25169   8.822   4.693   0.931
    1CAL  O03vu25170   8.813   4.541   1.097
    1CAL  O03vv25171   8.623   4.625   1.011
    1CAL  O03vw25172   8.680   4.292   0.930
    1CAL  O03vx25173   8.689   4.141   1.096
    1CAL  O03vy25174   8.879   4.223   1.009
    1CAL  O03vz25175   8.879   3.420   1.010
    1CAL  O03w025176   8.689   3.337   1.097
    1CAL  O03w125177   8.680   3.488   0.931
    1CAL  O03w225178   8.623   3.822   1.010
    1CAL  O03w325179   8.813   3.738   1.096
    1CAL  O03w425180   8.822   3.890   0.931
    1CAL  O03w525181   9.681   4.292   0.930
    1CAL  O03w625182   9.879   4.223   1.010
    1CAL  O03w725183   9.689   4.140   1.096
    1CAL  O03w825184   9.624   4.624   1.010
    1CAL  O03w925185   9.813   4.541   1.096
    1CAL  O03wA25186   9.822   4.693   0.931
    1CAL  O03wB25187   9.680   3.488   0.931
    1CAL  O03wC25188   9.879   3.420   1.010
    1CAL  O03wD25189   9.689   3.337   1.097
    1CAL  O03wE25190   9.623   3.821   1.010
    1CAL  O03wF25191   9.813   3.738   1.096
    1CAL  O03wG25192   9.822   3.890   0.931
    1CAL  O03wH25193   9.313   4.541   1.097
    1CAL  O03wI25194   9.123   4.624   1.011
    1CAL  O03wJ25195   9.322   4.692   0.931
    1CAL  O03wK25196   9.181   4.291   0.931
    1CAL  O03wL25197   9.190   4.139   1.097
    1CAL  O03wM25198   9.380   4.223   1.011
    1CAL  O03wN25199   9.313   3.738   1.097
    1CAL  O03wO25200   9.322   3.889   0.931
    1CAL  O03wP25201   9.123   3.822   1.010
    1CAL  O03wQ25202   9.181   3.488   0.932
    1CAL  O03wR25203   9.189   3.336   1.097
    1CAL  O03wS25204   9.379   3.420   1.012
    1CAL  O03wT25205   8.312   4.541   1.098
    1CAL  O03wU25206   8.123   4.625   1.011
    1CAL  O03wV25207   8.322   4.692   0.932
    1CAL  O03wW25208   8.181   4.291   0.932
    1CAL  O03wX25209   8.190   4.139   1.097
    1CAL  O03wY25210   8.380   4.223   1.013
    1CAL  O03wZ25211   8.312   3.739   1.098
    1CAL  O03wa25212   8.123   3.822   1.010
    1CAL  O03wb25213   8.322   3.890   0.931
    1CAL  O03wc25214   8.379   3.420   1.013
    1CAL  O03wd25215   8.189   3.336   1.098
    1CAL  O03we25216   8.181   3.488   0.933
    1CAL  Ca1IX25217   9.004   4.023   1.008
    1CAL  Ca1IY25218   9.752   3.727   0.089
    1CAL  Ca1IZ25219   9.498   4.424   1.009
    1CAL  Ca1Ia25220   8.004   4.023   1.009
    1CAL  Ca1Ib25221   8.752   4.720   0.704
    1CAL  Ca1Ic25222   9.752   4.129   0.089
    1CAL  Ca1Id25223   9.502   3.824   0.396
    1CAL  Ca1Ie25224   9.502   4.626   0.396
    1CAL  Ca1If25225   8.251   4.319   0.703
    1CAL  Ca1Ig25226   9.002   4.626   0.396
    1CAL  Ca1Ih25227   8.504   3.220   1.009
    1CAL  Ca1Ii25228   8.252   3.727   0.089
    1CAL  Ca1Ij25229   8.252   3.918   0.704
    1CAL  Ca1Ik25230   9.999   3.621   1.009
    1CAL  Ca1Il25231   9.999   4.424   1.009
    1CAL  Ca1Im25232   9.751   4.319   0.702
    1CAL  Ca1In25233   9.252   3.325   0.089
    1CAL  Ca1Io25234  10.002   4.626   0.396
    1CAL  Ca1Ip25235   9.752   3.325   0.089
    1CAL  Ca1Iq25236   8.497   3.622   1.009
    1CAL  Ca1Ir25237   8.004   3.220   1.010
    1CAL  Ca1Is25238   9.753   3.918   0.704
    1CAL  Ca1It25239   8.252   4.129   0.089
    1CAL  Ca1Iu25240  10.002   3.824   0.396
    1CAL  Ca1Iv25241   9.502   4.225   0.395
    1CAL  Ca1Iw25242   8.252   4.721   0.704
    1CAL  Ca1Ix25243   9.752   4.530   0.090
    1CAL  Ca1Iy25244   8.502   4.225   0.395
    1CAL  Ca1Iz25245   8.498   4.425   1.009
    1CAL  Ca1J025246  10.002   3.422   0.396
    1CAL  Ca1J125247   8.502   4.626   0.396
    1CAL  Ca1J225248   9.498   3.621   1.009
    1CAL  Ca1J325249   9.252   4.129   0.089
    1CAL  Ca1J425250   8.752   4.129   0.089
    1CAL  Ca1J525251   9.002   3.422   0.396
    1CAL  Ca1J625252   9.002   4.225   0.395
    1CAL  Ca1J725253   8.502   3.824   0.396
    1CAL  Ca1J825254   9.002   3.824   0.396
    1CAL  Ca1J925255   8.751   4.319   0.703
    1CAL  Ca1JA25256   8.252   3.325   0.089
    1CAL  Ca1JB25257   8.752   3.727   0.089
    1CAL  Ca1JC25258   9.252   3.727   0.089
    1CAL  Ca1JD25259   9.251   4.319   0.703
    1CAL  Ca1JE25260   9.252   4.720   0.704
    1CAL  Ca1JF25261   9.751   3.516   0.704
    1CAL  Ca1JG25262   9.004   3.220   1.009
    1CAL  Ca1JH25263   8.750   3.516   0.704
    1CAL  Ca1JI25264   8.505   4.023   1.008
    1CAL  Ca1JJ25265   8.502   3.422   0.396
    1CAL  Ca1JK25266   8.752   3.325   0.089
    1CAL  Ca1JL25267   9.252   4.530   0.090
    1CAL  Ca1JM25268   9.251   3.516   0.704
    1CAL  Ca1JN25269   8.998   3.621   1.009
    1CAL  Ca1JO25270   8.752   4.530   0.090
    1CAL  Ca1JP25271   8.998   4.424   1.009
    1CAL  Ca1JQ25272   8.252   4.530   0.090
    1CAL  Ca1JR25273   9.502   3.422   0.396
    1CAL  Ca1JS25274   9.505   4.023   1.008
    1CAL  Ca1JT25275   9.504   3.219   1.009
    1CAL  Ca1JU25276   8.752   3.918   0.704
    1CAL  Ca1JV25277   9.752   4.721   0.704
    1CAL  Ca1JW25278   9.252   3.918   0.704
    1CAL  Ca1JX25279   8.251   3.516   0.704
    1CAL  Ca1JY25280  10.002   4.225   0.395
    1CAL  C01JZ25281  10.002   4.730   1.317
    1CAL  C01Ja25282   9.252   3.220   1.624
    1CAL  C01Jb25283   8.252   3.220   1.624
    1CAL  C01Jc25284   9.501   3.718   1.930
    1CAL  C01Jd25285   9.501   4.521   1.930
    1CAL  C01Je25286   8.752   3.220   1.624
    1CAL  C01Jf25287   9.002   3.928   1.317
    1CAL  C01Jg25288   9.252   4.425   1.621
    1CAL  C01Jh25289   8.752   4.425   1.622
    1CAL  C01Ji25290   8.502   4.120   1.931
    1CAL  C01Jj25291   8.502   3.526   1.317
    1CAL  C01Jk25292   9.002   4.330   1.317
    1CAL  C01Jl25293   9.002   3.526   1.317
    1CAL  C01Jm25294   8.252   3.623   1.624
    1CAL  C01Jn25295   8.502   3.316   1.931
    1CAL  C01Jo25296   9.002   4.120   1.930
    1CAL  C01Jp25297   9.752   3.220   1.624
    1CAL  C01Jq25298   9.502   3.316   1.931
    1CAL  C01Jr25299   8.252   4.025   1.624
    1CAL  C01Js25300  10.001   3.718   1.931
    1CAL  C01Jt25301  10.002   4.120   1.930
    1CAL  C01Ju25302  10.002   3.526   1.317
    1CAL  C01Jv25303  10.002   4.330   1.317
    1CAL  C01Jw25304   8.252   4.425   1.622
    1CAL  C01Jx25305   8.501   3.718   1.930
    1CAL  C01Jy25306   9.502   3.928   1.317
    1CAL  C01Jz25307  10.002   3.928   1.317
    1CAL  C01K025308   9.752   3.623   1.624
    1CAL  C01K125309   9.252   3.623   1.624
    1CAL  C01K225310   9.502   3.526   1.317
    1CAL  C01K325311   9.502   4.120   1.930
    1CAL  C01K425312   8.500   4.521   1.930
    1CAL  C01K525313   9.502   4.730   1.317
    1CAL  C01K625314   8.752   3.623   1.624
    1CAL  C01K725315   9.252   4.025   1.624
    1CAL  C01K825316   8.502   4.330   1.317
    1CAL  C01K925317   9.752   4.425   1.621
    1CAL  C01KA25318   9.002   4.730   1.317
    1CAL  C01KB25319  10.001   4.521   1.931
    1CAL  C01KC25320   9.002   3.316   1.930
    1CAL  C01KD25321   9.001   4.521   1.930
    1CAL  C01KE25322   9.001   3.718   1.931
    1CAL  C01KF25323   9.752   4.025   1.624
    1CAL  C01KG25324   8.502   4.730   1.317
    1CAL  C01KH25325   9.502   4.330   1.317
    1CAL  C01KI25326   8.502   3.928   1.317
    1CAL  C01KJ25327   8.752   4.025   1.624
    1CAL  C01KK25328  10.002   3.316   1.931
    1CAL  C01KL25329   8.753   3.816   2.241
    1CAL  C01KM25330   8.749   3.415   2.241
    1CAL  C01KN25331   8.749   4.218   2.240
    1CAL  C01KO25332   8.753   4.619   2.241
    1CAL  C01KP25333   9.753   3.816   2.241
    1CAL  C01KQ25334   9.749   3.415   2.241
    1CAL  C01KR25335   9.753   4.619   2.241
    1CAL  C01KS25336   9.750   4.218   2.240
    1CAL  C01KT25337   9.253   4.619   2.241
    1CAL  C01KU25338   9.250   4.217   2.241
    1CAL  C01KV25339   9.253   3.816   2.241
    1CAL  C01KW25340   9.249   3.414   2.242
    1CAL  C01KX25341   8.253   4.619   2.242
    1CAL  C01KY25342   8.250   4.217   2.242
    1CAL  C01KZ25343   8.253   3.817   2.241
    1CAL  C01Ka25344   8.249   3.414   2.243
    1CAL  O03wf25345   8.187   3.947   1.703
    1CAL  O03wg25346   9.188   4.104   1.545
    1CAL  O03wh25347   9.187   3.947   1.703
    1CAL  O03wi25348   9.381   4.025   1.625
    1CAL  O03wj25349   8.566   4.651   1.396
    1CAL  O03wk25350   8.373   4.731   1.316
    1CAL  O03wl25351   8.566   4.007   1.238
    1CAL  O03wm25352   8.688   4.104   1.545
    1CAL  O03wn25353   8.687   3.947   1.703
    1CAL  O03wo25354   8.881   4.025   1.625
    1CAL  O03wp25355   8.567   4.808   1.238
    1CAL  O03wq25356   8.566   3.850   1.396
    1CAL  O03wr25357   8.373   3.928   1.317
    1CAL  O03ws25358   9.130   4.520   1.931
    1CAL  O03wt25359   8.937   4.599   1.850
    1CAL  O03wu25360   8.938   3.797   1.850
    1CAL  O03wv25361   8.935   3.640   2.010
    1CAL  O03ww25362   9.130   3.717   1.932
    1CAL  O03wx25363   8.935   4.443   2.010
    1CAL  O03wy25364   8.623   3.623   1.624
    1CAL  O03wz25365   9.065   4.199   1.850
    1CAL  O03x025366   9.124   4.425   1.621
    1CAL  O03x125367   9.316   4.346   1.701
    1CAL  O03x225368   9.317   4.503   1.543
    1CAL  O03x325369   8.438   3.447   1.396
    1CAL  O03x425370   8.437   3.604   1.238
    1CAL  O03x525371   8.623   4.425   1.621
    1CAL  O03x625372   8.816   4.346   1.701
    1CAL  O03x725373   8.817   4.503   1.543
    1CAL  O03x825374   8.316   3.702   1.545
    1CAL  O03x925375   8.816   3.544   1.703
    1CAL  O03xA25376   8.938   4.409   1.237
    1CAL  O03xB25377   9.131   4.330   1.317
    1CAL  O03xC25378   8.316   3.544   1.704
    1CAL  O03xD25379   8.123   3.623   1.624
    1CAL  O03xE25380   8.816   3.702   1.545
    1CAL  O03xF25381   8.938   3.605   1.237
    1CAL  O03xG25382   8.938   3.447   1.396
    1CAL  O03xH25383   9.131   3.526   1.317
    1CAL  O03xI25384   8.872   4.119   1.931
    1CAL  O03xJ25385   9.068   4.042   2.009
    1CAL  O03xK25386   8.937   4.252   1.396
    1CAL  O03xL25387   9.688   4.104   1.545
    1CAL  O03xM25388   9.687   3.947   1.703
    1CAL  O03xN25389   9.881   4.025   1.625
    1CAL  O03xO25390   9.936   4.442   2.010
    1CAL  O03xP25391   9.938   3.797   1.851
    1CAL  O03xQ25392   9.936   3.639   2.010
    1CAL  O03xR25393   8.130   4.520   1.932
    1CAL  O03xS25394   8.066   3.395   1.851
    1CAL  O03xT25395   9.438   4.409   1.237
    1CAL  O03xU25396   9.437   4.252   1.396
    1CAL  O03xV25397   9.631   4.330   1.317
    1CAL  O03xW25398   8.067   3.238   2.011
    1CAL  O03xX25399   9.436   4.443   2.010
    1CAL  O03xY25400   8.067   4.808   1.238
    1CAL  O03xZ25401   8.066   4.651   1.396
    1CAL  O03xa25402   8.873   4.731   1.316
    1CAL  O03xb25403   9.873   4.119   1.932
    1CAL  O03xc25404   9.938   3.447   1.396
    1CAL  O03xd25405   9.066   3.395   1.851
    1CAL  O03xe25406   8.438   4.409   1.237
    1CAL  O03xf25407   8.437   4.252   1.396
    1CAL  O03xg25408   8.631   4.330   1.317
    1CAL  O03xh25409   9.067   3.237   2.010
    1CAL  O03xi25410   8.435   4.443   2.010
    1CAL  O03xj25411   8.873   3.316   1.931
    1CAL  O03xk25412   9.874   3.928   1.317
    1CAL  O03xl25413   9.067   4.808   1.238
    1CAL  O03xm25414   9.066   4.651   1.396
    1CAL  O03xn25415   9.624   4.425   1.621
    1CAL  O03xo25416   9.816   4.346   1.701
    1CAL  O03xp25417   9.817   4.503   1.542
    1CAL  O03xq25418   9.939   4.409   1.237
    1CAL  O03xr25419   9.937   4.252   1.396
    1CAL  O03xs25420   9.938   3.605   1.237
    1CAL  O03xt25421   8.631   3.526   1.316
    1CAL  O03xu25422   8.381   4.025   1.625
    1CAL  O03xv25423   8.372   4.119   1.934
    1CAL  O03xw25424   9.067   3.850   1.396
    1CAL  O03xx25425   9.566   4.651   1.396
    1CAL  O03xy25426   9.567   4.808   1.238
    1CAL  O03xz25427   9.624   3.623   1.624
    1CAL  O03y025428   9.817   3.544   1.703
    1CAL  O03y125429   9.374   4.731   1.316
    1CAL  O03y225430   9.123   3.623   1.624
    1CAL  O03y325431   9.316   3.702   1.545
    1CAL  O03y425432   8.630   4.520   1.931
    1CAL  O03y525433   9.438   3.604   1.238
    1CAL  O03y625434   9.438   3.447   1.396
    1CAL  O03y725435   9.631   3.526   1.316
    1CAL  O03y825436   9.373   4.119   1.933
    1CAL  O03y925437   9.568   4.042   2.009
    1CAL  O03yA25438   9.317   3.544   1.703
    1CAL  O03yB25439   9.565   4.200   1.850
    1CAL  O03yC25440   8.067   3.850   1.396
    1CAL  O03yD25441   9.567   3.850   1.396
    1CAL  O03yE25442   8.188   4.104   1.545
    1CAL  O03yF25443   8.065   4.200   1.850
    1CAL  O03yG25444   8.067   4.042   2.010
    1CAL  O03yH25445   8.130   3.717   1.932
    1CAL  O03yI25446   8.131   3.526   1.317
    1CAL  O03yJ25447   8.130   4.330   1.317
    1CAL  O03yK25448   9.566   4.007   1.238
    1CAL  O03yL25449   8.317   4.503   1.543
    1CAL  O03yM25450   9.874   4.731   1.316
    1CAL  O03yN25451   9.873   3.316   1.932
    1CAL  O03yO25452   8.123   4.425   1.621
    1CAL  O03yP25453   9.937   4.599   1.850
    1CAL  O03yQ25454   8.066   4.007   1.238
    1CAL  O03yR25455   9.374   3.928   1.317
    1CAL  O03yS25456   8.316   4.346   1.701
    1CAL  O03yT25457   8.436   4.600   1.850
    1CAL  O03yU25458   8.630   3.717   1.931
    1CAL  O03yV25459   9.373   3.315   1.933
    1CAL  O03yW25460   9.438   3.797   1.850
    1CAL  O03yX25461   9.436   3.640   2.010
    1CAL  O03yY25462   9.631   3.717   1.931
    1CAL  O03yZ25463   8.881   3.220   1.624
    1CAL  O03ya25464   8.688   4.748   1.703
    1CAL  O03yb25465   9.436   4.599   1.850
    1CAL  O03yc25466   9.630   4.520   1.930
    1CAL  O03yd25467   8.688   3.299   1.545
    1CAL  O03ye25468   8.565   3.395   1.851
    1CAL  O03yf25469   8.568   3.238   2.010
    1CAL  O03yg25470   8.372   3.316   1.933
    1CAL  O03yh25471   8.564   4.200   1.850
    1CAL  O03yi25472   8.569   4.042   2.010
    1CAL  O03yj25473   8.873   3.928   1.317
    1CAL  O03yk25474   9.568   3.237   2.010
    1CAL  O03yl25475   9.566   3.395   1.851
    1CAL  O03ym25476   8.435   3.640   2.010
    1CAL  O03yn25477   8.437   3.798   1.851
    1CAL  O03yo25478   9.688   3.299   1.545
    1CAL  O03yp25479   9.688   4.748   1.703
    1CAL  O03yq25480   9.881   3.220   1.624
    1CAL  O03yr25481   8.381   3.221   1.624
    1CAL  O03ys25482   8.188   4.748   1.703
    1CAL  O03yt25483   8.187   3.299   1.545
    1CAL  O03yu25484   9.188   3.299   1.545
    1CAL  O03yv25485   9.188   4.748   1.703
    1CAL  O03yw25486   9.381   3.221   1.624
    1CAL  O03yx25487   9.066   4.007   1.238
    1CAL  O03yy25488   9.817   3.702   1.545
    1CAL  O03yz25489   8.822   4.693   2.159
    1CAL  O03z025490   8.813   4.541   2.325
    1CAL  O03z125491   8.623   4.625   2.239
    1CAL  O03z225492   8.680   4.292   2.158
    1CAL  O03z325493   8.689   4.141   2.324
    1CAL  O03z425494   8.879   4.223   2.237
    1CAL  O03z525495   8.879   3.420   2.238
    1CAL  O03z625496   8.689   3.337   2.325
    1CAL  O03z725497   8.680   3.488   2.159
    1CAL  O03z825498   8.623   3.822   2.238
    1CAL  O03z925499   8.813   3.738   2.324
    1CAL  O03zA25500   8.822   3.890   2.159
    1CAL  O03zB25501   9.681   4.292   2.158
    1CAL  O03zC25502   9.879   4.223   2.238
    1CAL  O03zD25503   9.689   4.140   2.324
    1CAL  O03zE25504   9.624   4.624   2.238
    1CAL  O03zF25505   9.813   4.541   2.324
    1CAL  O03zG25506   9.822   4.693   2.159
    1CAL  O03zH25507   9.680   3.488   2.159
    1CAL  O03zI25508   9.879   3.420   2.238
    1CAL  O03zJ25509   9.689   3.337   2.325
    1CAL  O03zK25510   9.623   3.821   2.238
    1CAL  O03zL25511   9.813   3.738   2.324
    1CAL  O03zM25512   9.822   3.890   2.159
    1CAL  O03zN25513   9.313   4.541   2.325
    1CAL  O03zO25514   9.123   4.624   2.239
    1CAL  O03zP25515   9.322   4.692   2.159
    1CAL  O03zQ25516   9.181   4.291   2.159
    1CAL  O03zR25517   9.190   4.139   2.325
    1CAL  O03zS25518   9.380   4.223   2.239
    1CAL  O03zT25519   9.313   3.738   2.325
    1CAL  O03zU25520   9.322   3.889   2.159
    1CAL  O03zV25521   9.123   3.822   2.238
    1CAL  O03zW25522   9.181   3.488   2.160
    1CAL  O03zX25523   9.189   3.336   2.325
    1CAL  O03zY25524   9.379   3.420   2.240
    1CAL  O03zZ25525   8.312   4.541   2.326
    1CAL  O03za25526   8.123   4.625   2.239
    1CAL  O03zb25527   8.322   4.692   2.160
    1CAL  O03zc25528   8.181   4.291   2.160
    1CAL  O03zd25529   8.190   4.139   2.325
    1CAL  O03ze25530   8.380   4.223   2.241
    1CAL  O03zf25531   8.312   3.739   2.326
    1CAL  O03zg25532   8.123   3.822   2.238
    1CAL  O03zh25533   8.322   3.890   2.159
    1CAL  O03zi25534   8.379   3.420   2.241
    1CAL  O03zj25535   8.189   3.336   2.326
    1CAL  O03zk25536   8.181   3.488   2.161
    1CAL  Ca1JZ25537   9.004   4.023   2.236
    1CAL  Ca1Ja25538   9.752   3.727   1.317
    1CAL  Ca1Jb25539   9.498   4.424   2.237
    1CAL  Ca1Jc25540   8.004   4.023   2.237
    1CAL  Ca1Jd25541   8.752   4.720   1.932
    1CAL  Ca1Je25542   9.752   4.129   1.317
    1CAL  Ca1Jf25543   9.502   3.824   1.624
    1CAL  Ca1Jg25544   9.502   4.626   1.624
    1CAL  Ca1Jh25545   8.251   4.319   1.931
    1CAL  Ca1Ji25546   9.002   4.626   1.624
    1CAL  Ca1Jj25547   8.504   3.220   2.237
    1CAL  Ca1Jk25548   8.252   3.727   1.317
    1CAL  Ca1Jl25549   8.252   3.918   1.932
    1CAL  Ca1Jm25550   9.999   3.621   2.237
    1CAL  Ca1Jn25551   9.999   4.424   2.237
    1CAL  Ca1Jo25552   9.751   4.319   1.930
    1CAL  Ca1Jp25553   9.252   3.325   1.317
    1CAL  Ca1Jq25554  10.002   4.626   1.624
    1CAL  Ca1Jr25555   9.752   3.325   1.317
    1CAL  Ca1Js25556   8.497   3.622   2.237
    1CAL  Ca1Jt25557   8.004   3.220   2.238
    1CAL  Ca1Ju25558   9.753   3.918   1.932
    1CAL  Ca1Jv25559   8.252   4.129   1.317
    1CAL  Ca1Jw25560  10.002   3.824   1.624
    1CAL  Ca1Jx25561   9.502   4.225   1.623
    1CAL  Ca1Jy25562   8.252   4.721   1.932
    1CAL  Ca1Jz25563   9.752   4.530   1.318
    1CAL  Ca1K025564   8.502   4.225   1.623
    1CAL  Ca1K125565   8.498   4.425   2.237
    1CAL  Ca1K225566  10.002   3.422   1.624
    1CAL  Ca1K325567   8.502   4.626   1.624
    1CAL  Ca1K425568   9.498   3.621   2.237
    1CAL  Ca1K525569   9.252   4.129   1.317
    1CAL  Ca1K625570   8.752   4.129   1.317
    1CAL  Ca1K725571   9.002   3.422   1.624
    1CAL  Ca1K825572   9.002   4.225   1.623
    1CAL  Ca1K925573   8.502   3.824   1.624
    1CAL  Ca1KA25574   9.002   3.824   1.624
    1CAL  Ca1KB25575   8.751   4.319   1.931
    1CAL  Ca1KC25576   8.252   3.325   1.317
    1CAL  Ca1KD25577   8.752   3.727   1.317
    1CAL  Ca1KE25578   9.252   3.727   1.317
    1CAL  Ca1KF25579   9.251   4.319   1.931
    1CAL  Ca1KG25580   9.252   4.720   1.932
    1CAL  Ca1KH25581   9.751   3.516   1.932
    1CAL  Ca1KI25582   9.004   3.220   2.237
    1CAL  Ca1KJ25583   8.750   3.516   1.932
    1CAL  Ca1KK25584   8.505   4.023   2.236
    1CAL  Ca1KL25585   8.502   3.422   1.624
    1CAL  Ca1KM25586   8.752   3.325   1.317
    1CAL  Ca1KN25587   9.252   4.530   1.318
    1CAL  Ca1KO25588   9.251   3.516   1.932
    1CAL  Ca1KP25589   8.998   3.621   2.237
    1CAL  Ca1KQ25590   8.752   4.530   1.318
    1CAL  Ca1KR25591   8.998   4.424   2.237
    1CAL  Ca1KS25592   8.252   4.530   1.318
    1CAL  Ca1KT25593   9.502   3.422   1.624
    1CAL  Ca1KU25594   9.505   4.023   2.236
    1CAL  Ca1KV25595   9.504   3.219   2.237
    1CAL  Ca1KW25596   8.752   3.918   1.932
    1CAL  Ca1KX25597   9.752   4.721   1.932
    1CAL  Ca1KY25598   9.252   3.918   1.932
    1CAL  Ca1KZ25599   8.251   3.516   1.932
    1CAL  Ca1Ka25600  10.002   4.225   1.623
    1CAL  C01Kb25601  10.002   4.730   2.545
    1CAL  C01Kc25602   9.252   3.220   2.852
    1CAL  C01Kd25603   8.252   3.220   2.852
    1CAL  C01Ke25604   9.501   3.718   3.158
    1CAL  C01Kf25605   9.501   4.521   3.158
    1CAL  C01Kg25606   8.752   3.220   2.852
    1CAL  C01Kh25607   9.002   3.928   2.545
    1CAL  C01Ki25608   9.252   4.425   2.849
    1CAL  C01Kj25609   8.752   4.425   2.850
    1CAL  C01Kk25610   8.502   4.120   3.159
    1CAL  C01Kl25611   8.502   3.526   2.545
    1CAL  C01Km25612   9.002   4.330   2.545
    1CAL  C01Kn25613   9.002   3.526   2.545
    1CAL  C01Ko25614   8.252   3.623   2.852
    1CAL  C01Kp25615   8.502   3.316   3.159
    1CAL  C01Kq25616   9.002   4.120   3.158
    1CAL  C01Kr25617   9.752   3.220   2.852
    1CAL  C01Ks25618   9.502   3.316   3.159
    1CAL  C01Kt25619   8.252   4.025   2.852
    1CAL  C01Ku25620  10.001   3.718   3.159
    1CAL  C01Kv25621  10.002   4.120   3.158
    1CAL  C01Kw25622  10.002   3.526   2.545
    1CAL  C01Kx25623  10.002   4.330   2.545
    1CAL  C01Ky25624   8.252   4.425   2.850
    1CAL  C01Kz25625   8.501   3.718   3.158
    1CAL  C01L025626   9.502   3.928   2.545
    1CAL  C01L125627  10.002   3.928   2.545
    1CAL  C01L225628   9.752   3.623   2.852
    1CAL  C01L325629   9.252   3.623   2.852
    1CAL  C01L425630   9.502   3.526   2.545
    1CAL  C01L525631   9.502   4.120   3.158
    1CAL  C01L625632   8.500   4.521   3.158
    1CAL  C01L725633   9.502   4.730   2.545
    1CAL  C01L825634   8.752   3.623   2.852
    1CAL  C01L925635   9.252   4.025   2.852
    1CAL  C01LA25636   8.502   4.330   2.545
    1CAL  C01LB25637   9.752   4.425   2.849
    1CAL  C01LC25638   9.002   4.730   2.545
    1CAL  C01LD25639  10.001   4.521   3.159
    1CAL  C01LE25640   9.002   3.316   3.158
    1CAL  C01LF25641   9.001   4.521   3.158
    1CAL  C01LG25642   9.001   3.718   3.159
    1CAL  C01LH25643   9.752   4.025   2.852
    1CAL  C01LI25644   8.502   4.730   2.545
    1CAL  C01LJ25645   9.502   4.330   2.545
    1CAL  C01LK25646   8.502   3.928   2.545
    1CAL  C01LL25647   8.752   4.025   2.852
    1CAL  C01LM25648  10.002   3.316   3.159
    1CAL  C01LN25649   8.753   3.816   3.469
    1CAL  C01LO25650   8.749   3.415   3.469
    1CAL  C01LP25651   8.749   4.218   3.468
    1CAL  C01LQ25652   8.753   4.619   3.469
    1CAL  C01LR25653   9.753   3.816   3.469
    1CAL  C01LS25654   9.749   3.415   3.469
    1CAL  C01LT25655   9.753   4.619   3.469
    1CAL  C01LU25656   9.750   4.218   3.468
    1CAL  C01LV25657   9.253   4.619   3.469
    1CAL  C01LW25658   9.250   4.217   3.469
    1CAL  C01LX25659   9.253   3.816   3.469
    1CAL  C01LY25660   9.249   3.414   3.470
    1CAL  C01LZ25661   8.253   4.619   3.470
    1CAL  C01La25662   8.250   4.217   3.470
    1CAL  C01Lb25663   8.253   3.817   3.469
    1CAL  C01Lc25664   8.249   3.414   3.471
    1CAL  O03zl25665   8.187   3.947   2.931
    1CAL  O03zm25666   9.188   4.104   2.773
    1CAL  O03zn25667   9.187   3.947   2.931
    1CAL  O03zo25668   9.381   4.025   2.853
    1CAL  O03zp25669   8.566   4.651   2.624
    1CAL  O03zq25670   8.373   4.731   2.544
    1CAL  O03zr25671   8.566   4.007   2.466
    1CAL  O03zs25672   8.688   4.104   2.773
    1CAL  O03zt25673   8.687   3.947   2.931
    1CAL  O03zu25674   8.881   4.025   2.853
    1CAL  O03zv25675   8.567   4.808   2.466
    1CAL  O03zw25676   8.566   3.850   2.624
    1CAL  O03zx25677   8.373   3.928   2.545
    1CAL  O03zy25678   9.130   4.520   3.159
    1CAL  O03zz25679   8.937   4.599   3.078
    1CAL  O040025680   8.938   3.797   3.078
    1CAL  O040125681   8.935   3.640   3.238
    1CAL  O040225682   9.130   3.717   3.160
    1CAL  O040325683   8.935   4.443   3.238
    1CAL  O040425684   8.623   3.623   2.852
    1CAL  O040525685   9.065   4.199   3.078
    1CAL  O040625686   9.124   4.425   2.849
    1CAL  O040725687   9.316   4.346   2.929
    1CAL  O040825688   9.317   4.503   2.771
    1CAL  O040925689   8.438   3.447   2.624
    1CAL  O040A25690   8.437   3.604   2.466
    1CAL  O040B25691   8.623   4.425   2.849
    1CAL  O040C25692   8.816   4.346   2.929
    1CAL  O040D25693   8.817   4.503   2.771
    1CAL  O040E25694   8.316   3.702   2.773
    1CAL  O040F25695   8.816   3.544   2.931
    1CAL  O040G25696   8.938   4.409   2.465
    1CAL  O040H25697   9.131   4.330   2.545
    1CAL  O040I25698   8.316   3.544   2.932
    1CAL  O040J25699   8.123   3.623   2.852
    1CAL  O040K25700   8.816   3.702   2.773
    1CAL  O040L25701   8.938   3.605   2.465
    1CAL  O040M25702   8.938   3.447   2.624
    1CAL  O040N25703   9.131   3.526   2.545
    1CAL  O040O25704   8.872   4.119   3.159
    1CAL  O040P25705   9.068   4.042   3.237
    1CAL  O040Q25706   8.937   4.252   2.624
    1CAL  O040R25707   9.688   4.104   2.773
    1CAL  O040S25708   9.687   3.947   2.931
    1CAL  O040T25709   9.881   4.025   2.853
    1CAL  O040U25710   9.936   4.442   3.238
    1CAL  O040V25711   9.938   3.797   3.079
    1CAL  O040W25712   9.936   3.639   3.238
    1CAL  O040X25713   8.130   4.520   3.160
    1CAL  O040Y25714   8.066   3.395   3.079
    1CAL  O040Z25715   9.438   4.409   2.465
    1CAL  O040a25716   9.437   4.252   2.624
    1CAL  O040b25717   9.631   4.330   2.545
    1CAL  O040c25718   8.067   3.238   3.239
    1CAL  O040d25719   9.436   4.443   3.238
    1CAL  O040e25720   8.067   4.808   2.466
    1CAL  O040f25721   8.066   4.651   2.624
    1CAL  O040g25722   8.873   4.731   2.544
    1CAL  O040h25723   9.873   4.119   3.160
    1CAL  O040i25724   9.938   3.447   2.624
    1CAL  O040j25725   9.066   3.395   3.079
    1CAL  O040k25726   8.438   4.409   2.465
    1CAL  O040l25727   8.437   4.252   2.624
    1CAL  O040m25728   8.631   4.330   2.545
    1CAL  O040n25729   9.067   3.237   3.238
    1CAL  O040o25730   8.435   4.443   3.238
    1CAL  O040p25731   8.873   3.316   3.159
    1CAL  O040q25732   9.874   3.928   2.545
    1CAL  O040r25733   9.067   4.808   2.466
    1CAL  O040s25734   9.066   4.651   2.624
    1CAL  O040t25735   9.624   4.425   2.849
    1CAL  O040u25736   9.816   4.346   2.929
    1CAL  O040v25737   9.817   4.503   2.770
    1CAL  O040w25738   9.939   4.409   2.465
    1CAL  O040x25739   9.937   4.252   2.624
    1CAL  O040y25740   9.938   3.605   2.465
    1CAL  O040z25741   8.631   3.526   2.544
    1CAL  O041025742   8.381   4.025   2.853
    1CAL  O041125743   8.372   4.119   3.162
    1CAL  O041225744   9.067   3.850   2.624
    1CAL  O041325745   9.566   4.651   2.624
    1CAL  O041425746   9.567   4.808   2.466
    1CAL  O041525747   9.624   3.623   2.852
    1CAL  O041625748   9.817   3.544   2.931
    1CAL  O041725749   9.374   4.731   2.544
    1CAL  O041825750   9.123   3.623   2.852
    1CAL  O041925751   9.316   3.702   2.773
    1CAL  O041A25752   8.630   4.520   3.159
    1CAL  O041B25753   9.438   3.604   2.466
    1CAL  O041C25754   9.438   3.447   2.624
    1CAL  O041D25755   9.631   3.526   2.544
    1CAL  O041E25756   9.373   4.119   3.161
    1CAL  O041F25757   9.568   4.042   3.237
    1CAL  O041G25758   9.317   3.544   2.931
    1CAL  O041H25759   9.565   4.200   3.078
    1CAL  O041I25760   8.067   3.850   2.624
    1CAL  O041J25761   9.567   3.850   2.624
    1CAL  O041K25762   8.188   4.104   2.773
    1CAL  O041L25763   8.065   4.200   3.078
    1CAL  O041M25764   8.067   4.042   3.238
    1CAL  O041N25765   8.130   3.717   3.160
    1CAL  O041O25766   8.131   3.526   2.545
    1CAL  O041P25767   8.130   4.330   2.545
    1CAL  O041Q25768   9.566   4.007   2.466
    1CAL  O041R25769   8.317   4.503   2.771
    1CAL  O041S25770   9.874   4.731   2.544
    1CAL  O041T25771   9.873   3.316   3.160
    1CAL  O041U25772   8.123   4.425   2.849
    1CAL  O041V25773   9.937   4.599   3.078
    1CAL  O041W25774   8.066   4.007   2.466
    1CAL  O041X25775   9.374   3.928   2.545
    1CAL  O041Y25776   8.316   4.346   2.929
    1CAL  O041Z25777   8.436   4.600   3.078
    1CAL  O041a25778   8.630   3.717   3.159
    1CAL  O041b25779   9.373   3.315   3.161
    1CAL  O041c25780   9.438   3.797   3.078
    1CAL  O041d25781   9.436   3.640   3.238
    1CAL  O041e25782   9.631   3.717   3.159
    1CAL  O041f25783   8.881   3.220   2.852
    1CAL  O041g25784   8.688   4.748   2.931
    1CAL  O041h25785   9.436   4.599   3.078
    1CAL  O041i25786   9.630   4.520   3.158
    1CAL  O041j25787   8.688   3.299   2.773
    1CAL  O041k25788   8.565   3.395   3.079
    1CAL  O041l25789   8.568   3.238   3.238
    1CAL  O041m25790   8.372   3.316   3.161
    1CAL  O041n25791   8.564   4.200   3.078
    1CAL  O041o25792   8.569   4.042   3.238
    1CAL  O041p25793   8.873   3.928   2.545
    1CAL  O041q25794   9.568   3.237   3.238
    1CAL  O041r25795   9.566   3.395   3.079
    1CAL  O041s25796   8.435   3.640   3.238
    1CAL  O041t25797   8.437   3.798   3.079
    1CAL  O041u25798   9.688   3.299   2.773
    1CAL  O041v25799   9.688   4.748   2.931
    1CAL  O041w25800   9.881   3.220   2.852
    1CAL  O041x25801   8.381   3.221   2.852
    1CAL  O041y25802   8.188   4.748   2.931
    1CAL  O041z25803   8.187   3.299   2.773
    1CAL  O042025804   9.188   3.299   2.773
    1CAL  O042125805   9.188   4.748   2.931
    1CAL  O042225806   9.381   3.221   2.852
    1CAL  O042325807   9.066   4.007   2.466
    1CAL  O042425808   9.817   3.702   2.773
    1CAL  O042525809   8.822   4.693   3.387
    1CAL  O042625810   8.813   4.541   3.553
    1CAL  O042725811   8.623   4.625   3.467
    1CAL  O042825812   8.680   4.292   3.386
    1CAL  O042925813   8.689   4.141   3.552
    1CAL  O042A25814   8.879   4.223   3.465
    1CAL  O042B25815   8.879   3.420   3.466
    1CAL  O042C25816   8.689   3.337   3.553
    1CAL  O042D25817   8.680   3.488   3.387
    1CAL  O042E25818   8.623   3.822   3.466
    1CAL  O042F25819   8.813   3.738   3.552
    1CAL  O042G25820   8.822   3.890   3.387
    1CAL  O042H25821   9.681   4.292   3.386
    1CAL  O042I25822   9.879   4.223   3.466
    1CAL  O042J25823   9.689   4.140   3.552
    1CAL  O042K25824   9.624   4.624   3.466
    1CAL  O042L25825   9.813   4.541   3.552
    1CAL  O042M25826   9.822   4.693   3.387
    1CAL  O042N25827   9.680   3.488   3.387
    1CAL  O042O25828   9.879   3.420   3.466
    1CAL  O042P25829   9.689   3.337   3.553
    1CAL  O042Q25830   9.623   3.821   3.466
    1CAL  O042R25831   9.813   3.738   3.552
    1CAL  O042S25832   9.822   3.890   3.387
    1CAL  O042T25833   9.313   4.541   3.553
    1CAL  O042U25834   9.123   4.624   3.467
    1CAL  O042V25835   9.322   4.692   3.387
    1CAL  O042W25836   9.181   4.291   3.387
    1CAL  O042X25837   9.190   4.139   3.553
    1CAL  O042Y25838   9.380   4.223   3.467
    1CAL  O042Z25839   9.313   3.738   3.553
    1CAL  O042a25840   9.322   3.889   3.387
    1CAL  O042b25841   9.123   3.822   3.466
    1CAL  O042c25842   9.181   3.488   3.388
    1CAL  O042d25843   9.189   3.336   3.553
    1CAL  O042e25844   9.379   3.420   3.468
    1CAL  O042f25845   8.312   4.541   3.554
    1CAL  O042g25846   8.123   4.625   3.467
    1CAL  O042h25847   8.322   4.692   3.388
    1CAL  O042i25848   8.181   4.291   3.388
    1CAL  O042j25849   8.190   4.139   3.553
    1CAL  O042k25850   8.380   4.223   3.469
    1CAL  O042l25851   8.312   3.739   3.554
    1CAL  O042m25852   8.123   3.822   3.466
    1CAL  O042n25853   8.322   3.890   3.387
    1CAL  O042o25854   8.379   3.420   3.469
    1CAL  O042p25855   8.189   3.336   3.554
    1CAL  O042q25856   8.181   3.488   3.389
    1CAL  Ca1Kb25857   9.004   4.023   3.464
    1CAL  Ca1Kc25858   9.752   3.727   2.545
    1CAL  Ca1Kd25859   9.498   4.424   3.465
    1CAL  Ca1Ke25860   8.004   4.023   3.465
    1CAL  Ca1Kf25861   8.752   4.720   3.160
    1CAL  Ca1Kg25862   9.752   4.129   2.545
    1CAL  Ca1Kh25863   9.502   3.824   2.852
    1CAL  Ca1Ki25864   9.502   4.626   2.852
    1CAL  Ca1Kj25865   8.251   4.319   3.159
    1CAL  Ca1Kk25866   9.002   4.626   2.852
    1CAL  Ca1Kl25867   8.504   3.220   3.465
    1CAL  Ca1Km25868   8.252   3.727   2.545
    1CAL  Ca1Kn25869   8.252   3.918   3.160
    1CAL  Ca1Ko25870   9.999   3.621   3.465
    1CAL  Ca1Kp25871   9.999   4.424   3.465
    1CAL  Ca1Kq25872   9.751   4.319   3.158
    1CAL  Ca1Kr25873   9.252   3.325   2.545
    1CAL  Ca1Ks25874  10.002   4.626   2.852
    1CAL  Ca1Kt25875   9.752   3.325   2.545
    1CAL  Ca1Ku25876   8.497   3.622   3.465
    1CAL  Ca1Kv25877   8.004   3.220   3.466
    1CAL  Ca1Kw25878   9.753   3.918   3.160
    1CAL  Ca1Kx25879   8.252   4.129   2.545
    1CAL  Ca1Ky25880  10.002   3.824   2.852
    1CAL  Ca1Kz25881   9.502   4.225   2.851
    1CAL  Ca1L025882   8.252   4.721   3.160
    1CAL  Ca1L125883   9.752   4.530   2.546
    1CAL  Ca1L225884   8.502   4.225   2.851
    1CAL  Ca1L325885   8.498   4.425   3.465
    1CAL  Ca1L425886  10.002   3.422   2.852
    1CAL  Ca1L525887   8.502   4.626   2.852
    1CAL  Ca1L625888   9.498   3.621   3.465
    1CAL  Ca1L725889   9.252   4.129   2.545
    1CAL  Ca1L825890   8.752   4.129   2.545
    1CAL  Ca1L925891   9.002   3.422   2.852
    1CAL  Ca1LA25892   9.002   4.225   2.851
    1CAL  Ca1LB25893   8.502   3.824   2.852
    1CAL  Ca1LC25894   9.002   3.824   2.852
    1CAL  Ca1LD25895   8.751   4.319   3.159
    1CAL  Ca1LE25896   8.252   3.325   2.545
    1CAL  Ca1LF25897   8.752   3.727   2.545
    1CAL  Ca1LG25898   9.252   3.727   2.545
    1CAL  Ca1LH25899   9.251   4.319   3.159
    1CAL  Ca1LI25900   9.252   4.720   3.160
    1CAL  Ca1LJ25901   9.751   3.516   3.160
    1CAL  Ca1LK25902   9.004   3.220   3.465
    1CAL  Ca1LL25903   8.750   3.516   3.160
    1CAL  Ca1LM25904   8.505   4.023   3.464
    1CAL  Ca1LN25905   8.502   3.422   2.852
    1CAL  Ca1LO25906   8.752   3.325   2.545
    1CAL  Ca1LP25907   9.252   4.530   2.546
    1CAL  Ca1LQ25908   9.251   3.516   3.160
    1CAL  Ca1LR25909   8.998   3.621   3.465
    1CAL  Ca1LS25910   8.752   4.530   2.546
    1CAL  Ca1LT25911   8.998   4.424   3.465
    1CAL  Ca1LU25912   8.252   4.530   2.546
    1CAL  Ca1LV25913   9.502   3.422   2.852
    1CAL  Ca1LW25914   9.505   4.023   3.464
    1CAL  Ca1LX25915   9.504   3.219   3.465
    1CAL  Ca1LY25916   8.752   3.918   3.160
    1CAL  Ca1LZ25917   9.752   4.721   3.160
    1CAL  Ca1La25918   9.252   3.918   3.160
    1CAL  Ca1Lb25919   8.251   3.516   3.160
    1CAL  Ca1Lc25920  10.002   4.225   2.851
    1CAL  C01Ld25921  10.002   6.336   0.089
    1CAL  C01Le25922   9.252   4.826   0.396
    1CAL  C01Lf25923   8.252   4.826   0.396
    1CAL  C01Lg25924   9.501   5.324   0.702
    1CAL  C01Lh25925   9.501   6.127   0.702
    1CAL  C01Li25926   8.752   4.826   0.396
    1CAL  C01Lj25927   9.002   5.534   0.089
    1CAL  C01Lk25928   9.252   6.031   0.393
    1CAL  C01Ll25929   8.752   6.031   0.394
    1CAL  C01Lm25930   8.502   5.726   0.703
    1CAL  C01Ln25931   8.502   5.132   0.089
    1CAL  C01Lo25932   9.002   5.936   0.089
    1CAL  C01Lp25933   9.002   5.132   0.089
    1CAL  C01Lq25934   8.252   5.229   0.396
    1CAL  C01Lr25935   8.502   4.922   0.703
    1CAL  C01Ls25936   9.002   5.726   0.702
    1CAL  C01Lt25937   9.752   4.826   0.396
    1CAL  C01Lu25938   9.502   4.922   0.703
    1CAL  C01Lv25939   8.252   5.631   0.396
    1CAL  C01Lw25940  10.001   5.324   0.703
    1CAL  C01Lx25941  10.002   5.726   0.702
    1CAL  C01Ly25942  10.002   5.132   0.089
    1CAL  C01Lz25943  10.002   5.936   0.089
    1CAL  C01M025944   8.252   6.031   0.394
    1CAL  C01M125945   8.501   5.324   0.702
    1CAL  C01M225946   9.502   5.534   0.089
    1CAL  C01M325947  10.002   5.534   0.089
    1CAL  C01M425948   9.752   5.229   0.396
    1CAL  C01M525949   9.252   5.229   0.396
    1CAL  C01M625950   9.502   5.132   0.089
    1CAL  C01M725951   9.502   5.726   0.702
    1CAL  C01M825952   8.500   6.127   0.702
    1CAL  C01M925953   9.502   6.336   0.089
    1CAL  C01MA25954   8.752   5.229   0.396
    1CAL  C01MB25955   9.252   5.631   0.396
    1CAL  C01MC25956   8.502   5.936   0.089
    1CAL  C01MD25957   9.752   6.031   0.393
    1CAL  C01ME25958   9.002   6.336   0.089
    1CAL  C01MF25959  10.001   6.127   0.703
    1CAL  C01MG25960   9.002   4.922   0.702
    1CAL  C01MH25961   9.001   6.127   0.702
    1CAL  C01MI25962   9.001   5.324   0.703
    1CAL  C01MJ25963   9.752   5.631   0.396
    1CAL  C01MK25964   8.502   6.336   0.089
    1CAL  C01ML25965   9.502   5.936   0.089
    1CAL  C01MM25966   8.502   5.534   0.089
    1CAL  C01MN25967   8.752   5.631   0.396
    1CAL  C01MO25968  10.002   4.922   0.703
    1CAL  C01MP25969   8.753   5.422   1.013
    1CAL  C01MQ25970   8.749   5.021   1.013
    1CAL  C01MR25971   8.749   5.824   1.012
    1CAL  C01MS25972   8.753   6.225   1.013
    1CAL  C01MT25973   9.753   5.422   1.013
    1CAL  C01MU25974   9.749   5.021   1.013
    1CAL  C01MV25975   9.753   6.225   1.013
    1CAL  C01MW25976   9.750   5.824   1.012
    1CAL  C01MX25977   9.253   6.225   1.013
    1CAL  C01MY25978   9.250   5.823   1.013
    1CAL  C01MZ25979   9.253   5.422   1.013
    1CAL  C01Ma25980   9.249   5.020   1.014
    1CAL  C01Mb25981   8.253   6.225   1.014
    1CAL  C01Mc25982   8.250   5.823   1.014
    1CAL  C01Md25983   8.253   5.423   1.013
    1CAL  C01Me25984   8.249   5.020   1.015
    1CAL  O042r25985   8.187   5.553   0.475
    1CAL  O042s25986   9.188   5.710   0.317
    1CAL  O042t25987   9.187   5.553   0.475
    1CAL  O042u25988   9.381   5.631   0.397
    1CAL  O042v25989   8.566   6.257   0.168
    1CAL  O042w25990   8.373   6.337   0.088
    1CAL  O042x25991   8.566   5.613   0.010
    1CAL  O042y25992   8.688   5.710   0.317
    1CAL  O042z25993   8.687   5.553   0.475
    1CAL  O043025994   8.881   5.631   0.397
    1CAL  O043125995   8.567   6.414   0.010
    1CAL  O043225996   8.566   5.456   0.168
    1CAL  O043325997   8.373   5.534   0.089
    1CAL  O043425998   9.130   6.126   0.703
    1CAL  O043525999   8.937   6.205   0.622
    1CAL  O043626000   8.938   5.403   0.622
    1CAL  O043726001   8.935   5.246   0.782
    1CAL  O043826002   9.130   5.323   0.704
    1CAL  O043926003   8.935   6.049   0.782
    1CAL  O043A26004   8.623   5.229   0.396
    1CAL  O043B26005   9.065   5.805   0.622
    1CAL  O043C26006   9.124   6.031   0.393
    1CAL  O043D26007   9.316   5.952   0.473
    1CAL  O043E26008   9.317   6.109   0.315
    1CAL  O043F26009   8.438   5.053   0.168
    1CAL  O043G26010   8.437   5.210   0.010
    1CAL  O043H26011   8.623   6.031   0.393
    1CAL  O043I26012   8.816   5.952   0.473
    1CAL  O043J26013   8.817   6.109   0.315
    1CAL  O043K26014   8.316   5.308   0.317
    1CAL  O043L26015   8.816   5.150   0.475
    1CAL  O043M26016   8.938   6.015   0.009
    1CAL  O043N26017   9.131   5.936   0.089
    1CAL  O043O26018   8.316   5.150   0.476
    1CAL  O043P26019   8.123   5.229   0.396
    1CAL  O043Q26020   8.816   5.308   0.317
    1CAL  O043R26021   8.938   5.211   0.009
    1CAL  O043S26022   8.938   5.053   0.168
    1CAL  O043T26023   9.131   5.132   0.089
    1CAL  O043U26024   8.872   5.725   0.703
    1CAL  O043V26025   9.068   5.648   0.781
    1CAL  O043W26026   8.937   5.858   0.168
    1CAL  O043X26027   9.688   5.710   0.317
    1CAL  O043Y26028   9.687   5.553   0.475
    1CAL  O043Z26029   9.881   5.631   0.397
    1CAL  O043a26030   9.936   6.048   0.782
    1CAL  O043b26031   9.938   5.403   0.623
    1CAL  O043c26032   9.936   5.245   0.782
    1CAL  O043d26033   8.130   6.126   0.704
    1CAL  O043e26034   8.066   5.001   0.623
    1CAL  O043f26035   9.438   6.015   0.009
    1CAL  O043g26036   9.437   5.858   0.168
    1CAL  O043h26037   9.631   5.936   0.089
    1CAL  O043i26038   8.067   4.844   0.783
    1CAL  O043j26039   9.436   6.049   0.782
    1CAL  O043k26040   8.067   6.414   0.010
    1CAL  O043l26041   8.066   6.257   0.168
    1CAL  O043m26042   8.873   6.337   0.088
    1CAL  O043n26043   9.873   5.725   0.704
    1CAL  O043o26044   9.938   5.053   0.168
    1CAL  O043p26045   9.066   5.001   0.623
    1CAL  O043q26046   8.438   6.015   0.009
    1CAL  O043r26047   8.437   5.858   0.168
    1CAL  O043s26048   8.631   5.936   0.089
    1CAL  O043t26049   9.067   4.843   0.782
    1CAL  O043u26050   8.435   6.049   0.782
    1CAL  O043v26051   8.873   4.922   0.703
    1CAL  O043w26052   9.874   5.534   0.089
    1CAL  O043x26053   9.067   6.414   0.010
    1CAL  O043y26054   9.066   6.257   0.168
    1CAL  O043z26055   9.624   6.031   0.393
    1CAL  O044026056   9.816   5.952   0.473
    1CAL  O044126057   9.817   6.109   0.314
    1CAL  O044226058   9.939   6.015   0.009
    1CAL  O044326059   9.937   5.858   0.168
    1CAL  O044426060   9.938   5.211   0.009
    1CAL  O044526061   8.631   5.132   0.088
    1CAL  O044626062   8.381   5.631   0.397
    1CAL  O044726063   8.372   5.725   0.706
    1CAL  O044826064   9.067   5.456   0.168
    1CAL  O044926065   9.566   6.257   0.168
    1CAL  O044A26066   9.567   6.414   0.010
    1CAL  O044B26067   9.624   5.229   0.396
    1CAL  O044C26068   9.817   5.150   0.475
    1CAL  O044D26069   9.374   6.337   0.088
    1CAL  O044E26070   9.123   5.229   0.396
    1CAL  O044F26071   9.316   5.308   0.317
    1CAL  O044G26072   8.630   6.126   0.703
    1CAL  O044H26073   9.438   5.210   0.010
    1CAL  O044I26074   9.438   5.053   0.168
    1CAL  O044J26075   9.631   5.132   0.088
    1CAL  O044K26076   9.373   5.725   0.705
    1CAL  O044L26077   9.568   5.648   0.781
    1CAL  O044M26078   9.317   5.150   0.475
    1CAL  O044N26079   9.565   5.806   0.622
    1CAL  O044O26080   8.067   5.456   0.168
    1CAL  O044P26081   9.567   5.456   0.168
    1CAL  O044Q26082   8.188   5.710   0.317
    1CAL  O044R26083   8.065   5.806   0.622
    1CAL  O044S26084   8.067   5.648   0.782
    1CAL  O044T26085   8.130   5.323   0.704
    1CAL  O044U26086   8.131   5.132   0.089
    1CAL  O044V26087   8.130   5.936   0.089
    1CAL  O044W26088   9.566   5.613   0.010
    1CAL  O044X26089   8.317   6.109   0.315
    1CAL  O044Y26090   9.874   6.337   0.088
    1CAL  O044Z26091   9.873   4.922   0.704
    1CAL  O044a26092   8.123   6.031   0.393
    1CAL  O044b26093   9.937   6.205   0.622
    1CAL  O044c26094   8.066   5.613   0.010
    1CAL  O044d26095   9.374   5.534   0.089
    1CAL  O044e26096   8.316   5.952   0.473
    1CAL  O044f26097   8.436   6.206   0.622
    1CAL  O044g26098   8.630   5.323   0.703
    1CAL  O044h26099   9.373   4.921   0.705
    1CAL  O044i26100   9.438   5.403   0.622
    1CAL  O044j26101   9.436   5.246   0.782
    1CAL  O044k26102   9.631   5.323   0.703
    1CAL  O044l26103   8.881   4.826   0.396
    1CAL  O044m26104   8.688   6.354   0.475
    1CAL  O044n26105   9.436   6.205   0.622
    1CAL  O044o26106   9.630   6.126   0.702
    1CAL  O044p26107   8.688   4.905   0.317
    1CAL  O044q26108   8.565   5.001   0.623
    1CAL  O044r26109   8.568   4.844   0.782
    1CAL  O044s26110   8.372   4.922   0.705
    1CAL  O044t26111   8.564   5.806   0.622
    1CAL  O044u26112   8.569   5.648   0.782
    1CAL  O044v26113   8.873   5.534   0.089
    1CAL  O044w26114   9.568   4.843   0.782
    1CAL  O044x26115   9.566   5.001   0.623
    1CAL  O044y26116   8.435   5.246   0.782
    1CAL  O044z26117   8.437   5.404   0.623
    1CAL  O045026118   9.688   4.905   0.317
    1CAL  O045126119   9.688   6.354   0.475
    1CAL  O045226120   9.881   4.826   0.396
    1CAL  O045326121   8.381   4.827   0.396
    1CAL  O045426122   8.188   6.354   0.475
    1CAL  O045526123   8.187   4.905   0.317
    1CAL  O045626124   9.188   4.905   0.317
    1CAL  O045726125   9.188   6.354   0.475
    1CAL  O045826126   9.381   4.827   0.396
    1CAL  O045926127   9.066   5.613   0.010
    1CAL  O045A26128   9.817   5.308   0.317
    1CAL  O045B26129   8.822   6.299   0.931
    1CAL  O045C26130   8.813   6.147   1.097
    1CAL  O045D26131   8.623   6.231   1.011
    1CAL  O045E26132   8.680   5.898   0.930
    1CAL  O045F26133   8.689   5.747   1.096
    1CAL  O045G26134   8.879   5.829   1.009
    1CAL  O045H26135   8.879   5.026   1.010
    1CAL  O045I26136   8.689   4.943   1.097
    1CAL  O045J26137   8.680   5.094   0.931
    1CAL  O045K26138   8.623   5.428   1.010
    1CAL  O045L26139   8.813   5.344   1.096
    1CAL  O045M26140   8.822   5.496   0.931
    1CAL  O045N26141   9.681   5.898   0.930
    1CAL  O045O26142   9.879   5.829   1.010
    1CAL  O045P26143   9.689   5.746   1.096
    1CAL  O045Q26144   9.624   6.230   1.010
    1CAL  O045R26145   9.813   6.147   1.096
    1CAL  O045S26146   9.822   6.299   0.931
    1CAL  O045T26147   9.680   5.094   0.931
    1CAL  O045U26148   9.879   5.026   1.010
    1CAL  O045V26149   9.689   4.943   1.097
    1CAL  O045W26150   9.623   5.427   1.010
    1CAL  O045X26151   9.813   5.344   1.096
    1CAL  O045Y26152   9.822   5.496   0.931
    1CAL  O045Z26153   9.313   6.147   1.097
    1CAL  O045a26154   9.123   6.230   1.011
    1CAL  O045b26155   9.322   6.298   0.931
    1CAL  O045c26156   9.181   5.897   0.931
    1CAL  O045d26157   9.190   5.745   1.097
    1CAL  O045e26158   9.380   5.829   1.011
    1CAL  O045f26159   9.313   5.344   1.097
    1CAL  O045g26160   9.322   5.495   0.931
    1CAL  O045h26161   9.123   5.428   1.010
    1CAL  O045i26162   9.181   5.094   0.932
    1CAL  O045j26163   9.189   4.942   1.097
    1CAL  O045k26164   9.379   5.026   1.012
    1CAL  O045l26165   8.312   6.147   1.098
    1CAL  O045m26166   8.123   6.231   1.011
    1CAL  O045n26167   8.322   6.298   0.932
    1CAL  O045o26168   8.181   5.897   0.932
    1CAL  O045p26169   8.190   5.745   1.097
    1CAL  O045q26170   8.380   5.829   1.013
    1CAL  O045r26171   8.312   5.345   1.098
    1CAL  O045s26172   8.123   5.428   1.010
    1CAL  O045t26173   8.322   5.496   0.931
    1CAL  O045u26174   8.379   5.026   1.013
    1CAL  O045v26175   8.189   4.942   1.098
    1CAL  O045w26176   8.181   5.094   0.933
    1CAL  Ca1Ld26177   9.004   5.629   1.008
    1CAL  Ca1Le26178   9.752   5.333   0.089
    1CAL  Ca1Lf26179   9.498   6.030   1.009
    1CAL  Ca1Lg26180   8.004   5.629   1.009
    1CAL  Ca1Lh26181   8.752   6.326   0.704
    1CAL  Ca1Li26182   9.752   5.735   0.089
    1CAL  Ca1Lj26183   9.502   5.430   0.396
    1CAL  Ca1Lk26184   9.502   6.232   0.396
    1CAL  Ca1Ll26185   8.251   5.925   0.703
    1CAL  Ca1Lm26186   9.002   6.232   0.396
    1CAL  Ca1Ln26187   8.504   4.826   1.009
    1CAL  Ca1Lo26188   8.252   5.333   0.089
    1CAL  Ca1Lp26189   8.252   5.524   0.704
    1CAL  Ca1Lq26190   9.999   5.227   1.009
    1CAL  Ca1Lr26191   9.999   6.030   1.009
    1CAL  Ca1Ls26192   9.751   5.925   0.702
    1CAL  Ca1Lt26193   9.252   4.931   0.089
    1CAL  Ca1Lu26194  10.002   6.232   0.396
    1CAL  Ca1Lv26195   9.752   4.931   0.089
    1CAL  Ca1Lw26196   8.497   5.228   1.009
    1CAL  Ca1Lx26197   8.004   4.826   1.010
    1CAL  Ca1Ly26198   9.753   5.524   0.704
    1CAL  Ca1Lz26199   8.252   5.735   0.089
    1CAL  Ca1M026200  10.002   5.430   0.396
    1CAL  Ca1M126201   9.502   5.831   0.395
    1CAL  Ca1M226202   8.252   6.327   0.704
    1CAL  Ca1M326203   9.752   6.136   0.090
    1CAL  Ca1M426204   8.502   5.831   0.395
    1CAL  Ca1M526205   8.498   6.031   1.009
    1CAL  Ca1M626206  10.002   5.028   0.396
    1CAL  Ca1M726207   8.502   6.232   0.396
    1CAL  Ca1M826208   9.498   5.227   1.009
    1CAL  Ca1M926209   9.252   5.735   0.089
    1CAL  Ca1MA26210   8.752   5.735   0.089
    1CAL  Ca1MB26211   9.002   5.028   0.396
    1CAL  Ca1MC26212   9.002   5.831   0.395
    1CAL  Ca1MD26213   8.502   5.430   0.396
    1CAL  Ca1ME26214   9.002   5.430   0.396
    1CAL  Ca1MF26215   8.751   5.925   0.703
    1CAL  Ca1MG26216   8.252   4.931   0.089
    1CAL  Ca1MH26217   8.752   5.333   0.089
    1CAL  Ca1MI26218   9.252   5.333   0.089
    1CAL  Ca1MJ26219   9.251   5.925   0.703
    1CAL  Ca1MK26220   9.252   6.326   0.704
    1CAL  Ca1ML26221   9.751   5.122   0.704
    1CAL  Ca1MM26222   9.004   4.826   1.009
    1CAL  Ca1MN26223   8.750   5.122   0.704
    1CAL  Ca1MO26224   8.505   5.629   1.008
    1CAL  Ca1MP26225   8.502   5.028   0.396
    1CAL  Ca1MQ26226   8.752   4.931   0.089
    1CAL  Ca1MR26227   9.252   6.136   0.090
    1CAL  Ca1MS26228   9.251   5.122   0.704
    1CAL  Ca1MT26229   8.998   5.227   1.009
    1CAL  Ca1MU26230   8.752   6.136   0.090
    1CAL  Ca1MV26231   8.998   6.030   1.009
    1CAL  Ca1MW26232   8.252   6.136   0.090
    1CAL  Ca1MX26233   9.502   5.028   0.396
    1CAL  Ca1MY26234   9.505   5.629   1.008
    1CAL  Ca1MZ26235   9.504   4.825   1.009
    1CAL  Ca1Ma26236   8.752   5.524   0.704
    1CAL  Ca1Mb26237   9.752   6.327   0.704
    1CAL  Ca1Mc26238   9.252   5.524   0.704
    1CAL  Ca1Md26239   8.251   5.122   0.704
    1CAL  Ca1Me26240  10.002   5.831   0.395
    1CAL  C01Mf26241  10.002   6.336   1.317
    1CAL  C01Mg26242   9.252   4.826   1.624
    1CAL  C01Mh26243   8.252   4.826   1.624
    1CAL  C01Mi26244   9.501   5.324   1.930
    1CAL  C01Mj26245   9.501   6.127   1.930
    1CAL  C01Mk26246   8.752   4.826   1.624
    1CAL  C01Ml26247   9.002   5.534   1.317
    1CAL  C01Mm26248   9.252   6.031   1.621
    1CAL  C01Mn26249   8.752   6.031   1.622
    1CAL  C01Mo26250   8.502   5.726   1.931
    1CAL  C01Mp26251   8.502   5.132   1.317
    1CAL  C01Mq26252   9.002   5.936   1.317
    1CAL  C01Mr26253   9.002   5.132   1.317
    1CAL  C01Ms26254   8.252   5.229   1.624
    1CAL  C01Mt26255   8.502   4.922   1.931
    1CAL  C01Mu26256   9.002   5.726   1.930
    1CAL  C01Mv26257   9.752   4.826   1.624
    1CAL  C01Mw26258   9.502   4.922   1.931
    1CAL  C01Mx26259   8.252   5.631   1.624
    1CAL  C01My26260  10.001   5.324   1.931
    1CAL  C01Mz26261  10.002   5.726   1.930
    1CAL  C01N026262  10.002   5.132   1.317
    1CAL  C01N126263  10.002   5.936   1.317
    1CAL  C01N226264   8.252   6.031   1.622
    1CAL  C01N326265   8.501   5.324   1.930
    1CAL  C01N426266   9.502   5.534   1.317
    1CAL  C01N526267  10.002   5.534   1.317
    1CAL  C01N626268   9.752   5.229   1.624
    1CAL  C01N726269   9.252   5.229   1.624
    1CAL  C01N826270   9.502   5.132   1.317
    1CAL  C01N926271   9.502   5.726   1.930
    1CAL  C01NA26272   8.500   6.127   1.930
    1CAL  C01NB26273   9.502   6.336   1.317
    1CAL  C01NC26274   8.752   5.229   1.624
    1CAL  C01ND26275   9.252   5.631   1.624
    1CAL  C01NE26276   8.502   5.936   1.317
    1CAL  C01NF26277   9.752   6.031   1.621
    1CAL  C01NG26278   9.002   6.336   1.317
    1CAL  C01NH26279  10.001   6.127   1.931
    1CAL  C01NI26280   9.002   4.922   1.930
    1CAL  C01NJ26281   9.001   6.127   1.930
    1CAL  C01NK26282   9.001   5.324   1.931
    1CAL  C01NL26283   9.752   5.631   1.624
    1CAL  C01NM26284   8.502   6.336   1.317
    1CAL  C01NN26285   9.502   5.936   1.317
    1CAL  C01NO26286   8.502   5.534   1.317
    1CAL  C01NP26287   8.752   5.631   1.624
    1CAL  C01NQ26288  10.002   4.922   1.931
    1CAL  C01NR26289   8.753   5.422   2.241
    1CAL  C01NS26290   8.749   5.021   2.241
    1CAL  C01NT26291   8.749   5.824   2.240
    1CAL  C01NU26292   8.753   6.225   2.241
    1CAL  C01NV26293   9.753   5.422   2.241
    1CAL  C01NW26294   9.749   5.021   2.241
    1CAL  C01NX26295   9.753   6.225   2.241
    1CAL  C01NY26296   9.750   5.824   2.240
    1CAL  C01NZ26297   9.253   6.225   2.241
    1CAL  C01Na26298   9.250   5.823   2.241
    1CAL  C01Nb26299   9.253   5.422   2.241
    1CAL  C01Nc26300   9.249   5.020   2.242
    1CAL  C01Nd26301   8.253   6.225   2.242
    1CAL  C01Ne26302   8.250   5.823   2.242
    1CAL  C01Nf26303   8.253   5.423   2.241
    1CAL  C01Ng26304   8.249   5.020   2.243
    1CAL  O045x26305   8.187   5.553   1.703
    1CAL  O045y26306   9.188   5.710   1.545
    1CAL  O045z26307   9.187   5.553   1.703
    1CAL  O046026308   9.381   5.631   1.625
    1CAL  O046126309   8.566   6.257   1.396
    1CAL  O046226310   8.373   6.337   1.316
    1CAL  O046326311   8.566   5.613   1.238
    1CAL  O046426312   8.688   5.710   1.545
    1CAL  O046526313   8.687   5.553   1.703
    1CAL  O046626314   8.881   5.631   1.625
    1CAL  O046726315   8.567   6.414   1.238
    1CAL  O046826316   8.566   5.456   1.396
    1CAL  O046926317   8.373   5.534   1.317
    1CAL  O046A26318   9.130   6.126   1.931
    1CAL  O046B26319   8.937   6.205   1.850
    1CAL  O046C26320   8.938   5.403   1.850
    1CAL  O046D26321   8.935   5.246   2.010
    1CAL  O046E26322   9.130   5.323   1.932
    1CAL  O046F26323   8.935   6.049   2.010
    1CAL  O046G26324   8.623   5.229   1.624
    1CAL  O046H26325   9.065   5.805   1.850
    1CAL  O046I26326   9.124   6.031   1.621
    1CAL  O046J26327   9.316   5.952   1.701
    1CAL  O046K26328   9.317   6.109   1.543
    1CAL  O046L26329   8.438   5.053   1.396
    1CAL  O046M26330   8.437   5.210   1.238
    1CAL  O046N26331   8.623   6.031   1.621
    1CAL  O046O26332   8.816   5.952   1.701
    1CAL  O046P26333   8.817   6.109   1.543
    1CAL  O046Q26334   8.316   5.308   1.545
    1CAL  O046R26335   8.816   5.150   1.703
    1CAL  O046S26336   8.938   6.015   1.237
    1CAL  O046T26337   9.131   5.936   1.317
    1CAL  O046U26338   8.316   5.150   1.704
    1CAL  O046V26339   8.123   5.229   1.624
    1CAL  O046W26340   8.816   5.308   1.545
    1CAL  O046X26341   8.938   5.211   1.237
    1CAL  O046Y26342   8.938   5.053   1.396
    1CAL  O046Z26343   9.131   5.132   1.317
    1CAL  O046a26344   8.872   5.725   1.931
    1CAL  O046b26345   9.068   5.648   2.009
    1CAL  O046c26346   8.937   5.858   1.396
    1CAL  O046d26347   9.688   5.710   1.545
    1CAL  O046e26348   9.687   5.553   1.703
    1CAL  O046f26349   9.881   5.631   1.625
    1CAL  O046g26350   9.936   6.048   2.010
    1CAL  O046h26351   9.938   5.403   1.851
    1CAL  O046i26352   9.936   5.245   2.010
    1CAL  O046j26353   8.130   6.126   1.932
    1CAL  O046k26354   8.066   5.001   1.851
    1CAL  O046l26355   9.438   6.015   1.237
    1CAL  O046m26356   9.437   5.858   1.396
    1CAL  O046n26357   9.631   5.936   1.317
    1CAL  O046o26358   8.067   4.844   2.011
    1CAL  O046p26359   9.436   6.049   2.010
    1CAL  O046q26360   8.067   6.414   1.238
    1CAL  O046r26361   8.066   6.257   1.396
    1CAL  O046s26362   8.873   6.337   1.316
    1CAL  O046t26363   9.873   5.725   1.932
    1CAL  O046u26364   9.938   5.053   1.396
    1CAL  O046v26365   9.066   5.001   1.851
    1CAL  O046w26366   8.438   6.015   1.237
    1CAL  O046x26367   8.437   5.858   1.396
    1CAL  O046y26368   8.631   5.936   1.317
    1CAL  O046z26369   9.067   4.843   2.010
    1CAL  O047026370   8.435   6.049   2.010
    1CAL  O047126371   8.873   4.922   1.931
    1CAL  O047226372   9.874   5.534   1.317
    1CAL  O047326373   9.067   6.414   1.238
    1CAL  O047426374   9.066   6.257   1.396
    1CAL  O047526375   9.624   6.031   1.621
    1CAL  O047626376   9.816   5.952   1.701
    1CAL  O047726377   9.817   6.109   1.542
    1CAL  O047826378   9.939   6.015   1.237
    1CAL  O047926379   9.937   5.858   1.396
    1CAL  O047A26380   9.938   5.211   1.237
    1CAL  O047B26381   8.631   5.132   1.316
    1CAL  O047C26382   8.381   5.631   1.625
    1CAL  O047D26383   8.372   5.725   1.934
    1CAL  O047E26384   9.067   5.456   1.396
    1CAL  O047F26385   9.566   6.257   1.396
    1CAL  O047G26386   9.567   6.414   1.238
    1CAL  O047H26387   9.624   5.229   1.624
    1CAL  O047I26388   9.817   5.150   1.703
    1CAL  O047J26389   9.374   6.337   1.316
    1CAL  O047K26390   9.123   5.229   1.624
    1CAL  O047L26391   9.316   5.308   1.545
    1CAL  O047M26392   8.630   6.126   1.931
    1CAL  O047N26393   9.438   5.210   1.238
    1CAL  O047O26394   9.438   5.053   1.396
    1CAL  O047P26395   9.631   5.132   1.316
    1CAL  O047Q26396   9.373   5.725   1.933
    1CAL  O047R26397   9.568   5.648   2.009
    1CAL  O047S26398   9.317   5.150   1.703
    1CAL  O047T26399   9.565   5.806   1.850
    1CAL  O047U26400   8.067   5.456   1.396
    1CAL  O047V26401   9.567   5.456   1.396
    1CAL  O047W26402   8.188   5.710   1.545
    1CAL  O047X26403   8.065   5.806   1.850
    1CAL  O047Y26404   8.067   5.648   2.010
    1CAL  O047Z26405   8.130   5.323   1.932
    1CAL  O047a26406   8.131   5.132   1.317
    1CAL  O047b26407   8.130   5.936   1.317
    1CAL  O047c26408   9.566   5.613   1.238
    1CAL  O047d26409   8.317   6.109   1.543
    1CAL  O047e26410   9.874   6.337   1.316
    1CAL  O047f26411   9.873   4.922   1.932
    1CAL  O047g26412   8.123   6.031   1.621
    1CAL  O047h26413   9.937   6.205   1.850
    1CAL  O047i26414   8.066   5.613   1.238
    1CAL  O047j26415   9.374   5.534   1.317
    1CAL  O047k26416   8.316   5.952   1.701
    1CAL  O047l26417   8.436   6.206   1.850
    1CAL  O047m26418   8.630   5.323   1.931
    1CAL  O047n26419   9.373   4.921   1.933
    1CAL  O047o26420   9.438   5.403   1.850
    1CAL  O047p26421   9.436   5.246   2.010
    1CAL  O047q26422   9.631   5.323   1.931
    1CAL  O047r26423   8.881   4.826   1.624
    1CAL  O047s26424   8.688   6.354   1.703
    1CAL  O047t26425   9.436   6.205   1.850
    1CAL  O047u26426   9.630   6.126   1.930
    1CAL  O047v26427   8.688   4.905   1.545
    1CAL  O047w26428   8.565   5.001   1.851
    1CAL  O047x26429   8.568   4.844   2.010
    1CAL  O047y26430   8.372   4.922   1.933
    1CAL  O047z26431   8.564   5.806   1.850
    1CAL  O048026432   8.569   5.648   2.010
    1CAL  O048126433   8.873   5.534   1.317
    1CAL  O048226434   9.568   4.843   2.010
    1CAL  O048326435   9.566   5.001   1.851
    1CAL  O048426436   8.435   5.246   2.010
    1CAL  O048526437   8.437   5.404   1.851
    1CAL  O048626438   9.688   4.905   1.545
    1CAL  O048726439   9.688   6.354   1.703
    1CAL  O048826440   9.881   4.826   1.624
    1CAL  O048926441   8.381   4.827   1.624
    1CAL  O048A26442   8.188   6.354   1.703
    1CAL  O048B26443   8.187   4.905   1.545
    1CAL  O048C26444   9.188   4.905   1.545
    1CAL  O048D26445   9.188   6.354   1.703
    1CAL  O048E26446   9.381   4.827   1.624
    1CAL  O048F26447   9.066   5.613   1.238
    1CAL  O048G26448   9.817   5.308   1.545
    1CAL  O048H26449   8.822   6.299   2.159
    1CAL  O048I26450   8.813   6.147   2.325
    1CAL  O048J26451   8.623   6.231   2.239
    1CAL  O048K26452   8.680   5.898   2.158
    1CAL  O048L26453   8.689   5.747   2.324
    1CAL  O048M26454   8.879   5.829   2.237
    1CAL  O048N26455   8.879   5.026   2.238
    1CAL  O048O26456   8.689   4.943   2.325
    1CAL  O048P26457   8.680   5.094   2.159
    1CAL  O048Q26458   8.623   5.428   2.238
    1CAL  O048R26459   8.813   5.344   2.324
    1CAL  O048S26460   8.822   5.496   2.159
    1CAL  O048T26461   9.681   5.898   2.158
    1CAL  O048U26462   9.879   5.829   2.238
    1CAL  O048V26463   9.689   5.746   2.324
    1CAL  O048W26464   9.624   6.230   2.238
    1CAL  O048X26465   9.813   6.147   2.324
    1CAL  O048Y26466   9.822   6.299   2.159
    1CAL  O048Z26467   9.680   5.094   2.159
    1CAL  O048a26468   9.879   5.026   2.238
    1CAL  O048b26469   9.689   4.943   2.325
    1CAL  O048c26470   9.623   5.427   2.238
    1CAL  O048d26471   9.813   5.344   2.324
    1CAL  O048e26472   9.822   5.496   2.159
    1CAL  O048f26473   9.313   6.147   2.325
    1CAL  O048g26474   9.123   6.230   2.239
    1CAL  O048h26475   9.322   6.298   2.159
    1CAL  O048i26476   9.181   5.897   2.159
    1CAL  O048j26477   9.190   5.745   2.325
    1CAL  O048k26478   9.380   5.829   2.239
    1CAL  O048l26479   9.313   5.344   2.325
    1CAL  O048m26480   9.322   5.495   2.159
    1CAL  O048n26481   9.123   5.428   2.238
    1CAL  O048o26482   9.181   5.094   2.160
    1CAL  O048p26483   9.189   4.942   2.325
    1CAL  O048q26484   9.379   5.026   2.240
    1CAL  O048r26485   8.312   6.147   2.326
    1CAL  O048s26486   8.123   6.231   2.239
    1CAL  O048t26487   8.322   6.298   2.160
    1CAL  O048u26488   8.181   5.897   2.160
    1CAL  O048v26489   8.190   5.745   2.325
    1CAL  O048w26490   8.380   5.829   2.241
    1CAL  O048x26491   8.312   5.345   2.326
    1CAL  O048y26492   8.123   5.428   2.238
    1CAL  O048z26493   8.322   5.496   2.159
    1CAL  O049026494   8.379   5.026   2.241
    1CAL  O049126495   8.189   4.942   2.326
    1CAL  O049226496   8.181   5.094   2.161
    1CAL  Ca1Mf26497   9.004   5.629   2.236
    1CAL  Ca1Mg26498   9.752   5.333   1.317
    1CAL  Ca1Mh26499   9.498   6.030   2.237
    1CAL  Ca1Mi26500   8.004   5.629   2.237
    1CAL  Ca1Mj26501   8.752   6.326   1.932
    1CAL  Ca1Mk26502   9.752   5.735   1.317
    1CAL  Ca1Ml26503   9.502   5.430   1.624
    1CAL  Ca1Mm26504   9.502   6.232   1.624
    1CAL  Ca1Mn26505   8.251   5.925   1.931
    1CAL  Ca1Mo26506   9.002   6.232   1.624
    1CAL  Ca1Mp26507   8.504   4.826   2.237
    1CAL  Ca1Mq26508   8.252   5.333   1.317
    1CAL  Ca1Mr26509   8.252   5.524   1.932
    1CAL  Ca1Ms26510   9.999   5.227   2.237
    1CAL  Ca1Mt26511   9.999   6.030   2.237
    1CAL  Ca1Mu26512   9.751   5.925   1.930
    1CAL  Ca1Mv26513   9.252   4.931   1.317
    1CAL  Ca1Mw26514  10.002   6.232   1.624
    1CAL  Ca1Mx26515   9.752   4.931   1.317
    1CAL  Ca1My26516   8.497   5.228   2.237
    1CAL  Ca1Mz26517   8.004   4.826   2.238
    1CAL  Ca1N026518   9.753   5.524   1.932
    1CAL  Ca1N126519   8.252   5.735   1.317
    1CAL  Ca1N226520  10.002   5.430   1.624
    1CAL  Ca1N326521   9.502   5.831   1.623
    1CAL  Ca1N426522   8.252   6.327   1.932
    1CAL  Ca1N526523   9.752   6.136   1.318
    1CAL  Ca1N626524   8.502   5.831   1.623
    1CAL  Ca1N726525   8.498   6.031   2.237
    1CAL  Ca1N826526  10.002   5.028   1.624
    1CAL  Ca1N926527   8.502   6.232   1.624
    1CAL  Ca1NA26528   9.498   5.227   2.237
    1CAL  Ca1NB26529   9.252   5.735   1.317
    1CAL  Ca1NC26530   8.752   5.735   1.317
    1CAL  Ca1ND26531   9.002   5.028   1.624
    1CAL  Ca1NE26532   9.002   5.831   1.623
    1CAL  Ca1NF26533   8.502   5.430   1.624
    1CAL  Ca1NG26534   9.002   5.430   1.624
    1CAL  Ca1NH26535   8.751   5.925   1.931
    1CAL  Ca1NI26536   8.252   4.931   1.317
    1CAL  Ca1NJ26537   8.752   5.333   1.317
    1CAL  Ca1NK26538   9.252   5.333   1.317
    1CAL  Ca1NL26539   9.251   5.925   1.931
    1CAL  Ca1NM26540   9.252   6.326   1.932
    1CAL  Ca1NN26541   9.751   5.122   1.932
    1CAL  Ca1NO26542   9.004   4.826   2.237
    1CAL  Ca1NP26543   8.750   5.122   1.932
    1CAL  Ca1NQ26544   8.505   5.629   2.236
    1CAL  Ca1NR26545   8.502   5.028   1.624
    1CAL  Ca1NS26546   8.752   4.931   1.317
    1CAL  Ca1NT26547   9.252   6.136   1.318
    1CAL  Ca1NU26548   9.251   5.122   1.932
    1CAL  Ca1NV26549   8.998   5.227   2.237
    1CAL  Ca1NW26550   8.752   6.136   1.318
    1CAL  Ca1NX26551   8.998   6.030   2.237
    1CAL  Ca1NY26552   8.252   6.136   1.318
    1CAL  Ca1NZ26553   9.502   5.028   1.624
    1CAL  Ca1Na26554   9.505   5.629   2.236
    1CAL  Ca1Nb26555   9.504   4.825   2.237
    1CAL  Ca1Nc26556   8.752   5.524   1.932
    1CAL  Ca1Nd26557   9.752   6.327   1.932
    1CAL  Ca1Ne26558   9.252   5.524   1.932
    1CAL  Ca1Nf26559   8.251   5.122   1.932
    1CAL  Ca1Ng26560  10.002   5.831   1.623
    1CAL  C01Nh26561  10.002   6.336   2.545
    1CAL  C01Ni26562   9.252   4.826   2.852
    1CAL  C01Nj26563   8.252   4.826   2.852
    1CAL  C01Nk26564   9.501   5.324   3.158
    1CAL  C01Nl26565   9.501   6.127   3.158
    1CAL  C01Nm26566   8.752   4.826   2.852
    1CAL  C01Nn26567   9.002   5.534   2.545
    1CAL  C01No26568   9.252   6.031   2.849
    1CAL  C01Np26569   8.752   6.031   2.850
    1CAL  C01Nq26570   8.502   5.726   3.159
    1CAL  C01Nr26571   8.502   5.132   2.545
    1CAL  C01Ns26572   9.002   5.936   2.545
    1CAL  C01Nt26573   9.002   5.132   2.545
    1CAL  C01Nu26574   8.252   5.229   2.852
    1CAL  C01Nv26575   8.502   4.922   3.159
    1CAL  C01Nw26576   9.002   5.726   3.158
    1CAL  C01Nx26577   9.752   4.826   2.852
    1CAL  C01Ny26578   9.502   4.922   3.159
    1CAL  C01Nz26579   8.252   5.631   2.852
    1CAL  C01O026580  10.001   5.324   3.159
    1CAL  C01O126581  10.002   5.726   3.158
    1CAL  C01O226582  10.002   5.132   2.545
    1CAL  C01O326583  10.002   5.936   2.545
    1CAL  C01O426584   8.252   6.031   2.850
    1CAL  C01O526585   8.501   5.324   3.158
    1CAL  C01O626586   9.502   5.534   2.545
    1CAL  C01O726587  10.002   5.534   2.545
    1CAL  C01O826588   9.752   5.229   2.852
    1CAL  C01O926589   9.252   5.229   2.852
    1CAL  C01OA26590   9.502   5.132   2.545
    1CAL  C01OB26591   9.502   5.726   3.158
    1CAL  C01OC26592   8.500   6.127   3.158
    1CAL  C01OD26593   9.502   6.336   2.545
    1CAL  C01OE26594   8.752   5.229   2.852
    1CAL  C01OF26595   9.252   5.631   2.852
    1CAL  C01OG26596   8.502   5.936   2.545
    1CAL  C01OH26597   9.752   6.031   2.849
    1CAL  C01OI26598   9.002   6.336   2.545
    1CAL  C01OJ26599  10.001   6.127   3.159
    1CAL  C01OK26600   9.002   4.922   3.158
    1CAL  C01OL26601   9.001   6.127   3.158
    1CAL  C01OM26602   9.001   5.324   3.159
    1CAL  C01ON26603   9.752   5.631   2.852
    1CAL  C01OO26604   8.502   6.336   2.545
    1CAL  C01OP26605   9.502   5.936   2.545
    1CAL  C01OQ26606   8.502   5.534   2.545
    1CAL  C01OR26607   8.752   5.631   2.852
    1CAL  C01OS26608  10.002   4.922   3.159
    1CAL  C01OT26609   8.753   5.422   3.469
    1CAL  C01OU26610   8.749   5.021   3.469
    1CAL  C01OV26611   8.749   5.824   3.468
    1CAL  C01OW26612   8.753   6.225   3.469
    1CAL  C01OX26613   9.753   5.422   3.469
    1CAL  C01OY26614   9.749   5.021   3.469
    1CAL  C01OZ26615   9.753   6.225   3.469
    1CAL  C01Oa26616   9.750   5.824   3.468
    1CAL  C01Ob26617   9.253   6.225   3.469
    1CAL  C01Oc26618   9.250   5.823   3.469
    1CAL  C01Od26619   9.253   5.422   3.469
    1CAL  C01Oe26620   9.249   5.020   3.470
    1CAL  C01Of26621   8.253   6.225   3.470
    1CAL  C01Og26622   8.250   5.823   3.470
    1CAL  C01Oh26623   8.253   5.423   3.469
    1CAL  C01Oi26624   8.249   5.020   3.471
    1CAL  O049326625   8.187   5.553   2.931
    1CAL  O049426626   9.188   5.710   2.773
    1CAL  O049526627   9.187   5.553   2.931
    1CAL  O049626628   9.381   5.631   2.853
    1CAL  O049726629   8.566   6.257   2.624
    1CAL  O049826630   8.373   6.337   2.544
    1CAL  O049926631   8.566   5.613   2.466
    1CAL  O049A26632   8.688   5.710   2.773
    1CAL  O049B26633   8.687   5.553   2.931
    1CAL  O049C26634   8.881   5.631   2.853
    1CAL  O049D26635   8.567   6.414   2.466
    1CAL  O049E26636   8.566   5.456   2.624
    1CAL  O049F26637   8.373   5.534   2.545
    1CAL  O049G26638   9.130   6.126   3.159
    1CAL  O049H26639   8.937   6.205   3.078
    1CAL  O049I26640   8.938   5.403   3.078
    1CAL  O049J26641   8.935   5.246   3.238
    1CAL  O049K26642   9.130   5.323   3.160
    1CAL  O049L26643   8.935   6.049   3.238
    1CAL  O049M26644   8.623   5.229   2.852
    1CAL  O049N26645   9.065   5.805   3.078
    1CAL  O049O26646   9.124   6.031   2.849
    1CAL  O049P26647   9.316   5.952   2.929
    1CAL  O049Q26648   9.317   6.109   2.771
    1CAL  O049R26649   8.438   5.053   2.624
    1CAL  O049S26650   8.437   5.210   2.466
    1CAL  O049T26651   8.623   6.031   2.849
    1CAL  O049U26652   8.816   5.952   2.929
    1CAL  O049V26653   8.817   6.109   2.771
    1CAL  O049W26654   8.316   5.308   2.773
    1CAL  O049X26655   8.816   5.150   2.931
    1CAL  O049Y26656   8.938   6.015   2.465
    1CAL  O049Z26657   9.131   5.936   2.545
    1CAL  O049a26658   8.316   5.150   2.932
    1CAL  O049b26659   8.123   5.229   2.852
    1CAL  O049c26660   8.816   5.308   2.773
    1CAL  O049d26661   8.938   5.211   2.465
    1CAL  O049e26662   8.938   5.053   2.624
    1CAL  O049f26663   9.131   5.132   2.545
    1CAL  O049g26664   8.872   5.725   3.159
    1CAL  O049h26665   9.068   5.648   3.237
    1CAL  O049i26666   8.937   5.858   2.624
    1CAL  O049j26667   9.688   5.710   2.773
    1CAL  O049k26668   9.687   5.553   2.931
    1CAL  O049l26669   9.881   5.631   2.853
    1CAL  O049m26670   9.936   6.048   3.238
    1CAL  O049n26671   9.938   5.403   3.079
    1CAL  O049o26672   9.936   5.245   3.238
    1CAL  O049p26673   8.130   6.126   3.160
    1CAL  O049q26674   8.066   5.001   3.079
    1CAL  O049r26675   9.438   6.015   2.465
    1CAL  O049s26676   9.437   5.858   2.624
    1CAL  O049t26677   9.631   5.936   2.545
    1CAL  O049u26678   8.067   4.844   3.239
    1CAL  O049v26679   9.436   6.049   3.238
    1CAL  O049w26680   8.067   6.414   2.466
    1CAL  O049x26681   8.066   6.257   2.624
    1CAL  O049y26682   8.873   6.337   2.544
    1CAL  O049z26683   9.873   5.725   3.160
    1CAL  O04A026684   9.938   5.053   2.624
    1CAL  O04A126685   9.066   5.001   3.079
    1CAL  O04A226686   8.438   6.015   2.465
    1CAL  O04A326687   8.437   5.858   2.624
    1CAL  O04A426688   8.631   5.936   2.545
    1CAL  O04A526689   9.067   4.843   3.238
    1CAL  O04A626690   8.435   6.049   3.238
    1CAL  O04A726691   8.873   4.922   3.159
    1CAL  O04A826692   9.874   5.534   2.545
    1CAL  O04A926693   9.067   6.414   2.466
    1CAL  O04AA26694   9.066   6.257   2.624
    1CAL  O04AB26695   9.624   6.031   2.849
    1CAL  O04AC26696   9.816   5.952   2.929
    1CAL  O04AD26697   9.817   6.109   2.770
    1CAL  O04AE26698   9.939   6.015   2.465
    1CAL  O04AF26699   9.937   5.858   2.624
    1CAL  O04AG26700   9.938   5.211   2.465
    1CAL  O04AH26701   8.631   5.132   2.544
    1CAL  O04AI26702   8.381   5.631   2.853
    1CAL  O04AJ26703   8.372   5.725   3.162
    1CAL  O04AK26704   9.067   5.456   2.624
    1CAL  O04AL26705   9.566   6.257   2.624
    1CAL  O04AM26706   9.567   6.414   2.466
    1CAL  O04AN26707   9.624   5.229   2.852
    1CAL  O04AO26708   9.817   5.150   2.931
    1CAL  O04AP26709   9.374   6.337   2.544
    1CAL  O04AQ26710   9.123   5.229   2.852
    1CAL  O04AR26711   9.316   5.308   2.773
    1CAL  O04AS26712   8.630   6.126   3.159
    1CAL  O04AT26713   9.438   5.210   2.466
    1CAL  O04AU26714   9.438   5.053   2.624
    1CAL  O04AV26715   9.631   5.132   2.544
    1CAL  O04AW26716   9.373   5.725   3.161
    1CAL  O04AX26717   9.568   5.648   3.237
    1CAL  O04AY26718   9.317   5.150   2.931
    1CAL  O04AZ26719   9.565   5.806   3.078
    1CAL  O04Aa26720   8.067   5.456   2.624
    1CAL  O04Ab26721   9.567   5.456   2.624
    1CAL  O04Ac26722   8.188   5.710   2.773
    1CAL  O04Ad26723   8.065   5.806   3.078
    1CAL  O04Ae26724   8.067   5.648   3.238
    1CAL  O04Af26725   8.130   5.323   3.160
    1CAL  O04Ag26726   8.131   5.132   2.545
    1CAL  O04Ah26727   8.130   5.936   2.545
    1CAL  O04Ai26728   9.566   5.613   2.466
    1CAL  O04Aj26729   8.317   6.109   2.771
    1CAL  O04Ak26730   9.874   6.337   2.544
    1CAL  O04Al26731   9.873   4.922   3.160
    1CAL  O04Am26732   8.123   6.031   2.849
    1CAL  O04An26733   9.937   6.205   3.078
    1CAL  O04Ao26734   8.066   5.613   2.466
    1CAL  O04Ap26735   9.374   5.534   2.545
    1CAL  O04Aq26736   8.316   5.952   2.929
    1CAL  O04Ar26737   8.436   6.206   3.078
    1CAL  O04As26738   8.630   5.323   3.159
    1CAL  O04At26739   9.373   4.921   3.161
    1CAL  O04Au26740   9.438   5.403   3.078
    1CAL  O04Av26741   9.436   5.246   3.238
    1CAL  O04Aw26742   9.631   5.323   3.159
    1CAL  O04Ax26743   8.881   4.826   2.852
    1CAL  O04Ay26744   8.688   6.354   2.931
    1CAL  O04Az26745   9.436   6.205   3.078
    1CAL  O04B026746   9.630   6.126   3.158
    1CAL  O04B126747   8.688   4.905   2.773
    1CAL  O04B226748   8.565   5.001   3.079
    1CAL  O04B326749   8.568   4.844   3.238
    1CAL  O04B426750   8.372   4.922   3.161
    1CAL  O04B526751   8.564   5.806   3.078
    1CAL  O04B626752   8.569   5.648   3.238
    1CAL  O04B726753   8.873   5.534   2.545
    1CAL  O04B826754   9.568   4.843   3.238
    1CAL  O04B926755   9.566   5.001   3.079
    1CAL  O04BA26756   8.435   5.246   3.238
    1CAL  O04BB26757   8.437   5.404   3.079
    1CAL  O04BC26758   9.688   4.905   2.773
    1CAL  O04BD26759   9.688   6.354   2.931
    1CAL  O04BE26760   9.881   4.826   2.852
    1CAL  O04BF26761   8.381   4.827   2.852
    1CAL  O04BG26762   8.188   6.354   2.931
    1CAL  O04BH26763   8.187   4.905   2.773
    1CAL  O04BI26764   9.188   4.905   2.773
    1CAL  O04BJ26765   9.188   6.354   2.931
    1CAL  O04BK26766   9.381   4.827   2.852
    1CAL  O04BL26767   9.066   5.613   2.466
    1CAL  O04BM26768   9.817   5.308   2.773
    1CAL  O04BN26769   8.822   6.299   3.387
    1CAL  O04BO26770   8.813   6.147   3.553
    1CAL  O04BP26771   8.623   6.231   3.467
    1CAL  O04BQ26772   8.680   5.898   3.386
    1CAL  O04BR26773   8.689   5.747   3.552
    1CAL  O04BS26774   8.879   5.829   3.465
    1CAL  O04BT26775   8.879   5.026   3.466
    1CAL  O04BU26776   8.689   4.943   3.553
    1CAL  O04BV26777   8.680   5.094   3.387
    1CAL  O04BW26778   8.623   5.428   3.466
    1CAL  O04BX26779   8.813   5.344   3.552
    1CAL  O04BY26780   8.822   5.496   3.387
    1CAL  O04BZ26781   9.681   5.898   3.386
    1CAL  O04Ba26782   9.879   5.829   3.466
    1CAL  O04Bb26783   9.689   5.746   3.552
    1CAL  O04Bc26784   9.624   6.230   3.466
    1CAL  O04Bd26785   9.813   6.147   3.552
    1CAL  O04Be26786   9.822   6.299   3.387
    1CAL  O04Bf26787   9.680   5.094   3.387
    1CAL  O04Bg26788   9.879   5.026   3.466
    1CAL  O04Bh26789   9.689   4.943   3.553
    1CAL  O04Bi26790   9.623   5.427   3.466
    1CAL  O04Bj26791   9.813   5.344   3.552
    1CAL  O04Bk26792   9.822   5.496   3.387
    1CAL  O04Bl26793   9.313   6.147   3.553
    1CAL  O04Bm26794   9.123   6.230   3.467
    1CAL  O04Bn26795   9.322   6.298   3.387
    1CAL  O04Bo26796   9.181   5.897   3.387
    1CAL  O04Bp26797   9.190   5.745   3.553
    1CAL  O04Bq26798   9.380   5.829   3.467
    1CAL  O04Br26799   9.313   5.344   3.553
    1CAL  O04Bs26800   9.322   5.495   3.387
    1CAL  O04Bt26801   9.123   5.428   3.466
    1CAL  O04Bu26802   9.181   5.094   3.388
    1CAL  O04Bv26803   9.189   4.942   3.553
    1CAL  O04Bw26804   9.379   5.026   3.468
    1CAL  O04Bx26805   8.312   6.147   3.554
    1CAL  O04By26806   8.123   6.231   3.467
    1CAL  O04Bz26807   8.322   6.298   3.388
    1CAL  O04C026808   8.181   5.897   3.388
    1CAL  O04C126809   8.190   5.745   3.553
    1CAL  O04C226810   8.380   5.829   3.469
    1CAL  O04C326811   8.312   5.345   3.554
    1CAL  O04C426812   8.123   5.428   3.466
    1CAL  O04C526813   8.322   5.496   3.387
    1CAL  O04C626814   8.379   5.026   3.469
    1CAL  O04C726815   8.189   4.942   3.554
    1CAL  O04C826816   8.181   5.094   3.389
    1CAL  Ca1Nh26817   9.004   5.629   3.464
    1CAL  Ca1Ni26818   9.752   5.333   2.545
    1CAL  Ca1Nj26819   9.498   6.030   3.465
    1CAL  Ca1Nk26820   8.004   5.629   3.465
    1CAL  Ca1Nl26821   8.752   6.326   3.160
    1CAL  Ca1Nm26822   9.752   5.735   2.545
    1CAL  Ca1Nn26823   9.502   5.430   2.852
    1CAL  Ca1No26824   9.502   6.232   2.852
    1CAL  Ca1Np26825   8.251   5.925   3.159
    1CAL  Ca1Nq26826   9.002   6.232   2.852
    1CAL  Ca1Nr26827   8.504   4.826   3.465
    1CAL  Ca1Ns26828   8.252   5.333   2.545
    1CAL  Ca1Nt26829   8.252   5.524   3.160
    1CAL  Ca1Nu26830   9.999   5.227   3.465
    1CAL  Ca1Nv26831   9.999   6.030   3.465
    1CAL  Ca1Nw26832   9.751   5.925   3.158
    1CAL  Ca1Nx26833   9.252   4.931   2.545
    1CAL  Ca1Ny26834  10.002   6.232   2.852
    1CAL  Ca1Nz26835   9.752   4.931   2.545
    1CAL  Ca1O026836   8.497   5.228   3.465
    1CAL  Ca1O126837   8.004   4.826   3.466
    1CAL  Ca1O226838   9.753   5.524   3.160
    1CAL  Ca1O326839   8.252   5.735   2.545
    1CAL  Ca1O426840  10.002   5.430   2.852
    1CAL  Ca1O526841   9.502   5.831   2.851
    1CAL  Ca1O626842   8.252   6.327   3.160
    1CAL  Ca1O726843   9.752   6.136   2.546
    1CAL  Ca1O826844   8.502   5.831   2.851
    1CAL  Ca1O926845   8.498   6.031   3.465
    1CAL  Ca1OA26846  10.002   5.028   2.852
    1CAL  Ca1OB26847   8.502   6.232   2.852
    1CAL  Ca1OC26848   9.498   5.227   3.465
    1CAL  Ca1OD26849   9.252   5.735   2.545
    1CAL  Ca1OE26850   8.752   5.735   2.545
    1CAL  Ca1OF26851   9.002   5.028   2.852
    1CAL  Ca1OG26852   9.002   5.831   2.851
    1CAL  Ca1OH26853   8.502   5.430   2.852
    1CAL  Ca1OI26854   9.002   5.430   2.852
    1CAL  Ca1OJ26855   8.751   5.925   3.159
    1CAL  Ca1OK26856   8.252   4.931   2.545
    1CAL  Ca1OL26857   8.752   5.333   2.545
    1CAL  Ca1OM26858   9.252   5.333   2.545
    1CAL  Ca1ON26859   9.251   5.925   3.159
    1CAL  Ca1OO26860   9.252   6.326   3.160
    1CAL  Ca1OP26861   9.751   5.122   3.160
    1CAL  Ca1OQ26862   9.004   4.826   3.465
    1CAL  Ca1OR26863   8.750   5.122   3.160
    1CAL  Ca1OS26864   8.505   5.629   3.464
    1CAL  Ca1OT26865   8.502   5.028   2.852
    1CAL  Ca1OU26866   8.752   4.931   2.545
    1CAL  Ca1OV26867   9.252   6.136   2.546
    1CAL  Ca1OW26868   9.251   5.122   3.160
    1CAL  Ca1OX26869   8.998   5.227   3.465
    1CAL  Ca1OY26870   8.752   6.136   2.546
    1CAL  Ca1OZ26871   8.998   6.030   3.465
    1CAL  Ca1Oa26872   8.252   6.136   2.546
    1CAL  Ca1Ob26873   9.502   5.028   2.852
    1CAL  Ca1Oc26874   9.505   5.629   3.464
    1CAL  Ca1Od26875   9.504   4.825   3.465
    1CAL  Ca1Oe26876   8.752   5.524   3.160
    1CAL  Ca1Of26877   9.752   6.327   3.160
    1CAL  Ca1Og26878   9.252   5.524   3.160
    1CAL  Ca1Oh26879   8.251   5.122   3.160
    1CAL  Ca1Oi26880  10.002   5.831   2.851
    1CAL  C01Oj26881  10.002   7.942   0.089
    1CAL  C01Ok26882   9.252   6.432   0.396
    1CAL  C01Ol26883   8.252   6.432   0.396
    1CAL  C01Om26884   9.501   6.930   0.702
    1CAL  C01On26885   9.501   7.733   0.702
    1CAL  C01Oo26886   8.752   6.432   0.396
    1CAL  C01Op26887   9.002   7.140   0.089
    1CAL  C01Oq26888   9.252   7.637   0.393
    1CAL  C01Or26889   8.752   7.637   0.394
    1CAL  C01Os26890   8.502   7.332   0.703
    1CAL  C01Ot26891   8.502   6.738   0.089
    1CAL  C01Ou26892   9.002   7.542   0.089
    1CAL  C01Ov26893   9.002   6.738   0.089
    1CAL  C01Ow26894   8.252   6.835   0.396
    1CAL  C01Ox26895   8.502   6.528   0.703
    1CAL  C01Oy26896   9.002   7.332   0.702
    1CAL  C01Oz26897   9.752   6.432   0.396
    1CAL  C01P026898   9.502   6.528   0.703
    1CAL  C01P126899   8.252   7.237   0.396
    1CAL  C01P226900  10.001   6.930   0.703
    1CAL  C01P326901  10.002   7.332   0.702
    1CAL  C01P426902  10.002   6.738   0.089
    1CAL  C01P526903  10.002   7.542   0.089
    1CAL  C01P626904   8.252   7.637   0.394
    1CAL  C01P726905   8.501   6.930   0.702
    1CAL  C01P826906   9.502   7.140   0.089
    1CAL  C01P926907  10.002   7.140   0.089
    1CAL  C01PA26908   9.752   6.835   0.396
    1CAL  C01PB26909   9.252   6.835   0.396
    1CAL  C01PC26910   9.502   6.738   0.089
    1CAL  C01PD26911   9.502   7.332   0.702
    1CAL  C01PE26912   8.500   7.733   0.702
    1CAL  C01PF26913   9.502   7.942   0.089
    1CAL  C01PG26914   8.752   6.835   0.396
    1CAL  C01PH26915   9.252   7.237   0.396
    1CAL  C01PI26916   8.502   7.542   0.089
    1CAL  C01PJ26917   9.752   7.637   0.393
    1CAL  C01PK26918   9.002   7.942   0.089
    1CAL  C01PL26919  10.001   7.733   0.703
    1CAL  C01PM26920   9.002   6.528   0.702
    1CAL  C01PN26921   9.001   7.733   0.702
    1CAL  C01PO26922   9.001   6.930   0.703
    1CAL  C01PP26923   9.752   7.237   0.396
    1CAL  C01PQ26924   8.502   7.942   0.089
    1CAL  C01PR26925   9.502   7.542   0.089
    1CAL  C01PS26926   8.502   7.140   0.089
    1CAL  C01PT26927   8.752   7.237   0.396
    1CAL  C01PU26928  10.002   6.528   0.703
    1CAL  C01PV26929   8.753   7.028   1.013
    1CAL  C01PW26930   8.749   6.627   1.013
    1CAL  C01PX26931   8.749   7.430   1.012
    1CAL  C01PY26932   8.753   7.831   1.013
    1CAL  C01PZ26933   9.753   7.028   1.013
    1CAL  C01Pa26934   9.749   6.627   1.013
    1CAL  C01Pb26935   9.753   7.831   1.013
    1CAL  C01Pc26936   9.750   7.430   1.012
    1CAL  C01Pd26937   9.253   7.831   1.013
    1CAL  C01Pe26938   9.250   7.429   1.013
    1CAL  C01Pf26939   9.253   7.028   1.013
    1CAL  C01Pg26940   9.249   6.626   1.014
    1CAL  C01Ph26941   8.253   7.831   1.014
    1CAL  C01Pi26942   8.250   7.429   1.014
    1CAL  C01Pj26943   8.253   7.029   1.013
    1CAL  C01Pk26944   8.249   6.626   1.015
    1CAL  O04C926945   8.187   7.159   0.475
    1CAL  O04CA26946   9.188   7.316   0.317
    1CAL  O04CB26947   9.187   7.159   0.475
    1CAL  O04CC26948   9.381   7.237   0.397
    1CAL  O04CD26949   8.566   7.863   0.168
    1CAL  O04CE26950   8.373   7.943   0.088
    1CAL  O04CF26951   8.566   7.219   0.010
    1CAL  O04CG26952   8.688   7.316   0.317
    1CAL  O04CH26953   8.687   7.159   0.475
    1CAL  O04CI26954   8.881   7.237   0.397
    1CAL  O04CJ26955   8.567   8.020   0.010
    1CAL  O04CK26956   8.566   7.062   0.168
    1CAL  O04CL26957   8.373   7.140   0.089
    1CAL  O04CM26958   9.130   7.732   0.703
    1CAL  O04CN26959   8.937   7.811   0.622
    1CAL  O04CO26960   8.938   7.009   0.622
    1CAL  O04CP26961   8.935   6.852   0.782
    1CAL  O04CQ26962   9.130   6.929   0.704
    1CAL  O04CR26963   8.935   7.655   0.782
    1CAL  O04CS26964   8.623   6.835   0.396
    1CAL  O04CT26965   9.065   7.411   0.622
    1CAL  O04CU26966   9.124   7.637   0.393
    1CAL  O04CV26967   9.316   7.558   0.473
    1CAL  O04CW26968   9.317   7.715   0.315
    1CAL  O04CX26969   8.438   6.659   0.168
    1CAL  O04CY26970   8.437   6.816   0.010
    1CAL  O04CZ26971   8.623   7.637   0.393
    1CAL  O04Ca26972   8.816   7.558   0.473
    1CAL  O04Cb26973   8.817   7.715   0.315
    1CAL  O04Cc26974   8.316   6.914   0.317
    1CAL  O04Cd26975   8.816   6.756   0.475
    1CAL  O04Ce26976   8.938   7.621   0.009
    1CAL  O04Cf26977   9.131   7.542   0.089
    1CAL  O04Cg26978   8.316   6.756   0.476
    1CAL  O04Ch26979   8.123   6.835   0.396
    1CAL  O04Ci26980   8.816   6.914   0.317
    1CAL  O04Cj26981   8.938   6.817   0.009
    1CAL  O04Ck26982   8.938   6.659   0.168
    1CAL  O04Cl26983   9.131   6.738   0.089
    1CAL  O04Cm26984   8.872   7.331   0.703
    1CAL  O04Cn26985   9.068   7.254   0.781
    1CAL  O04Co26986   8.937   7.464   0.168
    1CAL  O04Cp26987   9.688   7.316   0.317
    1CAL  O04Cq26988   9.687   7.159   0.475
    1CAL  O04Cr26989   9.881   7.237   0.397
    1CAL  O04Cs26990   9.936   7.654   0.782
    1CAL  O04Ct26991   9.938   7.009   0.623
    1CAL  O04Cu26992   9.936   6.851   0.782
    1CAL  O04Cv26993   8.130   7.732   0.704
    1CAL  O04Cw26994   8.066   6.607   0.623
    1CAL  O04Cx26995   9.438   7.621   0.009
    1CAL  O04Cy26996   9.437   7.464   0.168
    1CAL  O04Cz26997   9.631   7.542   0.089
    1CAL  O04D026998   8.067   6.450   0.783
    1CAL  O04D126999   9.436   7.655   0.782
    1CAL  O04D227000   8.067   8.020   0.010
    1CAL  O04D327001   8.066   7.863   0.168
    1CAL  O04D427002   8.873   7.943   0.088
    1CAL  O04D527003   9.873   7.331   0.704
    1CAL  O04D627004   9.938   6.659   0.168
    1CAL  O04D727005   9.066   6.607   0.623
    1CAL  O04D827006   8.438   7.621   0.009
    1CAL  O04D927007   8.437   7.464   0.168
    1CAL  O04DA27008   8.631   7.542   0.089
    1CAL  O04DB27009   9.067   6.449   0.782
    1CAL  O04DC27010   8.435   7.655   0.782
    1CAL  O04DD27011   8.873   6.528   0.703
    1CAL  O04DE27012   9.874   7.140   0.089
    1CAL  O04DF27013   9.067   8.020   0.010
    1CAL  O04DG27014   9.066   7.863   0.168
    1CAL  O04DH27015   9.624   7.637   0.393
    1CAL  O04DI27016   9.816   7.558   0.473
    1CAL  O04DJ27017   9.817   7.715   0.314
    1CAL  O04DK27018   9.939   7.621   0.009
    1CAL  O04DL27019   9.937   7.464   0.168
    1CAL  O04DM27020   9.938   6.817   0.009
    1CAL  O04DN27021   8.631   6.738   0.088
    1CAL  O04DO27022   8.381   7.237   0.397
    1CAL  O04DP27023   8.372   7.331   0.706
    1CAL  O04DQ27024   9.067   7.062   0.168
    1CAL  O04DR27025   9.566   7.863   0.168
    1CAL  O04DS27026   9.567   8.020   0.010
    1CAL  O04DT27027   9.624   6.835   0.396
    1CAL  O04DU27028   9.817   6.756   0.475
    1CAL  O04DV27029   9.374   7.943   0.088
    1CAL  O04DW27030   9.123   6.835   0.396
    1CAL  O04DX27031   9.316   6.914   0.317
    1CAL  O04DY27032   8.630   7.732   0.703
    1CAL  O04DZ27033   9.438   6.816   0.010
    1CAL  O04Da27034   9.438   6.659   0.168
    1CAL  O04Db27035   9.631   6.738   0.088
    1CAL  O04Dc27036   9.373   7.331   0.705
    1CAL  O04Dd27037   9.568   7.254   0.781
    1CAL  O04De27038   9.317   6.756   0.475
    1CAL  O04Df27039   9.565   7.412   0.622
    1CAL  O04Dg27040   8.067   7.062   0.168
    1CAL  O04Dh27041   9.567   7.062   0.168
    1CAL  O04Di27042   8.188   7.316   0.317
    1CAL  O04Dj27043   8.065   7.412   0.622
    1CAL  O04Dk27044   8.067   7.254   0.782
    1CAL  O04Dl27045   8.130   6.929   0.704
    1CAL  O04Dm27046   8.131   6.738   0.089
    1CAL  O04Dn27047   8.130   7.542   0.089
    1CAL  O04Do27048   9.566   7.219   0.010
    1CAL  O04Dp27049   8.317   7.715   0.315
    1CAL  O04Dq27050   9.874   7.943   0.088
    1CAL  O04Dr27051   9.873   6.528   0.704
    1CAL  O04Ds27052   8.123   7.637   0.393
    1CAL  O04Dt27053   9.937   7.811   0.622
    1CAL  O04Du27054   8.066   7.219   0.010
    1CAL  O04Dv27055   9.374   7.140   0.089
    1CAL  O04Dw27056   8.316   7.558   0.473
    1CAL  O04Dx27057   8.436   7.812   0.622
    1CAL  O04Dy27058   8.630   6.929   0.703
    1CAL  O04Dz27059   9.373   6.527   0.705
    1CAL  O04E027060   9.438   7.009   0.622
    1CAL  O04E127061   9.436   6.852   0.782
    1CAL  O04E227062   9.631   6.929   0.703
    1CAL  O04E327063   8.881   6.432   0.396
    1CAL  O04E427064   8.688   7.960   0.475
    1CAL  O04E527065   9.436   7.811   0.622
    1CAL  O04E627066   9.630   7.732   0.702
    1CAL  O04E727067   8.688   6.511   0.317
    1CAL  O04E827068   8.565   6.607   0.623
    1CAL  O04E927069   8.568   6.450   0.782
    1CAL  O04EA27070   8.372   6.528   0.705
    1CAL  O04EB27071   8.564   7.412   0.622
    1CAL  O04EC27072   8.569   7.254   0.782
    1CAL  O04ED27073   8.873   7.140   0.089
    1CAL  O04EE27074   9.568   6.449   0.782
    1CAL  O04EF27075   9.566   6.607   0.623
    1CAL  O04EG27076   8.435   6.852   0.782
    1CAL  O04EH27077   8.437   7.010   0.623
    1CAL  O04EI27078   9.688   6.511   0.317
    1CAL  O04EJ27079   9.688   7.960   0.475
    1CAL  O04EK27080   9.881   6.432   0.396
    1CAL  O04EL27081   8.381   6.433   0.396
    1CAL  O04EM27082   8.188   7.960   0.475
    1CAL  O04EN27083   8.187   6.511   0.317
    1CAL  O04EO27084   9.188   6.511   0.317
    1CAL  O04EP27085   9.188   7.960   0.475
    1CAL  O04EQ27086   9.381   6.433   0.396
    1CAL  O04ER27087   9.066   7.219   0.010
    1CAL  O04ES27088   9.817   6.914   0.317
    1CAL  O04ET27089   8.822   7.905   0.931
    1CAL  O04EU27090   8.813   7.753   1.097
    1CAL  O04EV27091   8.623   7.837   1.011
    1CAL  O04EW27092   8.680   7.504   0.930
    1CAL  O04EX27093   8.689   7.353   1.096
    1CAL  O04EY27094   8.879   7.435   1.009
    1CAL  O04EZ27095   8.879   6.632   1.010
    1CAL  O04Ea27096   8.689   6.549   1.097
    1CAL  O04Eb27097   8.680   6.700   0.931
    1CAL  O04Ec27098   8.623   7.034   1.010
    1CAL  O04Ed27099   8.813   6.950   1.096
    1CAL  O04Ee27100   8.822   7.102   0.931
    1CAL  O04Ef27101   9.681   7.504   0.930
    1CAL  O04Eg27102   9.879   7.435   1.010
    1CAL  O04Eh27103   9.689   7.352   1.096
    1CAL  O04Ei27104   9.624   7.836   1.010
    1CAL  O04Ej27105   9.813   7.753   1.096
    1CAL  O04Ek27106   9.822   7.905   0.931
    1CAL  O04El27107   9.680   6.700   0.931
    1CAL  O04Em27108   9.879   6.632   1.010
    1CAL  O04En27109   9.689   6.549   1.097
    1CAL  O04Eo27110   9.623   7.033   1.010
    1CAL  O04Ep27111   9.813   6.950   1.096
    1CAL  O04Eq27112   9.822   7.102   0.931
    1CAL  O04Er27113   9.313   7.753   1.097
    1CAL  O04Es27114   9.123   7.836   1.011
    1CAL  O04Et27115   9.322   7.904   0.931
    1CAL  O04Eu27116   9.181   7.503   0.931
    1CAL  O04Ev27117   9.190   7.351   1.097
    1CAL  O04Ew27118   9.380   7.435   1.011
    1CAL  O04Ex27119   9.313   6.950   1.097
    1CAL  O04Ey27120   9.322   7.101   0.931
    1CAL  O04Ez27121   9.123   7.034   1.010
    1CAL  O04F027122   9.181   6.700   0.932
    1CAL  O04F127123   9.189   6.548   1.097
    1CAL  O04F227124   9.379   6.632   1.012
    1CAL  O04F327125   8.312   7.753   1.098
    1CAL  O04F427126   8.123   7.837   1.011
    1CAL  O04F527127   8.322   7.904   0.932
    1CAL  O04F627128   8.181   7.503   0.932
    1CAL  O04F727129   8.190   7.351   1.097
    1CAL  O04F827130   8.380   7.435   1.013
    1CAL  O04F927131   8.312   6.951   1.098
    1CAL  O04FA27132   8.123   7.034   1.010
    1CAL  O04FB27133   8.322   7.102   0.931
    1CAL  O04FC27134   8.379   6.632   1.013
    1CAL  O04FD27135   8.189   6.548   1.098
    1CAL  O04FE27136   8.181   6.700   0.933
    1CAL  Ca1Oj27137   9.004   7.235   1.008
    1CAL  Ca1Ok27138   9.752   6.939   0.089
    1CAL  Ca1Ol27139   9.498   7.636   1.009
    1CAL  Ca1Om27140   8.004   7.235   1.009
    1CAL  Ca1On27141   8.752   7.932   0.704
    1CAL  Ca1Oo27142   9.752   7.341   0.089
    1CAL  Ca1Op27143   9.502   7.036   0.396
    1CAL  Ca1Oq27144   9.502   7.838   0.396
    1CAL  Ca1Or27145   8.251   7.531   0.703
    1CAL  Ca1Os27146   9.002   7.838   0.396
    1CAL  Ca1Ot27147   8.504   6.432   1.009
    1CAL  Ca1Ou27148   8.252   6.939   0.089
    1CAL  Ca1Ov27149   8.252   7.130   0.704
    1CAL  Ca1Ow27150   9.999   6.833   1.009
    1CAL  Ca1Ox27151   9.999   7.636   1.009
    1CAL  Ca1Oy27152   9.751   7.531   0.702
    1CAL  Ca1Oz27153   9.252   6.537   0.089
    1CAL  Ca1P027154  10.002   7.838   0.396
    1CAL  Ca1P127155   9.752   6.537   0.089
    1CAL  Ca1P227156   8.497   6.834   1.009
    1CAL  Ca1P327157   8.004   6.432   1.010
    1CAL  Ca1P427158   9.753   7.130   0.704
    1CAL  Ca1P527159   8.252   7.341   0.089
    1CAL  Ca1P627160  10.002   7.036   0.396
    1CAL  Ca1P727161   9.502   7.437   0.395
    1CAL  Ca1P827162   8.252   7.933   0.704
    1CAL  Ca1P927163   9.752   7.742   0.090
    1CAL  Ca1PA27164   8.502   7.437   0.395
    1CAL  Ca1PB27165   8.498   7.637   1.009
    1CAL  Ca1PC27166  10.002   6.634   0.396
    1CAL  Ca1PD27167   8.502   7.838   0.396
    1CAL  Ca1PE27168   9.498   6.833   1.009
    1CAL  Ca1PF27169   9.252   7.341   0.089
    1CAL  Ca1PG27170   8.752   7.341   0.089
    1CAL  Ca1PH27171   9.002   6.634   0.396
    1CAL  Ca1PI27172   9.002   7.437   0.395
    1CAL  Ca1PJ27173   8.502   7.036   0.396
    1CAL  Ca1PK27174   9.002   7.036   0.396
    1CAL  Ca1PL27175   8.751   7.531   0.703
    1CAL  Ca1PM27176   8.252   6.537   0.089
    1CAL  Ca1PN27177   8.752   6.939   0.089
    1CAL  Ca1PO27178   9.252   6.939   0.089
    1CAL  Ca1PP27179   9.251   7.531   0.703
    1CAL  Ca1PQ27180   9.252   7.932   0.704
    1CAL  Ca1PR27181   9.751   6.728   0.704
    1CAL  Ca1PS27182   9.004   6.432   1.009
    1CAL  Ca1PT27183   8.750   6.728   0.704
    1CAL  Ca1PU27184   8.505   7.235   1.008
    1CAL  Ca1PV27185   8.502   6.634   0.396
    1CAL  Ca1PW27186   8.752   6.537   0.089
    1CAL  Ca1PX27187   9.252   7.742   0.090
    1CAL  Ca1PY27188   9.251   6.728   0.704
    1CAL  Ca1PZ27189   8.998   6.833   1.009
    1CAL  Ca1Pa27190   8.752   7.742   0.090
    1CAL  Ca1Pb27191   8.998   7.636   1.009
    1CAL  Ca1Pc27192   8.252   7.742   0.090
    1CAL  Ca1Pd27193   9.502   6.634   0.396
    1CAL  Ca1Pe27194   9.505   7.235   1.008
    1CAL  Ca1Pf27195   9.504   6.431   1.009
    1CAL  Ca1Pg27196   8.752   7.130   0.704
    1CAL  Ca1Ph27197   9.752   7.933   0.704
    1CAL  Ca1Pi27198   9.252   7.130   0.704
    1CAL  Ca1Pj27199   8.251   6.728   0.704
    1CAL  Ca1Pk27200  10.002   7.437   0.395
    1CAL  C01Pl27201  10.002   7.942   1.317
    1CAL  C01Pm27202   9.252   6.432   1.624
    1CAL  C01Pn27203   8.252   6.432   1.624
    1CAL  C01Po27204   9.501   6.930   1.930
    1CAL  C01Pp27205   9.501   7.733   1.930
    1CAL  C01Pq27206   8.752   6.432   1.624
    1CAL  C01Pr27207   9.002   7.140   1.317
    1CAL  C01Ps27208   9.252   7.637   1.621
    1CAL  C01Pt27209   8.752   7.637   1.622
    1CAL  C01Pu27210   8.502   7.332   1.931
    1CAL  C01Pv27211   8.502   6.738   1.317
    1CAL  C01Pw27212   9.002   7.542   1.317
    1CAL  C01Px27213   9.002   6.738   1.317
    1CAL  C01Py27214   8.252   6.835   1.624
    1CAL  C01Pz27215   8.502   6.528   1.931
    1CAL  C01Q027216   9.002   7.332   1.930
    1CAL  C01Q127217   9.752   6.432   1.624
    1CAL  C01Q227218   9.502   6.528   1.931
    1CAL  C01Q327219   8.252   7.237   1.624
    1CAL  C01Q427220  10.001   6.930   1.931
    1CAL  C01Q527221  10.002   7.332   1.930
    1CAL  C01Q627222  10.002   6.738   1.317
    1CAL  C01Q727223  10.002   7.542   1.317
    1CAL  C01Q827224   8.252   7.637   1.622
    1CAL  C01Q927225   8.501   6.930   1.930
    1CAL  C01QA27226   9.502   7.140   1.317
    1CAL  C01QB27227  10.002   7.140   1.317
    1CAL  C01QC27228   9.752   6.835   1.624
    1CAL  C01QD27229   9.252   6.835   1.624
    1CAL  C01QE27230   9.502   6.738   1.317
    1CAL  C01QF27231   9.502   7.332   1.930
    1CAL  C01QG27232   8.500   7.733   1.930
    1CAL  C01QH27233   9.502   7.942   1.317
    1CAL  C01QI27234   8.752   6.835   1.624
    1CAL  C01QJ27235   9.252   7.237   1.624
    1CAL  C01QK27236   8.502   7.542   1.317
    1CAL  C01QL27237   9.752   7.637   1.621
    1CAL  C01QM27238   9.002   7.942   1.317
    1CAL  C01QN27239  10.001   7.733   1.931
    1CAL  C01QO27240   9.002   6.528   1.930
    1CAL  C01QP27241   9.001   7.733   1.930
    1CAL  C01QQ27242   9.001   6.930   1.931
    1CAL  C01QR27243   9.752   7.237   1.624
    1CAL  C01QS27244   8.502   7.942   1.317
    1CAL  C01QT27245   9.502   7.542   1.317
    1CAL  C01QU27246   8.502   7.140   1.317
    1CAL  C01QV27247   8.752   7.237   1.624
    1CAL  C01QW27248  10.002   6.528   1.931
    1CAL  C01QX27249   8.753   7.028   2.241
    1CAL  C01QY27250   8.749   6.627   2.241
    1CAL  C01QZ27251   8.749   7.430   2.240
    1CAL  C01Qa27252   8.753   7.831   2.241
    1CAL  C01Qb27253   9.753   7.028   2.241
    1CAL  C01Qc27254   9.749   6.627   2.241
    1CAL  C01Qd27255   9.753   7.831   2.241
    1CAL  C01Qe27256   9.750   7.430   2.240
    1CAL  C01Qf27257   9.253   7.831   2.241
    1CAL  C01Qg27258   9.250   7.429   2.241
    1CAL  C01Qh27259   9.253   7.028   2.241
    1CAL  C01Qi27260   9.249   6.626   2.242
    1CAL  C01Qj27261   8.253   7.831   2.242
    1CAL  C01Qk27262   8.250   7.429   2.242
    1CAL  C01Ql27263   8.253   7.029   2.241
    1CAL  C01Qm27264   8.249   6.626   2.243
    1CAL  O04FF27265   8.187   7.159   1.703
    1CAL  O04FG27266   9.188   7.316   1.545
    1CAL  O04FH27267   9.187   7.159   1.703
    1CAL  O04FI27268   9.381   7.237   1.625
    1CAL  O04FJ27269   8.566   7.863   1.396
    1CAL  O04FK27270   8.373   7.943   1.316
    1CAL  O04FL27271   8.566   7.219   1.238
    1CAL  O04FM27272   8.688   7.316   1.545
    1CAL  O04FN27273   8.687   7.159   1.703
    1CAL  O04FO27274   8.881   7.237   1.625
    1CAL  O04FP27275   8.567   8.020   1.238
    1CAL  O04FQ27276   8.566   7.062   1.396
    1CAL  O04FR27277   8.373   7.140   1.317
    1CAL  O04FS27278   9.130   7.732   1.931
    1CAL  O04FT27279   8.937   7.811   1.850
    1CAL  O04FU27280   8.938   7.009   1.850
    1CAL  O04FV27281   8.935   6.852   2.010
    1CAL  O04FW27282   9.130   6.929   1.932
    1CAL  O04FX27283   8.935   7.655   2.010
    1CAL  O04FY27284   8.623   6.835   1.624
    1CAL  O04FZ27285   9.065   7.411   1.850
    1CAL  O04Fa27286   9.124   7.637   1.621
    1CAL  O04Fb27287   9.316   7.558   1.701
    1CAL  O04Fc27288   9.317   7.715   1.543
    1CAL  O04Fd27289   8.438   6.659   1.396
    1CAL  O04Fe27290   8.437   6.816   1.238
    1CAL  O04Ff27291   8.623   7.637   1.621
    1CAL  O04Fg27292   8.816   7.558   1.701
    1CAL  O04Fh27293   8.817   7.715   1.543
    1CAL  O04Fi27294   8.316   6.914   1.545
    1CAL  O04Fj27295   8.816   6.756   1.703
    1CAL  O04Fk27296   8.938   7.621   1.237
    1CAL  O04Fl27297   9.131   7.542   1.317
    1CAL  O04Fm27298   8.316   6.756   1.704
    1CAL  O04Fn27299   8.123   6.835   1.624
    1CAL  O04Fo27300   8.816   6.914   1.545
    1CAL  O04Fp27301   8.938   6.817   1.237
    1CAL  O04Fq27302   8.938   6.659   1.396
    1CAL  O04Fr27303   9.131   6.738   1.317
    1CAL  O04Fs27304   8.872   7.331   1.931
    1CAL  O04Ft27305   9.068   7.254   2.009
    1CAL  O04Fu27306   8.937   7.464   1.396
    1CAL  O04Fv27307   9.688   7.316   1.545
    1CAL  O04Fw27308   9.687   7.159   1.703
    1CAL  O04Fx27309   9.881   7.237   1.625
    1CAL  O04Fy27310   9.936   7.654   2.010
    1CAL  O04Fz27311   9.938   7.009   1.851
    1CAL  O04G027312   9.936   6.851   2.010
    1CAL  O04G127313   8.130   7.732   1.932
    1CAL  O04G227314   8.066   6.607   1.851
    1CAL  O04G327315   9.438   7.621   1.237
    1CAL  O04G427316   9.437   7.464   1.396
    1CAL  O04G527317   9.631   7.542   1.317
    1CAL  O04G627318   8.067   6.450   2.011
    1CAL  O04G727319   9.436   7.655   2.010
    1CAL  O04G827320   8.067   8.020   1.238
    1CAL  O04G927321   8.066   7.863   1.396
    1CAL  O04GA27322   8.873   7.943   1.316
    1CAL  O04GB27323   9.873   7.331   1.932
    1CAL  O04GC27324   9.938   6.659   1.396
    1CAL  O04GD27325   9.066   6.607   1.851
    1CAL  O04GE27326   8.438   7.621   1.237
    1CAL  O04GF27327   8.437   7.464   1.396
    1CAL  O04GG27328   8.631   7.542   1.317
    1CAL  O04GH27329   9.067   6.449   2.010
    1CAL  O04GI27330   8.435   7.655   2.010
    1CAL  O04GJ27331   8.873   6.528   1.931
    1CAL  O04GK27332   9.874   7.140   1.317
    1CAL  O04GL27333   9.067   8.020   1.238
    1CAL  O04GM27334   9.066   7.863   1.396
    1CAL  O04GN27335   9.624   7.637   1.621
    1CAL  O04GO27336   9.816   7.558   1.701
    1CAL  O04GP27337   9.817   7.715   1.542
    1CAL  O04GQ27338   9.939   7.621   1.237
    1CAL  O04GR27339   9.937   7.464   1.396
    1CAL  O04GS27340   9.938   6.817   1.237
    1CAL  O04GT27341   8.631   6.738   1.316
    1CAL  O04GU27342   8.381   7.237   1.625
    1CAL  O04GV27343   8.372   7.331   1.934
    1CAL  O04GW27344   9.067   7.062   1.396
    1CAL  O04GX27345   9.566   7.863   1.396
    1CAL  O04GY27346   9.567   8.020   1.238
    1CAL  O04GZ27347   9.624   6.835   1.624
    1CAL  O04Ga27348   9.817   6.756   1.703
    1CAL  O04Gb27349   9.374   7.943   1.316
    1CAL  O04Gc27350   9.123   6.835   1.624
    1CAL  O04Gd27351   9.316   6.914   1.545
    1CAL  O04Ge27352   8.630   7.732   1.931
    1CAL  O04Gf27353   9.438   6.816   1.238
    1CAL  O04Gg27354   9.438   6.659   1.396
    1CAL  O04Gh27355   9.631   6.738   1.316
    1CAL  O04Gi27356   9.373   7.331   1.933
    1CAL  O04Gj27357   9.568   7.254   2.009
    1CAL  O04Gk27358   9.317   6.756   1.703
    1CAL  O04Gl27359   9.565   7.412   1.850
    1CAL  O04Gm27360   8.067   7.062   1.396
    1CAL  O04Gn27361   9.567   7.062   1.396
    1CAL  O04Go27362   8.188   7.316   1.545
    1CAL  O04Gp27363   8.065   7.412   1.850
    1CAL  O04Gq27364   8.067   7.254   2.010
    1CAL  O04Gr27365   8.130   6.929   1.932
    1CAL  O04Gs27366   8.131   6.738   1.317
    1CAL  O04Gt27367   8.130   7.542   1.317
    1CAL  O04Gu27368   9.566   7.219   1.238
    1CAL  O04Gv27369   8.317   7.715   1.543
    1CAL  O04Gw27370   9.874   7.943   1.316
    1CAL  O04Gx27371   9.873   6.528   1.932
    1CAL  O04Gy27372   8.123   7.637   1.621
    1CAL  O04Gz27373   9.937   7.811   1.850
    1CAL  O04H027374   8.066   7.219   1.238
    1CAL  O04H127375   9.374   7.140   1.317
    1CAL  O04H227376   8.316   7.558   1.701
    1CAL  O04H327377   8.436   7.812   1.850
    1CAL  O04H427378   8.630   6.929   1.931
    1CAL  O04H527379   9.373   6.527   1.933
    1CAL  O04H627380   9.438   7.009   1.850
    1CAL  O04H727381   9.436   6.852   2.010
    1CAL  O04H827382   9.631   6.929   1.931
    1CAL  O04H927383   8.881   6.432   1.624
    1CAL  O04HA27384   8.688   7.960   1.703
    1CAL  O04HB27385   9.436   7.811   1.850
    1CAL  O04HC27386   9.630   7.732   1.930
    1CAL  O04HD27387   8.688   6.511   1.545
    1CAL  O04HE27388   8.565   6.607   1.851
    1CAL  O04HF27389   8.568   6.450   2.010
    1CAL  O04HG27390   8.372   6.528   1.933
    1CAL  O04HH27391   8.564   7.412   1.850
    1CAL  O04HI27392   8.569   7.254   2.010
    1CAL  O04HJ27393   8.873   7.140   1.317
    1CAL  O04HK27394   9.568   6.449   2.010
    1CAL  O04HL27395   9.566   6.607   1.851
    1CAL  O04HM27396   8.435   6.852   2.010
    1CAL  O04HN27397   8.437   7.010   1.851
    1CAL  O04HO27398   9.688   6.511   1.545
    1CAL  O04HP27399   9.688   7.960   1.703
    1CAL  O04HQ27400   9.881   6.432   1.624
    1CAL  O04HR27401   8.381   6.433   1.624
    1CAL  O04HS27402   8.188   7.960   1.703
    1CAL  O04HT27403   8.187   6.511   1.545
    1CAL  O04HU27404   9.188   6.511   1.545
    1CAL  O04HV27405   9.188   7.960   1.703
    1CAL  O04HW27406   9.381   6.433   1.624
    1CAL  O04HX27407   9.066   7.219   1.238
    1CAL  O04HY27408   9.817   6.914   1.545
    1CAL  O04HZ27409   8.822   7.905   2.159
    1CAL  O04Ha27410   8.813   7.753   2.325
    1CAL  O04Hb27411   8.623   7.837   2.239
    1CAL  O04Hc27412   8.680   7.504   2.158
    1CAL  O04Hd27413   8.689   7.353   2.324
    1CAL  O04He27414   8.879   7.435   2.237
    1CAL  O04Hf27415   8.879   6.632   2.238
    1CAL  O04Hg27416   8.689   6.549   2.325
    1CAL  O04Hh27417   8.680   6.700   2.159
    1CAL  O04Hi27418   8.623   7.034   2.238
    1CAL  O04Hj27419   8.813   6.950   2.324
    1CAL  O04Hk27420   8.822   7.102   2.159
    1CAL  O04Hl27421   9.681   7.504   2.158
    1CAL  O04Hm27422   9.879   7.435   2.238
    1CAL  O04Hn27423   9.689   7.352   2.324
    1CAL  O04Ho27424   9.624   7.836   2.238
    1CAL  O04Hp27425   9.813   7.753   2.324
    1CAL  O04Hq27426   9.822   7.905   2.159
    1CAL  O04Hr27427   9.680   6.700   2.159
    1CAL  O04Hs27428   9.879   6.632   2.238
    1CAL  O04Ht27429   9.689   6.549   2.325
    1CAL  O04Hu27430   9.623   7.033   2.238
    1CAL  O04Hv27431   9.813   6.950   2.324
    1CAL  O04Hw27432   9.822   7.102   2.159
    1CAL  O04Hx27433   9.313   7.753   2.325
    1CAL  O04Hy27434   9.123   7.836   2.239
    1CAL  O04Hz27435   9.322   7.904   2.159
    1CAL  O04I027436   9.181   7.503   2.159
    1CAL  O04I127437   9.190   7.351   2.325
    1CAL  O04I227438   9.380   7.435   2.239
    1CAL  O04I327439   9.313   6.950   2.325
    1CAL  O04I427440   9.322   7.101   2.159
    1CAL  O04I527441   9.123   7.034   2.238
    1CAL  O04I627442   9.181   6.700   2.160
    1CAL  O04I727443   9.189   6.548   2.325
    1CAL  O04I827444   9.379   6.632   2.240
    1CAL  O04I927445   8.312   7.753   2.326
    1CAL  O04IA27446   8.123   7.837   2.239
    1CAL  O04IB27447   8.322   7.904   2.160
    1CAL  O04IC27448   8.181   7.503   2.160
    1CAL  O04ID27449   8.190   7.351   2.325
    1CAL  O04IE27450   8.380   7.435   2.241
    1CAL  O04IF27451   8.312   6.951   2.326
    1CAL  O04IG27452   8.123   7.034   2.238
    1CAL  O04IH27453   8.322   7.102   2.159
    1CAL  O04II27454   8.379   6.632   2.241
    1CAL  O04IJ27455   8.189   6.548   2.326
    1CAL  O04IK27456   8.181   6.700   2.161
    1CAL  Ca1Pl27457   9.004   7.235   2.236
    1CAL  Ca1Pm27458   9.752   6.939   1.317
    1CAL  Ca1Pn27459   9.498   7.636   2.237
    1CAL  Ca1Po27460   8.004   7.235   2.237
    1CAL  Ca1Pp27461   8.752   7.932   1.932
    1CAL  Ca1Pq27462   9.752   7.341   1.317
    1CAL  Ca1Pr27463   9.502   7.036   1.624
    1CAL  Ca1Ps27464   9.502   7.838   1.624
    1CAL  Ca1Pt27465   8.251   7.531   1.931
    1CAL  Ca1Pu27466   9.002   7.838   1.624
    1CAL  Ca1Pv27467   8.504   6.432   2.237
    1CAL  Ca1Pw27468   8.252   6.939   1.317
    1CAL  Ca1Px27469   8.252   7.130   1.932
    1CAL  Ca1Py27470   9.999   6.833   2.237
    1CAL  Ca1Pz27471   9.999   7.636   2.237
    1CAL  Ca1Q027472   9.751   7.531   1.930
    1CAL  Ca1Q127473   9.252   6.537   1.317
    1CAL  Ca1Q227474  10.002   7.838   1.624
    1CAL  Ca1Q327475   9.752   6.537   1.317
    1CAL  Ca1Q427476   8.497   6.834   2.237
    1CAL  Ca1Q527477   8.004   6.432   2.238
    1CAL  Ca1Q627478   9.753   7.130   1.932
    1CAL  Ca1Q727479   8.252   7.341   1.317
    1CAL  Ca1Q827480  10.002   7.036   1.624
    1CAL  Ca1Q927481   9.502   7.437   1.623
    1CAL  Ca1QA27482   8.252   7.933   1.932
    1CAL  Ca1QB27483   9.752   7.742   1.318
    1CAL  Ca1QC27484   8.502   7.437   1.623
    1CAL  Ca1QD27485   8.498   7.637   2.237
    1CAL  Ca1QE27486  10.002   6.634   1.624
    1CAL  Ca1QF27487   8.502   7.838   1.624
    1CAL  Ca1QG27488   9.498   6.833   2.237
    1CAL  Ca1QH27489   9.252   7.341   1.317
    1CAL  Ca1QI27490   8.752   7.341   1.317
    1CAL  Ca1QJ27491   9.002   6.634   1.624
    1CAL  Ca1QK27492   9.002   7.437   1.623
    1CAL  Ca1QL27493   8.502   7.036   1.624
    1CAL  Ca1QM27494   9.002   7.036   1.624
    1CAL  Ca1QN27495   8.751   7.531   1.931
    1CAL  Ca1QO27496   8.252   6.537   1.317
    1CAL  Ca1QP27497   8.752   6.939   1.317
    1CAL  Ca1QQ27498   9.252   6.939   1.317
    1CAL  Ca1QR27499   9.251   7.531   1.931
    1CAL  Ca1QS27500   9.252   7.932   1.932
    1CAL  Ca1QT27501   9.751   6.728   1.932
    1CAL  Ca1QU27502   9.004   6.432   2.237
    1CAL  Ca1QV27503   8.750   6.728   1.932
    1CAL  Ca1QW27504   8.505   7.235   2.236
    1CAL  Ca1QX27505   8.502   6.634   1.624
    1CAL  Ca1QY27506   8.752   6.537   1.317
    1CAL  Ca1QZ27507   9.252   7.742   1.318
    1CAL  Ca1Qa27508   9.251   6.728   1.932
    1CAL  Ca1Qb27509   8.998   6.833   2.237
    1CAL  Ca1Qc27510   8.752   7.742   1.318
    1CAL  Ca1Qd27511   8.998   7.636   2.237
    1CAL  Ca1Qe27512   8.252   7.742   1.318
    1CAL  Ca1Qf27513   9.502   6.634   1.624
    1CAL  Ca1Qg27514   9.505   7.235   2.236
    1CAL  Ca1Qh27515   9.504   6.431   2.237
    1CAL  Ca1Qi27516   8.752   7.130   1.932
    1CAL  Ca1Qj27517   9.752   7.933   1.932
    1CAL  Ca1Qk27518   9.252   7.130   1.932
    1CAL  Ca1Ql27519   8.251   6.728   1.932
    1CAL  Ca1Qm27520  10.002   7.437   1.623
    1CAL  C01Qn27521  10.002   7.942   2.545
    1CAL  C01Qo27522   9.252   6.432   2.852
    1CAL  C01Qp27523   8.252   6.432   2.852
    1CAL  C01Qq27524   9.501   6.930   3.158
    1CAL  C01Qr27525   9.501   7.733   3.158
    1CAL  C01Qs27526   8.752   6.432   2.852
    1CAL  C01Qt27527   9.002   7.140   2.545
    1CAL  C01Qu27528   9.252   7.637   2.849
    1CAL  C01Qv27529   8.752   7.637   2.850
    1CAL  C01Qw27530   8.502   7.332   3.159
    1CAL  C01Qx27531   8.502   6.738   2.545
    1CAL  C01Qy27532   9.002   7.542   2.545
    1CAL  C01Qz27533   9.002   6.738   2.545
    1CAL  C01R027534   8.252   6.835   2.852
    1CAL  C01R127535   8.502   6.528   3.159
    1CAL  C01R227536   9.002   7.332   3.158
    1CAL  C01R327537   9.752   6.432   2.852
    1CAL  C01R427538   9.502   6.528   3.159
    1CAL  C01R527539   8.252   7.237   2.852
    1CAL  C01R627540  10.001   6.930   3.159
    1CAL  C01R727541  10.002   7.332   3.158
    1CAL  C01R827542  10.002   6.738   2.545
    1CAL  C01R927543  10.002   7.542   2.545
    1CAL  C01RA27544   8.252   7.637   2.850
    1CAL  C01RB27545   8.501   6.930   3.158
    1CAL  C01RC27546   9.502   7.140   2.545
    1CAL  C01RD27547  10.002   7.140   2.545
    1CAL  C01RE27548   9.752   6.835   2.852
    1CAL  C01RF27549   9.252   6.835   2.852
    1CAL  C01RG27550   9.502   6.738   2.545
    1CAL  C01RH27551   9.502   7.332   3.158
    1CAL  C01RI27552   8.500   7.733   3.158
    1CAL  C01RJ27553   9.502   7.942   2.545
    1CAL  C01RK27554   8.752   6.835   2.852
    1CAL  C01RL27555   9.252   7.237   2.852
    1CAL  C01RM27556   8.502   7.542   2.545
    1CAL  C01RN27557   9.752   7.637   2.849
    1CAL  C01RO27558   9.002   7.942   2.545
    1CAL  C01RP27559  10.001   7.733   3.159
    1CAL  C01RQ27560   9.002   6.528   3.158
    1CAL  C01RR27561   9.001   7.733   3.158
    1CAL  C01RS27562   9.001   6.930   3.159
    1CAL  C01RT27563   9.752   7.237   2.852
    1CAL  C01RU27564   8.502   7.942   2.545
    1CAL  C01RV27565   9.502   7.542   2.545
    1CAL  C01RW27566   8.502   7.140   2.545
    1CAL  C01RX27567   8.752   7.237   2.852
    1CAL  C01RY27568  10.002   6.528   3.159
    1CAL  C01RZ27569   8.753   7.028   3.469
    1CAL  C01Ra27570   8.749   6.627   3.469
    1CAL  C01Rb27571   8.749   7.430   3.468
    1CAL  C01Rc27572   8.753   7.831   3.469
    1CAL  C01Rd27573   9.753   7.028   3.469
    1CAL  C01Re27574   9.749   6.627   3.469
    1CAL  C01Rf27575   9.753   7.831   3.469
    1CAL  C01Rg27576   9.750   7.430   3.468
    1CAL  C01Rh27577   9.253   7.831   3.469
    1CAL  C01Ri27578   9.250   7.429   3.469
    1CAL  C01Rj27579   9.253   7.028   3.469
    1CAL  C01Rk27580   9.249   6.626   3.470
    1CAL  C01Rl27581   8.253   7.831   3.470
    1CAL  C01Rm27582   8.250   7.429   3.470
    1CAL  C01Rn27583   8.253   7.029   3.469
    1CAL  C01Ro27584   8.249   6.626   3.471
    1CAL  O04IL27585   8.187   7.159   2.931
    1CAL  O04IM27586   9.188   7.316   2.773
    1CAL  O04IN27587   9.187   7.159   2.931
    1CAL  O04IO27588   9.381   7.237   2.853
    1CAL  O04IP27589   8.566   7.863   2.624
    1CAL  O04IQ27590   8.373   7.943   2.544
    1CAL  O04IR27591   8.566   7.219   2.466
    1CAL  O04IS27592   8.688   7.316   2.773
    1CAL  O04IT27593   8.687   7.159   2.931
    1CAL  O04IU27594   8.881   7.237   2.853
    1CAL  O04IV27595   8.567   8.020   2.466
    1CAL  O04IW27596   8.566   7.062   2.624
    1CAL  O04IX27597   8.373   7.140   2.545
    1CAL  O04IY27598   9.130   7.732   3.159
    1CAL  O04IZ27599   8.937   7.811   3.078
    1CAL  O04Ia27600   8.938   7.009   3.078
    1CAL  O04Ib27601   8.935   6.852   3.238
    1CAL  O04Ic27602   9.130   6.929   3.160
    1CAL  O04Id27603   8.935   7.655   3.238
    1CAL  O04Ie27604   8.623   6.835   2.852
    1CAL  O04If27605   9.065   7.411   3.078
    1CAL  O04Ig27606   9.124   7.637   2.849
    1CAL  O04Ih27607   9.316   7.558   2.929
    1CAL  O04Ii27608   9.317   7.715   2.771
    1CAL  O04Ij27609   8.438   6.659   2.624
    1CAL  O04Ik27610   8.437   6.816   2.466
    1CAL  O04Il27611   8.623   7.637   2.849
    1CAL  O04Im27612   8.816   7.558   2.929
    1CAL  O04In27613   8.817   7.715   2.771
    1CAL  O04Io27614   8.316   6.914   2.773
    1CAL  O04Ip27615   8.816   6.756   2.931
    1CAL  O04Iq27616   8.938   7.621   2.465
    1CAL  O04Ir27617   9.131   7.542   2.545
    1CAL  O04Is27618   8.316   6.756   2.932
    1CAL  O04It27619   8.123   6.835   2.852
    1CAL  O04Iu27620   8.816   6.914   2.773
    1CAL  O04Iv27621   8.938   6.817   2.465
    1CAL  O04Iw27622   8.938   6.659   2.624
    1CAL  O04Ix27623   9.131   6.738   2.545
    1CAL  O04Iy27624   8.872   7.331   3.159
    1CAL  O04Iz27625   9.068   7.254   3.237
    1CAL  O04J027626   8.937   7.464   2.624
    1CAL  O04J127627   9.688   7.316   2.773
    1CAL  O04J227628   9.687   7.159   2.931
    1CAL  O04J327629   9.881   7.237   2.853
    1CAL  O04J427630   9.936   7.654   3.238
    1CAL  O04J527631   9.938   7.009   3.079
    1CAL  O04J627632   9.936   6.851   3.238
    1CAL  O04J727633   8.130   7.732   3.160
    1CAL  O04J827634   8.066   6.607   3.079
    1CAL  O04J927635   9.438   7.621   2.465
    1CAL  O04JA27636   9.437   7.464   2.624
    1CAL  O04JB27637   9.631   7.542   2.545
    1CAL  O04JC27638   8.067   6.450   3.239
    1CAL  O04JD27639   9.436   7.655   3.238
    1CAL  O04JE27640   8.067   8.020   2.466
    1CAL  O04JF27641   8.066   7.863   2.624
    1CAL  O04JG27642   8.873   7.943   2.544
    1CAL  O04JH27643   9.873   7.331   3.160
    1CAL  O04JI27644   9.938   6.659   2.624
    1CAL  O04JJ27645   9.066   6.607   3.079
    1CAL  O04JK27646   8.438   7.621   2.465
    1CAL  O04JL27647   8.437   7.464   2.624
    1CAL  O04JM27648   8.631   7.542   2.545
    1CAL  O04JN27649   9.067   6.449   3.238
    1CAL  O04JO27650   8.435   7.655   3.238
    1CAL  O04JP27651   8.873   6.528   3.159
    1CAL  O04JQ27652   9.874   7.140   2.545
    1CAL  O04JR27653   9.067   8.020   2.466
    1CAL  O04JS27654   9.066   7.863   2.624
    1CAL  O04JT27655   9.624   7.637   2.849
    1CAL  O04JU27656   9.816   7.558   2.929
    1CAL  O04JV27657   9.817   7.715   2.770
    1CAL  O04JW27658   9.939   7.621   2.465
    1CAL  O04JX27659   9.937   7.464   2.624
    1CAL  O04JY27660   9.938   6.817   2.465
    1CAL  O04JZ27661   8.631   6.738   2.544
    1CAL  O04Ja27662   8.381   7.237   2.853
    1CAL  O04Jb27663   8.372   7.331   3.162
    1CAL  O04Jc27664   9.067   7.062   2.624
    1CAL  O04Jd27665   9.566   7.863   2.624
    1CAL  O04Je27666   9.567   8.020   2.466
    1CAL  O04Jf27667   9.624   6.835   2.852
    1CAL  O04Jg27668   9.817   6.756   2.931
    1CAL  O04Jh27669   9.374   7.943   2.544
    1CAL  O04Ji27670   9.123   6.835   2.852
    1CAL  O04Jj27671   9.316   6.914   2.773
    1CAL  O04Jk27672   8.630   7.732   3.159
    1CAL  O04Jl27673   9.438   6.816   2.466
    1CAL  O04Jm27674   9.438   6.659   2.624
    1CAL  O04Jn27675   9.631   6.738   2.544
    1CAL  O04Jo27676   9.373   7.331   3.161
    1CAL  O04Jp27677   9.568   7.254   3.237
    1CAL  O04Jq27678   9.317   6.756   2.931
    1CAL  O04Jr27679   9.565   7.412   3.078
    1CAL  O04Js27680   8.067   7.062   2.624
    1CAL  O04Jt27681   9.567   7.062   2.624
    1CAL  O04Ju27682   8.188   7.316   2.773
    1CAL  O04Jv27683   8.065   7.412   3.078
    1CAL  O04Jw27684   8.067   7.254   3.238
    1CAL  O04Jx27685   8.130   6.929   3.160
    1CAL  O04Jy27686   8.131   6.738   2.545
    1CAL  O04Jz27687   8.130   7.542   2.545
    1CAL  O04K027688   9.566   7.219   2.466
    1CAL  O04K127689   8.317   7.715   2.771
    1CAL  O04K227690   9.874   7.943   2.544
    1CAL  O04K327691   9.873   6.528   3.160
    1CAL  O04K427692   8.123   7.637   2.849
    1CAL  O04K527693   9.937   7.811   3.078
    1CAL  O04K627694   8.066   7.219   2.466
    1CAL  O04K727695   9.374   7.140   2.545
    1CAL  O04K827696   8.316   7.558   2.929
    1CAL  O04K927697   8.436   7.812   3.078
    1CAL  O04KA27698   8.630   6.929   3.159
    1CAL  O04KB27699   9.373   6.527   3.161
    1CAL  O04KC27700   9.438   7.009   3.078
    1CAL  O04KD27701   9.436   6.852   3.238
    1CAL  O04KE27702   9.631   6.929   3.159
    1CAL  O04KF27703   8.881   6.432   2.852
    1CAL  O04KG27704   8.688   7.960   2.931
    1CAL  O04KH27705   9.436   7.811   3.078
    1CAL  O04KI27706   9.630   7.732   3.158
    1CAL  O04KJ27707   8.688   6.511   2.773
    1CAL  O04KK27708   8.565   6.607   3.079
    1CAL  O04KL27709   8.568   6.450   3.238
    1CAL  O04KM27710   8.372   6.528   3.161
    1CAL  O04KN27711   8.564   7.412   3.078
    1CAL  O04KO27712   8.569   7.254   3.238
    1CAL  O04KP27713   8.873   7.140   2.545
    1CAL  O04KQ27714   9.568   6.449   3.238
    1CAL  O04KR27715   9.566   6.607   3.079
    1CAL  O04KS27716   8.435   6.852   3.238
    1CAL  O04KT27717   8.437   7.010   3.079
    1CAL  O04KU27718   9.688   6.511   2.773
    1CAL  O04KV27719   9.688   7.960   2.931
    1CAL  O04KW27720   9.881   6.432   2.852
    1CAL  O04KX27721   8.381   6.433   2.852
    1CAL  O04KY27722   8.188   7.960   2.931
    1CAL  O04KZ27723   8.187   6.511   2.773
    1CAL  O04Ka27724   9.188   6.511   2.773
    1CAL  O04Kb27725   9.188   7.960   2.931
    1CAL  O04Kc27726   9.381   6.433   2.852
    1CAL  O04Kd27727   9.066   7.219   2.466
    1CAL  O04Ke27728   9.817   6.914   2.773
    1CAL  O04Kf27729   8.822   7.905   3.387
    1CAL  O04Kg27730   8.813   7.753   3.553
    1CAL  O04Kh27731   8.623   7.837   3.467
    1CAL  O04Ki27732   8.680   7.504   3.386
    1CAL  O04Kj27733   8.689   7.353   3.552
    1CAL  O04Kk27734   8.879   7.435   3.465
    1CAL  O04Kl27735   8.879   6.632   3.466
    1CAL  O04Km27736   8.689   6.549   3.553
    1CAL  O04Kn27737   8.680   6.700   3.387
    1CAL  O04Ko27738   8.623   7.034   3.466
    1CAL  O04Kp27739   8.813   6.950   3.552
    1CAL  O04Kq27740   8.822   7.102   3.387
    1CAL  O04Kr27741   9.681   7.504   3.386
    1CAL  O04Ks27742   9.879   7.435   3.466
    1CAL  O04Kt27743   9.689   7.352   3.552
    1CAL  O04Ku27744   9.624   7.836   3.466
    1CAL  O04Kv27745   9.813   7.753   3.552
    1CAL  O04Kw27746   9.822   7.905   3.387
    1CAL  O04Kx27747   9.680   6.700   3.387
    1CAL  O04Ky27748   9.879   6.632   3.466
    1CAL  O04Kz27749   9.689   6.549   3.553
    1CAL  O04L027750   9.623   7.033   3.466
    1CAL  O04L127751   9.813   6.950   3.552
    1CAL  O04L227752   9.822   7.102   3.387
    1CAL  O04L327753   9.313   7.753   3.553
    1CAL  O04L427754   9.123   7.836   3.467
    1CAL  O04L527755   9.322   7.904   3.387
    1CAL  O04L627756   9.181   7.503   3.387
    1CAL  O04L727757   9.190   7.351   3.553
    1CAL  O04L827758   9.380   7.435   3.467
    1CAL  O04L927759   9.313   6.950   3.553
    1CAL  O04LA27760   9.322   7.101   3.387
    1CAL  O04LB27761   9.123   7.034   3.466
    1CAL  O04LC27762   9.181   6.700   3.388
    1CAL  O04LD27763   9.189   6.548   3.553
    1CAL  O04LE27764   9.379   6.632   3.468
    1CAL  O04LF27765   8.312   7.753   3.554
    1CAL  O04LG27766   8.123   7.837   3.467
    1CAL  O04LH27767   8.322   7.904   3.388
    1CAL  O04LI27768   8.181   7.503   3.388
    1CAL  O04LJ27769   8.190   7.351   3.553
    1CAL  O04LK27770   8.380   7.435   3.469
    1CAL  O04LL27771   8.312   6.951   3.554
    1CAL  O04LM27772   8.123   7.034   3.466
    1CAL  O04LN27773   8.322   7.102   3.387
    1CAL  O04LO27774   8.379   6.632   3.469
    1CAL  O04LP27775   8.189   6.548   3.554
    1CAL  O04LQ27776   8.181   6.700   3.389
    1CAL  Ca1Qn27777   9.004   7.235   3.464
    1CAL  Ca1Qo27778   9.752   6.939   2.545
    1CAL  Ca1Qp27779   9.498   7.636   3.465
    1CAL  Ca1Qq27780   8.004   7.235   3.465
    1CAL  Ca1Qr27781   8.752   7.932   3.160
    1CAL  Ca1Qs27782   9.752   7.341   2.545
    1CAL  Ca1Qt27783   9.502   7.036   2.852
    1CAL  Ca1Qu27784   9.502   7.838   2.852
    1CAL  Ca1Qv27785   8.251   7.531   3.159
    1CAL  Ca1Qw27786   9.002   7.838   2.852
    1CAL  Ca1Qx27787   8.504   6.432   3.465
    1CAL  Ca1Qy27788   8.252   6.939   2.545
    1CAL  Ca1Qz27789   8.252   7.130   3.160
    1CAL  Ca1R027790   9.999   6.833   3.465
    1CAL  Ca1R127791   9.999   7.636   3.465
    1CAL  Ca1R227792   9.751   7.531   3.158
    1CAL  Ca1R327793   9.252   6.537   2.545
    1CAL  Ca1R427794  10.002   7.838   2.852
    1CAL  Ca1R527795   9.752   6.537   2.545
    1CAL  Ca1R627796   8.497   6.834   3.465
    1CAL  Ca1R727797   8.004   6.432   3.466
    1CAL  Ca1R827798   9.753   7.130   3.160
    1CAL  Ca1R927799   8.252   7.341   2.545
    1CAL  Ca1RA27800  10.002   7.036   2.852
    1CAL  Ca1RB27801   9.502   7.437   2.851
    1CAL  Ca1RC27802   8.252   7.933   3.160
    1CAL  Ca1RD27803   9.752   7.742   2.546
    1CAL  Ca1RE27804   8.502   7.437   2.851
    1CAL  Ca1RF27805   8.498   7.637   3.465
    1CAL  Ca1RG27806  10.002   6.634   2.852
    1CAL  Ca1RH27807   8.502   7.838   2.852
    1CAL  Ca1RI27808   9.498   6.833   3.465
    1CAL  Ca1RJ27809   9.252   7.341   2.545
    1CAL  Ca1RK27810   8.752   7.341   2.545
    1CAL  Ca1RL27811   9.002   6.634   2.852
    1CAL  Ca1RM27812   9.002   7.437   2.851
    1CAL  Ca1RN27813   8.502   7.036   2.852
    1CAL  Ca1RO27814   9.002   7.036   2.852
    1CAL  Ca1RP27815   8.751   7.531   3.159
    1CAL  Ca1RQ27816   8.252   6.537   2.545
    1CAL  Ca1RR27817   8.752   6.939   2.545
    1CAL  Ca1RS27818   9.252   6.939   2.545
    1CAL  Ca1RT27819   9.251   7.531   3.159
    1CAL  Ca1RU27820   9.252   7.932   3.160
    1CAL  Ca1RV27821   9.751   6.728   3.160
    1CAL  Ca1RW27822   9.004   6.432   3.465
    1CAL  Ca1RX27823   8.750   6.728   3.160
    1CAL  Ca1RY27824   8.505   7.235   3.464
    1CAL  Ca1RZ27825   8.502   6.634   2.852
    1CAL  Ca1Ra27826   8.752   6.537   2.545
    1CAL  Ca1Rb27827   9.252   7.742   2.546
    1CAL  Ca1Rc27828   9.251   6.728   3.160
    1CAL  Ca1Rd27829   8.998   6.833   3.465
    1CAL  Ca1Re27830   8.752   7.742   2.546
    1CAL  Ca1Rf27831   8.998   7.636   3.465
    1CAL  Ca1Rg27832   8.252   7.742   2.546
    1CAL  Ca1Rh27833   9.502   6.634   2.852
    1CAL  Ca1Ri27834   9.505   7.235   3.464
    1CAL  Ca1Rj27835   9.504   6.431   3.465
    1CAL  Ca1Rk27836   8.752   7.130   3.160
    1CAL  Ca1Rl27837   9.752   7.933   3.160
    1CAL  Ca1Rm27838   9.252   7.130   3.160
    1CAL  Ca1Rn27839   8.251   6.728   3.160
    1CAL  Ca1Ro27840  10.002   7.437   2.851
    1CAL  C01Rp27841  10.002   9.548   0.089
    1CAL  C01Rq27842   9.252   8.038   0.396
    1CAL  C01Rr27843   8.252   8.038   0.396
    1CAL  C01Rs27844   9.501   8.536   0.702
    1CAL  C01Rt27845   9.501   9.339   0.702
    1CAL  C01Ru27846   8.752   8.038   0.396
    1CAL  C01Rv27847   9.002   8.746   0.089
    1CAL  C01Rw27848   9.252   9.243   0.393
    1CAL  C01Rx27849   8.752   9.243   0.394
    1CAL  C01Ry27850   8.502   8.938   0.703
    1CAL  C01Rz27851   8.502   8.344   0.089
    1CAL  C01S027852   9.002   9.148   0.089
    1CAL  C01S127853   9.002   8.344   0.089
    1CAL  C01S227854   8.252   8.441   0.396
    1CAL  C01S327855   8.502   8.134   0.703
    1CAL  C01S427856   9.002   8.938   0.702
    1CAL  C01S527857   9.752   8.038   0.396
    1CAL  C01S627858   9.502   8.134   0.703
    1CAL  C01S727859   8.252   8.843   0.396
    1CAL  C01S827860  10.001   8.536   0.703
    1CAL  C01S927861  10.002   8.938   0.702
    1CAL  C01SA27862  10.002   8.344   0.089
    1CAL  C01SB27863  10.002   9.148   0.089
    1CAL  C01SC27864   8.252   9.243   0.394
    1CAL  C01SD27865   8.501   8.536   0.702
    1CAL  C01SE27866   9.502   8.746   0.089
    1CAL  C01SF27867  10.002   8.746   0.089
    1CAL  C01SG27868   9.752   8.441   0.396
    1CAL  C01SH27869   9.252   8.441   0.396
    1CAL  C01SI27870   9.502   8.344   0.089
    1CAL  C01SJ27871   9.502   8.938   0.702
    1CAL  C01SK27872   8.500   9.339   0.702
    1CAL  C01SL27873   9.502   9.548   0.089
    1CAL  C01SM27874   8.752   8.441   0.396
    1CAL  C01SN27875   9.252   8.843   0.396
    1CAL  C01SO27876   8.502   9.148   0.089
    1CAL  C01SP27877   9.752   9.243   0.393
    1CAL  C01SQ27878   9.002   9.548   0.089
    1CAL  C01SR27879  10.001   9.339   0.703
    1CAL  C01SS27880   9.002   8.134   0.702
    1CAL  C01ST27881   9.001   9.339   0.702
    1CAL  C01SU27882   9.001   8.536   0.703
    1CAL  C01SV27883   9.752   8.843   0.396
    1CAL  C01SW27884   8.502   9.548   0.089
    1CAL  C01SX27885   9.502   9.148   0.089
    1CAL  C01SY27886   8.502   8.746   0.089
    1CAL  C01SZ27887   8.752   8.843   0.396
    1CAL  C01Sa27888  10.002   8.134   0.703
    1CAL  C01Sb27889   8.753   8.634   1.013
    1CAL  C01Sc27890   8.749   8.233   1.013
    1CAL  C01Sd27891   8.749   9.036   1.012
    1CAL  C01Se27892   8.753   9.437   1.013
    1CAL  C01Sf27893   9.753   8.634   1.013
    1CAL  C01Sg27894   9.749   8.233   1.013
    1CAL  C01Sh27895   9.753   9.437   1.013
    1CAL  C01Si27896   9.750   9.036   1.012
    1CAL  C01Sj27897   9.253   9.437   1.013
    1CAL  C01Sk27898   9.250   9.035   1.013
    1CAL  C01Sl27899   9.253   8.634   1.013
    1CAL  C01Sm27900   9.249   8.232   1.014
    1CAL  C01Sn27901   8.253   9.437   1.014
    1CAL  C01So27902   8.250   9.035   1.014
    1CAL  C01Sp27903   8.253   8.635   1.013
    1CAL  C01Sq27904   8.249   8.232   1.015
    1CAL  O04LR27905   8.187   8.765   0.475
    1CAL  O04LS27906   9.188   8.922   0.317
    1CAL  O04LT27907   9.187   8.765   0.475
    1CAL  O04LU27908   9.381   8.843   0.397
    1CAL  O04LV27909   8.566   9.469   0.168
    1CAL  O04LW27910   8.373   9.549   0.088
    1CAL  O04LX27911   8.566   8.825   0.010
    1CAL  O04LY27912   8.688   8.922   0.317
    1CAL  O04LZ27913   8.687   8.765   0.475
    1CAL  O04La27914   8.881   8.843   0.397
    1CAL  O04Lb27915   8.567   9.626   0.010
    1CAL  O04Lc27916   8.566   8.668   0.168
    1CAL  O04Ld27917   8.373   8.746   0.089
    1CAL  O04Le27918   9.130   9.338   0.703
    1CAL  O04Lf27919   8.937   9.417   0.622
    1CAL  O04Lg27920   8.938   8.615   0.622
    1CAL  O04Lh27921   8.935   8.458   0.782
    1CAL  O04Li27922   9.130   8.535   0.704
    1CAL  O04Lj27923   8.935   9.261   0.782
    1CAL  O04Lk27924   8.623   8.441   0.396
    1CAL  O04Ll27925   9.065   9.017   0.622
    1CAL  O04Lm27926   9.124   9.243   0.393
    1CAL  O04Ln27927   9.316   9.164   0.473
    1CAL  O04Lo27928   9.317   9.321   0.315
    1CAL  O04Lp27929   8.438   8.265   0.168
    1CAL  O04Lq27930   8.437   8.422   0.010
    1CAL  O04Lr27931   8.623   9.243   0.393
    1CAL  O04Ls27932   8.816   9.164   0.473
    1CAL  O04Lt27933   8.817   9.321   0.315
    1CAL  O04Lu27934   8.316   8.520   0.317
    1CAL  O04Lv27935   8.816   8.362   0.475
    1CAL  O04Lw27936   8.938   9.227   0.009
    1CAL  O04Lx27937   9.131   9.148   0.089
    1CAL  O04Ly27938   8.316   8.362   0.476
    1CAL  O04Lz27939   8.123   8.441   0.396
    1CAL  O04M027940   8.816   8.520   0.317
    1CAL  O04M127941   8.938   8.423   0.009
    1CAL  O04M227942   8.938   8.265   0.168
    1CAL  O04M327943   9.131   8.344   0.089
    1CAL  O04M427944   8.872   8.937   0.703
    1CAL  O04M527945   9.068   8.860   0.781
    1CAL  O04M627946   8.937   9.070   0.168
    1CAL  O04M727947   9.688   8.922   0.317
    1CAL  O04M827948   9.687   8.765   0.475
    1CAL  O04M927949   9.881   8.843   0.397
    1CAL  O04MA27950   9.936   9.260   0.782
    1CAL  O04MB27951   9.938   8.615   0.623
    1CAL  O04MC27952   9.936   8.457   0.782
    1CAL  O04MD27953   8.130   9.338   0.704
    1CAL  O04ME27954   8.066   8.213   0.623
    1CAL  O04MF27955   9.438   9.227   0.009
    1CAL  O04MG27956   9.437   9.070   0.168
    1CAL  O04MH27957   9.631   9.148   0.089
    1CAL  O04MI27958   8.067   8.056   0.783
    1CAL  O04MJ27959   9.436   9.261   0.782
    1CAL  O04MK27960   8.067   9.626   0.010
    1CAL  O04ML27961   8.066   9.469   0.168
    1CAL  O04MM27962   8.873   9.549   0.088
    1CAL  O04MN27963   9.873   8.937   0.704
    1CAL  O04MO27964   9.938   8.265   0.168
    1CAL  O04MP27965   9.066   8.213   0.623
    1CAL  O04MQ27966   8.438   9.227   0.009
    1CAL  O04MR27967   8.437   9.070   0.168
    1CAL  O04MS27968   8.631   9.148   0.089
    1CAL  O04MT27969   9.067   8.055   0.782
    1CAL  O04MU27970   8.435   9.261   0.782
    1CAL  O04MV27971   8.873   8.134   0.703
    1CAL  O04MW27972   9.874   8.746   0.089
    1CAL  O04MX27973   9.067   9.626   0.010
    1CAL  O04MY27974   9.066   9.469   0.168
    1CAL  O04MZ27975   9.624   9.243   0.393
    1CAL  O04Ma27976   9.816   9.164   0.473
    1CAL  O04Mb27977   9.817   9.321   0.314
    1CAL  O04Mc27978   9.939   9.227   0.009
    1CAL  O04Md27979   9.937   9.070   0.168
    1CAL  O04Me27980   9.938   8.423   0.009
    1CAL  O04Mf27981   8.631   8.344   0.088
    1CAL  O04Mg27982   8.381   8.843   0.397
    1CAL  O04Mh27983   8.372   8.937   0.706
    1CAL  O04Mi27984   9.067   8.668   0.168
    1CAL  O04Mj27985   9.566   9.469   0.168
    1CAL  O04Mk27986   9.567   9.626   0.010
    1CAL  O04Ml27987   9.624   8.441   0.396
    1CAL  O04Mm27988   9.817   8.362   0.475
    1CAL  O04Mn27989   9.374   9.549   0.088
    1CAL  O04Mo27990   9.123   8.441   0.396
    1CAL  O04Mp27991   9.316   8.520   0.317
    1CAL  O04Mq27992   8.630   9.338   0.703
    1CAL  O04Mr27993   9.438   8.422   0.010
    1CAL  O04Ms27994   9.438   8.265   0.168
    1CAL  O04Mt27995   9.631   8.344   0.088
    1CAL  O04Mu27996   9.373   8.937   0.705
    1CAL  O04Mv27997   9.568   8.860   0.781
    1CAL  O04Mw27998   9.317   8.362   0.475
    1CAL  O04Mx27999   9.565   9.018   0.622
    1CAL  O04My28000   8.067   8.668   0.168
    1CAL  O04Mz28001   9.567   8.668   0.168
    1CAL  O04N028002   8.188   8.922   0.317
    1CAL  O04N128003   8.065   9.018   0.622
    1CAL  O04N228004   8.067   8.860   0.782
    1CAL  O04N328005   8.130   8.535   0.704
    1CAL  O04N428006   8.131   8.344   0.089
    1CAL  O04N528007   8.130   9.148   0.089
    1CAL  O04N628008   9.566   8.825   0.010
    1CAL  O04N728009   8.317   9.321   0.315
    1CAL  O04N828010   9.874   9.549   0.088
    1CAL  O04N928011   9.873   8.134   0.704
    1CAL  O04NA28012   8.123   9.243   0.393
    1CAL  O04NB28013   9.937   9.417   0.622
    1CAL  O04NC28014   8.066   8.825   0.010
    1CAL  O04ND28015   9.374   8.746   0.089
    1CAL  O04NE28016   8.316   9.164   0.473
    1CAL  O04NF28017   8.436   9.418   0.622
    1CAL  O04NG28018   8.630   8.535   0.703
    1CAL  O04NH28019   9.373   8.133   0.705
    1CAL  O04NI28020   9.438   8.615   0.622
    1CAL  O04NJ28021   9.436   8.458   0.782
    1CAL  O04NK28022   9.631   8.535   0.703
    1CAL  O04NL28023   8.881   8.038   0.396
    1CAL  O04NM28024   8.688   9.566   0.475
    1CAL  O04NN28025   9.436   9.417   0.622
    1CAL  O04NO28026   9.630   9.338   0.702
    1CAL  O04NP28027   8.688   8.117   0.317
    1CAL  O04NQ28028   8.565   8.213   0.623
    1CAL  O04NR28029   8.568   8.056   0.782
    1CAL  O04NS28030   8.372   8.134   0.705
    1CAL  O04NT28031   8.564   9.018   0.622
    1CAL  O04NU28032   8.569   8.860   0.782
    1CAL  O04NV28033   8.873   8.746   0.089
    1CAL  O04NW28034   9.568   8.055   0.782
    1CAL  O04NX28035   9.566   8.213   0.623
    1CAL  O04NY28036   8.435   8.458   0.782
    1CAL  O04NZ28037   8.437   8.616   0.623
    1CAL  O04Na28038   9.688   8.117   0.317
    1CAL  O04Nb28039   9.688   9.566   0.475
    1CAL  O04Nc28040   9.881   8.038   0.396
    1CAL  O04Nd28041   8.381   8.039   0.396
    1CAL  O04Ne28042   8.188   9.566   0.475
    1CAL  O04Nf28043   8.187   8.117   0.317
    1CAL  O04Ng28044   9.188   8.117   0.317
    1CAL  O04Nh28045   9.188   9.566   0.475
    1CAL  O04Ni28046   9.381   8.039   0.396
    1CAL  O04Nj28047   9.066   8.825   0.010
    1CAL  O04Nk28048   9.817   8.520   0.317
    1CAL  O04Nl28049   8.822   9.511   0.931
    1CAL  O04Nm28050   8.813   9.359   1.097
    1CAL  O04Nn28051   8.623   9.443   1.011
    1CAL  O04No28052   8.680   9.110   0.930
    1CAL  O04Np28053   8.689   8.959   1.096
    1CAL  O04Nq28054   8.879   9.041   1.009
    1CAL  O04Nr28055   8.879   8.238   1.010
    1CAL  O04Ns28056   8.689   8.155   1.097
    1CAL  O04Nt28057   8.680   8.306   0.931
    1CAL  O04Nu28058   8.623   8.640   1.010
    1CAL  O04Nv28059   8.813   8.556   1.096
    1CAL  O04Nw28060   8.822   8.708   0.931
    1CAL  O04Nx28061   9.681   9.110   0.930
    1CAL  O04Ny28062   9.879   9.041   1.010
    1CAL  O04Nz28063   9.689   8.958   1.096
    1CAL  O04O028064   9.624   9.442   1.010
    1CAL  O04O128065   9.813   9.359   1.096
    1CAL  O04O228066   9.822   9.511   0.931
    1CAL  O04O328067   9.680   8.306   0.931
    1CAL  O04O428068   9.879   8.238   1.010
    1CAL  O04O528069   9.689   8.155   1.097
    1CAL  O04O628070   9.623   8.639   1.010
    1CAL  O04O728071   9.813   8.556   1.096
    1CAL  O04O828072   9.822   8.708   0.931
    1CAL  O04O928073   9.313   9.359   1.097
    1CAL  O04OA28074   9.123   9.442   1.011
    1CAL  O04OB28075   9.322   9.510   0.931
    1CAL  O04OC28076   9.181   9.109   0.931
    1CAL  O04OD28077   9.190   8.957   1.097
    1CAL  O04OE28078   9.380   9.041   1.011
    1CAL  O04OF28079   9.313   8.556   1.097
    1CAL  O04OG28080   9.322   8.707   0.931
    1CAL  O04OH28081   9.123   8.640   1.010
    1CAL  O04OI28082   9.181   8.306   0.932
    1CAL  O04OJ28083   9.189   8.154   1.097
    1CAL  O04OK28084   9.379   8.238   1.012
    1CAL  O04OL28085   8.312   9.359   1.098
    1CAL  O04OM28086   8.123   9.443   1.011
    1CAL  O04ON28087   8.322   9.510   0.932
    1CAL  O04OO28088   8.181   9.109   0.932
    1CAL  O04OP28089   8.190   8.957   1.097
    1CAL  O04OQ28090   8.380   9.041   1.013
    1CAL  O04OR28091   8.312   8.557   1.098
    1CAL  O04OS28092   8.123   8.640   1.010
    1CAL  O04OT28093   8.322   8.708   0.931
    1CAL  O04OU28094   8.379   8.238   1.013
    1CAL  O04OV28095   8.189   8.154   1.098
    1CAL  O04OW28096   8.181   8.306   0.933
    1CAL  Ca1Rp28097   9.004   8.841   1.008
    1CAL  Ca1Rq28098   9.752   8.545   0.089
    1CAL  Ca1Rr28099   9.498   9.242   1.009
    1CAL  Ca1Rs28100   8.004   8.841   1.009
    1CAL  Ca1Rt28101   8.752   9.538   0.704
    1CAL  Ca1Ru28102   9.752   8.947   0.089
    1CAL  Ca1Rv28103   9.502   8.642   0.396
    1CAL  Ca1Rw28104   9.502   9.444   0.396
    1CAL  Ca1Rx28105   8.251   9.137   0.703
    1CAL  Ca1Ry28106   9.002   9.444   0.396
    1CAL  Ca1Rz28107   8.504   8.038   1.009
    1CAL  Ca1S028108   8.252   8.545   0.089
    1CAL  Ca1S128109   8.252   8.736   0.704
    1CAL  Ca1S228110   9.999   8.439   1.009
    1CAL  Ca1S328111   9.999   9.242   1.009
    1CAL  Ca1S428112   9.751   9.137   0.702
    1CAL  Ca1S528113   9.252   8.143   0.089
    1CAL  Ca1S628114  10.002   9.444   0.396
    1CAL  Ca1S728115   9.752   8.143   0.089
    1CAL  Ca1S828116   8.497   8.440   1.009
    1CAL  Ca1S928117   8.004   8.038   1.010
    1CAL  Ca1SA28118   9.753   8.736   0.704
    1CAL  Ca1SB28119   8.252   8.947   0.089
    1CAL  Ca1SC28120  10.002   8.642   0.396
    1CAL  Ca1SD28121   9.502   9.043   0.395
    1CAL  Ca1SE28122   8.252   9.539   0.704
    1CAL  Ca1SF28123   9.752   9.348   0.090
    1CAL  Ca1SG28124   8.502   9.043   0.395
    1CAL  Ca1SH28125   8.498   9.243   1.009
    1CAL  Ca1SI28126  10.002   8.240   0.396
    1CAL  Ca1SJ28127   8.502   9.444   0.396
    1CAL  Ca1SK28128   9.498   8.439   1.009
    1CAL  Ca1SL28129   9.252   8.947   0.089
    1CAL  Ca1SM28130   8.752   8.947   0.089
    1CAL  Ca1SN28131   9.002   8.240   0.396
    1CAL  Ca1SO28132   9.002   9.043   0.395
    1CAL  Ca1SP28133   8.502   8.642   0.396
    1CAL  Ca1SQ28134   9.002   8.642   0.396
    1CAL  Ca1SR28135   8.751   9.137   0.703
    1CAL  Ca1SS28136   8.252   8.143   0.089
    1CAL  Ca1ST28137   8.752   8.545   0.089
    1CAL  Ca1SU28138   9.252   8.545   0.089
    1CAL  Ca1SV28139   9.251   9.137   0.703
    1CAL  Ca1SW28140   9.252   9.538   0.704
    1CAL  Ca1SX28141   9.751   8.334   0.704
    1CAL  Ca1SY28142   9.004   8.038   1.009
    1CAL  Ca1SZ28143   8.750   8.334   0.704
    1CAL  Ca1Sa28144   8.505   8.841   1.008
    1CAL  Ca1Sb28145   8.502   8.240   0.396
    1CAL  Ca1Sc28146   8.752   8.143   0.089
    1CAL  Ca1Sd28147   9.252   9.348   0.090
    1CAL  Ca1Se28148   9.251   8.334   0.704
    1CAL  Ca1Sf28149   8.998   8.439   1.009
    1CAL  Ca1Sg28150   8.752   9.348   0.090
    1CAL  Ca1Sh28151   8.998   9.242   1.009
    1CAL  Ca1Si28152   8.252   9.348   0.090
    1CAL  Ca1Sj28153   9.502   8.240   0.396
    1CAL  Ca1Sk28154   9.505   8.841   1.008
    1CAL  Ca1Sl28155   9.504   8.037   1.009
    1CAL  Ca1Sm28156   8.752   8.736   0.704
    1CAL  Ca1Sn28157   9.752   9.539   0.704
    1CAL  Ca1So28158   9.252   8.736   0.704
    1CAL  Ca1Sp28159   8.251   8.334   0.704
    1CAL  Ca1Sq28160  10.002   9.043   0.395
    1CAL  C01Sr28161  10.002   9.548   1.317
    1CAL  C01Ss28162   9.252   8.038   1.624
    1CAL  C01St28163   8.252   8.038   1.624
    1CAL  C01Su28164   9.501   8.536   1.930
    1CAL  C01Sv28165   9.501   9.339   1.930
    1CAL  C01Sw28166   8.752   8.038   1.624
    1CAL  C01Sx28167   9.002   8.746   1.317
    1CAL  C01Sy28168   9.252   9.243   1.621
    1CAL  C01Sz28169   8.752   9.243   1.622
    1CAL  C01T028170   8.502   8.938   1.931
    1CAL  C01T128171   8.502   8.344   1.317
    1CAL  C01T228172   9.002   9.148   1.317
    1CAL  C01T328173   9.002   8.344   1.317
    1CAL  C01T428174   8.252   8.441   1.624
    1CAL  C01T528175   8.502   8.134   1.931
    1CAL  C01T628176   9.002   8.938   1.930
    1CAL  C01T728177   9.752   8.038   1.624
    1CAL  C01T828178   9.502   8.134   1.931
    1CAL  C01T928179   8.252   8.843   1.624
    1CAL  C01TA28180  10.001   8.536   1.931
    1CAL  C01TB28181  10.002   8.938   1.930
    1CAL  C01TC28182  10.002   8.344   1.317
    1CAL  C01TD28183  10.002   9.148   1.317
    1CAL  C01TE28184   8.252   9.243   1.622
    1CAL  C01TF28185   8.501   8.536   1.930
    1CAL  C01TG28186   9.502   8.746   1.317
    1CAL  C01TH28187  10.002   8.746   1.317
    1CAL  C01TI28188   9.752   8.441   1.624
    1CAL  C01TJ28189   9.252   8.441   1.624
    1CAL  C01TK28190   9.502   8.344   1.317
    1CAL  C01TL28191   9.502   8.938   1.930
    1CAL  C01TM28192   8.500   9.339   1.930
    1CAL  C01TN28193   9.502   9.548   1.317
    1CAL  C01TO28194   8.752   8.441   1.624
    1CAL  C01TP28195   9.252   8.843   1.624
    1CAL  C01TQ28196   8.502   9.148   1.317
    1CAL  C01TR28197   9.752   9.243   1.621
    1CAL  C01TS28198   9.002   9.548   1.317
    1CAL  C01TT28199  10.001   9.339   1.931
    1CAL  C01TU28200   9.002   8.134   1.930
    1CAL  C01TV28201   9.001   9.339   1.930
    1CAL  C01TW28202   9.001   8.536   1.931
    1CAL  C01TX28203   9.752   8.843   1.624
    1CAL  C01TY28204   8.502   9.548   1.317
    1CAL  C01TZ28205   9.502   9.148   1.317
    1CAL  C01Ta28206   8.502   8.746   1.317
    1CAL  C01Tb28207   8.752   8.843   1.624
    1CAL  C01Tc28208  10.002   8.134   1.931
    1CAL  C01Td28209   8.753   8.634   2.241
    1CAL  C01Te28210   8.749   8.233   2.241
    1CAL  C01Tf28211   8.749   9.036   2.240
    1CAL  C01Tg28212   8.753   9.437   2.241
    1CAL  C01Th28213   9.753   8.634   2.241
    1CAL  C01Ti28214   9.749   8.233   2.241
    1CAL  C01Tj28215   9.753   9.437   2.241
    1CAL  C01Tk28216   9.750   9.036   2.240
    1CAL  C01Tl28217   9.253   9.437   2.241
    1CAL  C01Tm28218   9.250   9.035   2.241
    1CAL  C01Tn28219   9.253   8.634   2.241
    1CAL  C01To28220   9.249   8.232   2.242
    1CAL  C01Tp28221   8.253   9.437   2.242
    1CAL  C01Tq28222   8.250   9.035   2.242
    1CAL  C01Tr28223   8.253   8.635   2.241
    1CAL  C01Ts28224   8.249   8.232   2.243
    1CAL  O04OX28225   8.187   8.765   1.703
    1CAL  O04OY28226   9.188   8.922   1.545
    1CAL  O04OZ28227   9.187   8.765   1.703
    1CAL  O04Oa28228   9.381   8.843   1.625
    1CAL  O04Ob28229   8.566   9.469   1.396
    1CAL  O04Oc28230   8.373   9.549   1.316
    1CAL  O04Od28231   8.566   8.825   1.238
    1CAL  O04Oe28232   8.688   8.922   1.545
    1CAL  O04Of28233   8.687   8.765   1.703
    1CAL  O04Og28234   8.881   8.843   1.625
    1CAL  O04Oh28235   8.567   9.626   1.238
    1CAL  O04Oi28236   8.566   8.668   1.396
    1CAL  O04Oj28237   8.373   8.746   1.317
    1CAL  O04Ok28238   9.130   9.338   1.931
    1CAL  O04Ol28239   8.937   9.417   1.850
    1CAL  O04Om28240   8.938   8.615   1.850
    1CAL  O04On28241   8.935   8.458   2.010
    1CAL  O04Oo28242   9.130   8.535   1.932
    1CAL  O04Op28243   8.935   9.261   2.010
    1CAL  O04Oq28244   8.623   8.441   1.624
    1CAL  O04Or28245   9.065   9.017   1.850
    1CAL  O04Os28246   9.124   9.243   1.621
    1CAL  O04Ot28247   9.316   9.164   1.701
    1CAL  O04Ou28248   9.317   9.321   1.543
    1CAL  O04Ov28249   8.438   8.265   1.396
    1CAL  O04Ow28250   8.437   8.422   1.238
    1CAL  O04Ox28251   8.623   9.243   1.621
    1CAL  O04Oy28252   8.816   9.164   1.701
    1CAL  O04Oz28253   8.817   9.321   1.543
    1CAL  O04P028254   8.316   8.520   1.545
    1CAL  O04P128255   8.816   8.362   1.703
    1CAL  O04P228256   8.938   9.227   1.237
    1CAL  O04P328257   9.131   9.148   1.317
    1CAL  O04P428258   8.316   8.362   1.704
    1CAL  O04P528259   8.123   8.441   1.624
    1CAL  O04P628260   8.816   8.520   1.545
    1CAL  O04P728261   8.938   8.423   1.237
    1CAL  O04P828262   8.938   8.265   1.396
    1CAL  O04P928263   9.131   8.344   1.317
    1CAL  O04PA28264   8.872   8.937   1.931
    1CAL  O04PB28265   9.068   8.860   2.009
    1CAL  O04PC28266   8.937   9.070   1.396
    1CAL  O04PD28267   9.688   8.922   1.545
    1CAL  O04PE28268   9.687   8.765   1.703
    1CAL  O04PF28269   9.881   8.843   1.625
    1CAL  O04PG28270   9.936   9.260   2.010
    1CAL  O04PH28271   9.938   8.615   1.851
    1CAL  O04PI28272   9.936   8.457   2.010
    1CAL  O04PJ28273   8.130   9.338   1.932
    1CAL  O04PK28274   8.066   8.213   1.851
    1CAL  O04PL28275   9.438   9.227   1.237
    1CAL  O04PM28276   9.437   9.070   1.396
    1CAL  O04PN28277   9.631   9.148   1.317
    1CAL  O04PO28278   8.067   8.056   2.011
    1CAL  O04PP28279   9.436   9.261   2.010
    1CAL  O04PQ28280   8.067   9.626   1.238
    1CAL  O04PR28281   8.066   9.469   1.396
    1CAL  O04PS28282   8.873   9.549   1.316
    1CAL  O04PT28283   9.873   8.937   1.932
    1CAL  O04PU28284   9.938   8.265   1.396
    1CAL  O04PV28285   9.066   8.213   1.851
    1CAL  O04PW28286   8.438   9.227   1.237
    1CAL  O04PX28287   8.437   9.070   1.396
    1CAL  O04PY28288   8.631   9.148   1.317
    1CAL  O04PZ28289   9.067   8.055   2.010
    1CAL  O04Pa28290   8.435   9.261   2.010
    1CAL  O04Pb28291   8.873   8.134   1.931
    1CAL  O04Pc28292   9.874   8.746   1.317
    1CAL  O04Pd28293   9.067   9.626   1.238
    1CAL  O04Pe28294   9.066   9.469   1.396
    1CAL  O04Pf28295   9.624   9.243   1.621
    1CAL  O04Pg28296   9.816   9.164   1.701
    1CAL  O04Ph28297   9.817   9.321   1.542
    1CAL  O04Pi28298   9.939   9.227   1.237
    1CAL  O04Pj28299   9.937   9.070   1.396
    1CAL  O04Pk28300   9.938   8.423   1.237
    1CAL  O04Pl28301   8.631   8.344   1.316
    1CAL  O04Pm28302   8.381   8.843   1.625
    1CAL  O04Pn28303   8.372   8.937   1.934
    1CAL  O04Po28304   9.067   8.668   1.396
    1CAL  O04Pp28305   9.566   9.469   1.396
    1CAL  O04Pq28306   9.567   9.626   1.238
    1CAL  O04Pr28307   9.624   8.441   1.624
    1CAL  O04Ps28308   9.817   8.362   1.703
    1CAL  O04Pt28309   9.374   9.549   1.316
    1CAL  O04Pu28310   9.123   8.441   1.624
    1CAL  O04Pv28311   9.316   8.520   1.545
    1CAL  O04Pw28312   8.630   9.338   1.931
    1CAL  O04Px28313   9.438   8.422   1.238
    1CAL  O04Py28314   9.438   8.265   1.396
    1CAL  O04Pz28315   9.631   8.344   1.316
    1CAL  O04Q028316   9.373   8.937   1.933
    1CAL  O04Q128317   9.568   8.860   2.009
    1CAL  O04Q228318   9.317   8.362   1.703
    1CAL  O04Q328319   9.565   9.018   1.850
    1CAL  O04Q428320   8.067   8.668   1.396
    1CAL  O04Q528321   9.567   8.668   1.396
    1CAL  O04Q628322   8.188   8.922   1.545
    1CAL  O04Q728323   8.065   9.018   1.850
    1CAL  O04Q828324   8.067   8.860   2.010
    1CAL  O04Q928325   8.130   8.535   1.932
    1CAL  O04QA28326   8.131   8.344   1.317
    1CAL  O04QB28327   8.130   9.148   1.317
    1CAL  O04QC28328   9.566   8.825   1.238
    1CAL  O04QD28329   8.317   9.321   1.543
    1CAL  O04QE28330   9.874   9.549   1.316
    1CAL  O04QF28331   9.873   8.134   1.932
    1CAL  O04QG28332   8.123   9.243   1.621
    1CAL  O04QH28333   9.937   9.417   1.850
    1CAL  O04QI28334   8.066   8.825   1.238
    1CAL  O04QJ28335   9.374   8.746   1.317
    1CAL  O04QK28336   8.316   9.164   1.701
    1CAL  O04QL28337   8.436   9.418   1.850
    1CAL  O04QM28338   8.630   8.535   1.931
    1CAL  O04QN28339   9.373   8.133   1.933
    1CAL  O04QO28340   9.438   8.615   1.850
    1CAL  O04QP28341   9.436   8.458   2.010
    1CAL  O04QQ28342   9.631   8.535   1.931
    1CAL  O04QR28343   8.881   8.038   1.624
    1CAL  O04QS28344   8.688   9.566   1.703
    1CAL  O04QT28345   9.436   9.417   1.850
    1CAL  O04QU28346   9.630   9.338   1.930
    1CAL  O04QV28347   8.688   8.117   1.545
    1CAL  O04QW28348   8.565   8.213   1.851
    1CAL  O04QX28349   8.568   8.056   2.010
    1CAL  O04QY28350   8.372   8.134   1.933
    1CAL  O04QZ28351   8.564   9.018   1.850
    1CAL  O04Qa28352   8.569   8.860   2.010
    1CAL  O04Qb28353   8.873   8.746   1.317
    1CAL  O04Qc28354   9.568   8.055   2.010
    1CAL  O04Qd28355   9.566   8.213   1.851
    1CAL  O04Qe28356   8.435   8.458   2.010
    1CAL  O04Qf28357   8.437   8.616   1.851
    1CAL  O04Qg28358   9.688   8.117   1.545
    1CAL  O04Qh28359   9.688   9.566   1.703
    1CAL  O04Qi28360   9.881   8.038   1.624
    1CAL  O04Qj28361   8.381   8.039   1.624
    1CAL  O04Qk28362   8.188   9.566   1.703
    1CAL  O04Ql28363   8.187   8.117   1.545
    1CAL  O04Qm28364   9.188   8.117   1.545
    1CAL  O04Qn28365   9.188   9.566   1.703
    1CAL  O04Qo28366   9.381   8.039   1.624
    1CAL  O04Qp28367   9.066   8.825   1.238
    1CAL  O04Qq28368   9.817   8.520   1.545
    1CAL  O04Qr28369   8.822   9.511   2.159
    1CAL  O04Qs28370   8.813   9.359   2.325
    1CAL  O04Qt28371   8.623   9.443   2.239
    1CAL  O04Qu28372   8.680   9.110   2.158
    1CAL  O04Qv28373   8.689   8.959   2.324
    1CAL  O04Qw28374   8.879   9.041   2.237
    1CAL  O04Qx28375   8.879   8.238   2.238
    1CAL  O04Qy28376   8.689   8.155   2.325
    1CAL  O04Qz28377   8.680   8.306   2.159
    1CAL  O04R028378   8.623   8.640   2.238
    1CAL  O04R128379   8.813   8.556   2.324
    1CAL  O04R228380   8.822   8.708   2.159
    1CAL  O04R328381   9.681   9.110   2.158
    1CAL  O04R428382   9.879   9.041   2.238
    1CAL  O04R528383   9.689   8.958   2.324
    1CAL  O04R628384   9.624   9.442   2.238
    1CAL  O04R728385   9.813   9.359   2.324
    1CAL  O04R828386   9.822   9.511   2.159
    1CAL  O04R928387   9.680   8.306   2.159
    1CAL  O04RA28388   9.879   8.238   2.238
    1CAL  O04RB28389   9.689   8.155   2.325
    1CAL  O04RC28390   9.623   8.639   2.238
    1CAL  O04RD28391   9.813   8.556   2.324
    1CAL  O04RE28392   9.822   8.708   2.159
    1CAL  O04RF28393   9.313   9.359   2.325
    1CAL  O04RG28394   9.123   9.442   2.239
    1CAL  O04RH28395   9.322   9.510   2.159
    1CAL  O04RI28396   9.181   9.109   2.159
    1CAL  O04RJ28397   9.190   8.957   2.325
    1CAL  O04RK28398   9.380   9.041   2.239
    1CAL  O04RL28399   9.313   8.556   2.325
    1CAL  O04RM28400   9.322   8.707   2.159
    1CAL  O04RN28401   9.123   8.640   2.238
    1CAL  O04RO28402   9.181   8.306   2.160
    1CAL  O04RP28403   9.189   8.154   2.325
    1CAL  O04RQ28404   9.379   8.238   2.240
    1CAL  O04RR28405   8.312   9.359   2.326
    1CAL  O04RS28406   8.123   9.443   2.239
    1CAL  O04RT28407   8.322   9.510   2.160
    1CAL  O04RU28408   8.181   9.109   2.160
    1CAL  O04RV28409   8.190   8.957   2.325
    1CAL  O04RW28410   8.380   9.041   2.241
    1CAL  O04RX28411   8.312   8.557   2.326
    1CAL  O04RY28412   8.123   8.640   2.238
    1CAL  O04RZ28413   8.322   8.708   2.159
    1CAL  O04Ra28414   8.379   8.238   2.241
    1CAL  O04Rb28415   8.189   8.154   2.326
    1CAL  O04Rc28416   8.181   8.306   2.161
    1CAL  Ca1Sr28417   9.004   8.841   2.236
    1CAL  Ca1Ss28418   9.752   8.545   1.317
    1CAL  Ca1St28419   9.498   9.242   2.237
    1CAL  Ca1Su28420   8.004   8.841   2.237
    1CAL  Ca1Sv28421   8.752   9.538   1.932
    1CAL  Ca1Sw28422   9.752   8.947   1.317
    1CAL  Ca1Sx28423   9.502   8.642   1.624
    1CAL  Ca1Sy28424   9.502   9.444   1.624
    1CAL  Ca1Sz28425   8.251   9.137   1.931
    1CAL  Ca1T028426   9.002   9.444   1.624
    1CAL  Ca1T128427   8.504   8.038   2.237
    1CAL  Ca1T228428   8.252   8.545   1.317
    1CAL  Ca1T328429   8.252   8.736   1.932
    1CAL  Ca1T428430   9.999   8.439   2.237
    1CAL  Ca1T528431   9.999   9.242   2.237
    1CAL  Ca1T628432   9.751   9.137   1.930
    1CAL  Ca1T728433   9.252   8.143   1.317
    1CAL  Ca1T828434  10.002   9.444   1.624
    1CAL  Ca1T928435   9.752   8.143   1.317
    1CAL  Ca1TA28436   8.497   8.440   2.237
    1CAL  Ca1TB28437   8.004   8.038   2.238
    1CAL  Ca1TC28438   9.753   8.736   1.932
    1CAL  Ca1TD28439   8.252   8.947   1.317
    1CAL  Ca1TE28440  10.002   8.642   1.624
    1CAL  Ca1TF28441   9.502   9.043   1.623
    1CAL  Ca1TG28442   8.252   9.539   1.932
    1CAL  Ca1TH28443   9.752   9.348   1.318
    1CAL  Ca1TI28444   8.502   9.043   1.623
    1CAL  Ca1TJ28445   8.498   9.243   2.237
    1CAL  Ca1TK28446  10.002   8.240   1.624
    1CAL  Ca1TL28447   8.502   9.444   1.624
    1CAL  Ca1TM28448   9.498   8.439   2.237
    1CAL  Ca1TN28449   9.252   8.947   1.317
    1CAL  Ca1TO28450   8.752   8.947   1.317
    1CAL  Ca1TP28451   9.002   8.240   1.624
    1CAL  Ca1TQ28452   9.002   9.043   1.623
    1CAL  Ca1TR28453   8.502   8.642   1.624
    1CAL  Ca1TS28454   9.002   8.642   1.624
    1CAL  Ca1TT28455   8.751   9.137   1.931
    1CAL  Ca1TU28456   8.252   8.143   1.317
    1CAL  Ca1TV28457   8.752   8.545   1.317
    1CAL  Ca1TW28458   9.252   8.545   1.317
    1CAL  Ca1TX28459   9.251   9.137   1.931
    1CAL  Ca1TY28460   9.252   9.538   1.932
    1CAL  Ca1TZ28461   9.751   8.334   1.932
    1CAL  Ca1Ta28462   9.004   8.038   2.237
    1CAL  Ca1Tb28463   8.750   8.334   1.932
    1CAL  Ca1Tc28464   8.505   8.841   2.236
    1CAL  Ca1Td28465   8.502   8.240   1.624
    1CAL  Ca1Te28466   8.752   8.143   1.317
    1CAL  Ca1Tf28467   9.252   9.348   1.318
    1CAL  Ca1Tg28468   9.251   8.334   1.932
    1CAL  Ca1Th28469   8.998   8.439   2.237
    1CAL  Ca1Ti28470   8.752   9.348   1.318
    1CAL  Ca1Tj28471   8.998   9.242   2.237
    1CAL  Ca1Tk28472   8.252   9.348   1.318
    1CAL  Ca1Tl28473   9.502   8.240   1.624
    1CAL  Ca1Tm28474   9.505   8.841   2.236
    1CAL  Ca1Tn28475   9.504   8.037   2.237
    1CAL  Ca1To28476   8.752   8.736   1.932
    1CAL  Ca1Tp28477   9.752   9.539   1.932
    1CAL  Ca1Tq28478   9.252   8.736   1.932
    1CAL  Ca1Tr28479   8.251   8.334   1.932
    1CAL  Ca1Ts28480  10.002   9.043   1.623
    1CAL  C01Tt28481  10.002   9.548   2.545
    1CAL  C01Tu28482   9.252   8.038   2.852
    1CAL  C01Tv28483   8.252   8.038   2.852
    1CAL  C01Tw28484   9.501   8.536   3.158
    1CAL  C01Tx28485   9.501   9.339   3.158
    1CAL  C01Ty28486   8.752   8.038   2.852
    1CAL  C01Tz28487   9.002   8.746   2.545
    1CAL  C01U028488   9.252   9.243   2.849
    1CAL  C01U128489   8.752   9.243   2.850
    1CAL  C01U228490   8.502   8.938   3.159
    1CAL  C01U328491   8.502   8.344   2.545
    1CAL  C01U428492   9.002   9.148   2.545
    1CAL  C01U528493   9.002   8.344   2.545
    1CAL  C01U628494   8.252   8.441   2.852
    1CAL  C01U728495   8.502   8.134   3.159
    1CAL  C01U828496   9.002   8.938   3.158
    1CAL  C01U928497   9.752   8.038   2.852
    1CAL  C01UA28498   9.502   8.134   3.159
    1CAL  C01UB28499   8.252   8.843   2.852
    1CAL  C01UC28500  10.001   8.536   3.159
    1CAL  C01UD28501  10.002   8.938   3.158
    1CAL  C01UE28502  10.002   8.344   2.545
    1CAL  C01UF28503  10.002   9.148   2.545
    1CAL  C01UG28504   8.252   9.243   2.850
    1CAL  C01UH28505   8.501   8.536   3.158
    1CAL  C01UI28506   9.502   8.746   2.545
    1CAL  C01UJ28507  10.002   8.746   2.545
    1CAL  C01UK28508   9.752   8.441   2.852
    1CAL  C01UL28509   9.252   8.441   2.852
    1CAL  C01UM28510   9.502   8.344   2.545
    1CAL  C01UN28511   9.502   8.938   3.158
    1CAL  C01UO28512   8.500   9.339   3.158
    1CAL  C01UP28513   9.502   9.548   2.545
    1CAL  C01UQ28514   8.752   8.441   2.852
    1CAL  C01UR28515   9.252   8.843   2.852
    1CAL  C01US28516   8.502   9.148   2.545
    1CAL  C01UT28517   9.752   9.243   2.849
    1CAL  C01UU28518   9.002   9.548   2.545
    1CAL  C01UV28519  10.001   9.339   3.159
    1CAL  C01UW28520   9.002   8.134   3.158
    1CAL  C01UX28521   9.001   9.339   3.158
    1CAL  C01UY28522   9.001   8.536   3.159
    1CAL  C01UZ28523   9.752   8.843   2.852
    1CAL  C01Ua28524   8.502   9.548   2.545
    1CAL  C01Ub28525   9.502   9.148   2.545
    1CAL  C01Uc28526   8.502   8.746   2.545
    1CAL  C01Ud28527   8.752   8.843   2.852
    1CAL  C01Ue28528  10.002   8.134   3.159
    1CAL  C01Uf28529   8.753   8.634   3.469
    1CAL  C01Ug28530   8.749   8.233   3.469
    1CAL  C01Uh28531   8.749   9.036   3.468
    1CAL  C01Ui28532   8.753   9.437   3.469
    1CAL  C01Uj28533   9.753   8.634   3.469
    1CAL  C01Uk28534   9.749   8.233   3.469
    1CAL  C01Ul28535   9.753   9.437   3.469
    1CAL  C01Um28536   9.750   9.036   3.468
    1CAL  C01Un28537   9.253   9.437   3.469
    1CAL  C01Uo28538   9.250   9.035   3.469
    1CAL  C01Up28539   9.253   8.634   3.469
    1CAL  C01Uq28540   9.249   8.232   3.470
    1CAL  C01Ur28541   8.253   9.437   3.470
    1CAL  C01Us28542   8.250   9.035   3.470
    1CAL  C01Ut28543   8.253   8.635   3.469
    1CAL  C01Uu28544   8.249   8.232   3.471
    1CAL  O04Rd28545   8.187   8.765   2.931
    1CAL  O04Re28546   9.188   8.922   2.773
    1CAL  O04Rf28547   9.187   8.765   2.931
    1CAL  O04Rg28548   9.381   8.843   2.853
    1CAL  O04Rh28549   8.566   9.469   2.624
    1CAL  O04Ri28550   8.373   9.549   2.544
    1CAL  O04Rj28551   8.566   8.825   2.466
    1CAL  O04Rk28552   8.688   8.922   2.773
    1CAL  O04Rl28553   8.687   8.765   2.931
    1CAL  O04Rm28554   8.881   8.843   2.853
    1CAL  O04Rn28555   8.567   9.626   2.466
    1CAL  O04Ro28556   8.566   8.668   2.624
    1CAL  O04Rp28557   8.373   8.746   2.545
    1CAL  O04Rq28558   9.130   9.338   3.159
    1CAL  O04Rr28559   8.937   9.417   3.078
    1CAL  O04Rs28560   8.938   8.615   3.078
    1CAL  O04Rt28561   8.935   8.458   3.238
    1CAL  O04Ru28562   9.130   8.535   3.160
    1CAL  O04Rv28563   8.935   9.261   3.238
    1CAL  O04Rw28564   8.623   8.441   2.852
    1CAL  O04Rx28565   9.065   9.017   3.078
    1CAL  O04Ry28566   9.124   9.243   2.849
    1CAL  O04Rz28567   9.316   9.164   2.929
    1CAL  O04S028568   9.317   9.321   2.771
    1CAL  O04S128569   8.438   8.265   2.624
    1CAL  O04S228570   8.437   8.422   2.466
    1CAL  O04S328571   8.623   9.243   2.849
    1CAL  O04S428572   8.816   9.164   2.929
    1CAL  O04S528573   8.817   9.321   2.771
    1CAL  O04S628574   8.316   8.520   2.773
    1CAL  O04S728575   8.816   8.362   2.931
    1CAL  O04S828576   8.938   9.227   2.465
    1CAL  O04S928577   9.131   9.148   2.545
    1CAL  O04SA28578   8.316   8.362   2.932
    1CAL  O04SB28579   8.123   8.441   2.852
    1CAL  O04SC28580   8.816   8.520   2.773
    1CAL  O04SD28581   8.938   8.423   2.465
    1CAL  O04SE28582   8.938   8.265   2.624
    1CAL  O04SF28583   9.131   8.344   2.545
    1CAL  O04SG28584   8.872   8.937   3.159
    1CAL  O04SH28585   9.068   8.860   3.237
    1CAL  O04SI28586   8.937   9.070   2.624
    1CAL  O04SJ28587   9.688   8.922   2.773
    1CAL  O04SK28588   9.687   8.765   2.931
    1CAL  O04SL28589   9.881   8.843   2.853
    1CAL  O04SM28590   9.936   9.260   3.238
    1CAL  O04SN28591   9.938   8.615   3.079
    1CAL  O04SO28592   9.936   8.457   3.238
    1CAL  O04SP28593   8.130   9.338   3.160
    1CAL  O04SQ28594   8.066   8.213   3.079
    1CAL  O04SR28595   9.438   9.227   2.465
    1CAL  O04SS28596   9.437   9.070   2.624
    1CAL  O04ST28597   9.631   9.148   2.545
    1CAL  O04SU28598   8.067   8.056   3.239
    1CAL  O04SV28599   9.436   9.261   3.238
    1CAL  O04SW28600   8.067   9.626   2.466
    1CAL  O04SX28601   8.066   9.469   2.624
    1CAL  O04SY28602   8.873   9.549   2.544
    1CAL  O04SZ28603   9.873   8.937   3.160
    1CAL  O04Sa28604   9.938   8.265   2.624
    1CAL  O04Sb28605   9.066   8.213   3.079
    1CAL  O04Sc28606   8.438   9.227   2.465
    1CAL  O04Sd28607   8.437   9.070   2.624
    1CAL  O04Se28608   8.631   9.148   2.545
    1CAL  O04Sf28609   9.067   8.055   3.238
    1CAL  O04Sg28610   8.435   9.261   3.238
    1CAL  O04Sh28611   8.873   8.134   3.159
    1CAL  O04Si28612   9.874   8.746   2.545
    1CAL  O04Sj28613   9.067   9.626   2.466
    1CAL  O04Sk28614   9.066   9.469   2.624
    1CAL  O04Sl28615   9.624   9.243   2.849
    1CAL  O04Sm28616   9.816   9.164   2.929
    1CAL  O04Sn28617   9.817   9.321   2.770
    1CAL  O04So28618   9.939   9.227   2.465
    1CAL  O04Sp28619   9.937   9.070   2.624
    1CAL  O04Sq28620   9.938   8.423   2.465
    1CAL  O04Sr28621   8.631   8.344   2.544
    1CAL  O04Ss28622   8.381   8.843   2.853
    1CAL  O04St28623   8.372   8.937   3.162
    1CAL  O04Su28624   9.067   8.668   2.624
    1CAL  O04Sv28625   9.566   9.469   2.624
    1CAL  O04Sw28626   9.567   9.626   2.466
    1CAL  O04Sx28627   9.624   8.441   2.852
    1CAL  O04Sy28628   9.817   8.362   2.931
    1CAL  O04Sz28629   9.374   9.549   2.544
    1CAL  O04T028630   9.123   8.441   2.852
    1CAL  O04T128631   9.316   8.520   2.773
    1CAL  O04T228632   8.630   9.338   3.159
    1CAL  O04T328633   9.438   8.422   2.466
    1CAL  O04T428634   9.438   8.265   2.624
    1CAL  O04T528635   9.631   8.344   2.544
    1CAL  O04T628636   9.373   8.937   3.161
    1CAL  O04T728637   9.568   8.860   3.237
    1CAL  O04T828638   9.317   8.362   2.931
    1CAL  O04T928639   9.565   9.018   3.078
    1CAL  O04TA28640   8.067   8.668   2.624
    1CAL  O04TB28641   9.567   8.668   2.624
    1CAL  O04TC28642   8.188   8.922   2.773
    1CAL  O04TD28643   8.065   9.018   3.078
    1CAL  O04TE28644   8.067   8.860   3.238
    1CAL  O04TF28645   8.130   8.535   3.160
    1CAL  O04TG28646   8.131   8.344   2.545
    1CAL  O04TH28647   8.130   9.148   2.545
    1CAL  O04TI28648   9.566   8.825   2.466
    1CAL  O04TJ28649   8.317   9.321   2.771
    1CAL  O04TK28650   9.874   9.549   2.544
    1CAL  O04TL28651   9.873   8.134   3.160
    1CAL  O04TM28652   8.123   9.243   2.849
    1CAL  O04TN28653   9.937   9.417   3.078
    1CAL  O04TO28654   8.066   8.825   2.466
    1CAL  O04TP28655   9.374   8.746   2.545
    1CAL  O04TQ28656   8.316   9.164   2.929
    1CAL  O04TR28657   8.436   9.418   3.078
    1CAL  O04TS28658   8.630   8.535   3.159
    1CAL  O04TT28659   9.373   8.133   3.161
    1CAL  O04TU28660   9.438   8.615   3.078
    1CAL  O04TV28661   9.436   8.458   3.238
    1CAL  O04TW28662   9.631   8.535   3.159
    1CAL  O04TX28663   8.881   8.038   2.852
    1CAL  O04TY28664   8.688   9.566   2.931
    1CAL  O04TZ28665   9.436   9.417   3.078
    1CAL  O04Ta28666   9.630   9.338   3.158
    1CAL  O04Tb28667   8.688   8.117   2.773
    1CAL  O04Tc28668   8.565   8.213   3.079
    1CAL  O04Td28669   8.568   8.056   3.238
    1CAL  O04Te28670   8.372   8.134   3.161
    1CAL  O04Tf28671   8.564   9.018   3.078
    1CAL  O04Tg28672   8.569   8.860   3.238
    1CAL  O04Th28673   8.873   8.746   2.545
    1CAL  O04Ti28674   9.568   8.055   3.238
    1CAL  O04Tj28675   9.566   8.213   3.079
    1CAL  O04Tk28676   8.435   8.458   3.238
    1CAL  O04Tl28677   8.437   8.616   3.079
    1CAL  O04Tm28678   9.688   8.117   2.773
    1CAL  O04Tn28679   9.688   9.566   2.931
    1CAL  O04To28680   9.881   8.038   2.852
    1CAL  O04Tp28681   8.381   8.039   2.852
    1CAL  O04Tq28682   8.188   9.566   2.931
    1CAL  O04Tr28683   8.187   8.117   2.773
    1CAL  O04Ts28684   9.188   8.117   2.773
    1CAL  O04Tt28685   9.188   9.566   2.931
    1CAL  O04Tu28686   9.381   8.039   2.852
    1CAL  O04Tv28687   9.066   8.825   2.466
    1CAL  O04Tw28688   9.817   8.520   2.773
    1CAL  O04Tx28689   8.822   9.511   3.387
    1CAL  O04Ty28690   8.813   9.359   3.553
    1CAL  O04Tz28691   8.623   9.443   3.467
    1CAL  O04U028692   8.680   9.110   3.386
    1CAL  O04U128693   8.689   8.959   3.552
    1CAL  O04U228694   8.879   9.041   3.465
    1CAL  O04U328695   8.879   8.238   3.466
    1CAL  O04U428696   8.689   8.155   3.553
    1CAL  O04U528697   8.680   8.306   3.387
    1CAL  O04U628698   8.623   8.640   3.466
    1CAL  O04U728699   8.813   8.556   3.552
    1CAL  O04U828700   8.822   8.708   3.387
    1CAL  O04U928701   9.681   9.110   3.386
    1CAL  O04UA28702   9.879   9.041   3.466
    1CAL  O04UB28703   9.689   8.958   3.552
    1CAL  O04UC28704   9.624   9.442   3.466
    1CAL  O04UD28705   9.813   9.359   3.552
    1CAL  O04UE28706   9.822   9.511   3.387
    1CAL  O04UF28707   9.680   8.306   3.387
    1CAL  O04UG28708   9.879   8.238   3.466
    1CAL  O04UH28709   9.689   8.155   3.553
    1CAL  O04UI28710   9.623   8.639   3.466
    1CAL  O04UJ28711   9.813   8.556   3.552
    1CAL  O04UK28712   9.822   8.708   3.387
    1CAL  O04UL28713   9.313   9.359   3.553
    1CAL  O04UM28714   9.123   9.442   3.467
    1CAL  O04UN28715   9.322   9.510   3.387
    1CAL  O04UO28716   9.181   9.109   3.387
    1CAL  O04UP28717   9.190   8.957   3.553
    1CAL  O04UQ28718   9.380   9.041   3.467
    1CAL  O04UR28719   9.313   8.556   3.553
    1CAL  O04US28720   9.322   8.707   3.387
    1CAL  O04UT28721   9.123   8.640   3.466
    1CAL  O04UU28722   9.181   8.306   3.388
    1CAL  O04UV28723   9.189   8.154   3.553
    1CAL  O04UW28724   9.379   8.238   3.468
    1CAL  O04UX28725   8.312   9.359   3.554
    1CAL  O04UY28726   8.123   9.443   3.467
    1CAL  O04UZ28727   8.322   9.510   3.388
    1CAL  O04Ua28728   8.181   9.109   3.388
    1CAL  O04Ub28729   8.190   8.957   3.553
    1CAL  O04Uc28730   8.380   9.041   3.469
    1CAL  O04Ud28731   8.312   8.557   3.554
    1CAL  O04Ue28732   8.123   8.640   3.466
    1CAL  O04Uf28733   8.322   8.708   3.387
    1CAL  O04Ug28734   8.379   8.238   3.469
    1CAL  O04Uh28735   8.189   8.154   3.554
    1CAL  O04Ui28736   8.181   8.306   3.389
    1CAL  Ca1Tt28737   9.004   8.841   3.464
    1CAL  Ca1Tu28738   9.752   8.545   2.545
    1CAL  Ca1Tv28739   9.498   9.242   3.465
    1CAL  Ca1Tw28740   8.004   8.841   3.465
    1CAL  Ca1Tx28741   8.752   9.538   3.160
    1CAL  Ca1Ty28742   9.752   8.947   2.545
    1CAL  Ca1Tz28743   9.502   8.642   2.852
    1CAL  Ca1U028744   9.502   9.444   2.852
    1CAL  Ca1U128745   8.251   9.137   3.159
    1CAL  Ca1U228746   9.002   9.444   2.852
    1CAL  Ca1U328747   8.504   8.038   3.465
    1CAL  Ca1U428748   8.252   8.545   2.545
    1CAL  Ca1U528749   8.252   8.736   3.160
    1CAL  Ca1U628750   9.999   8.439   3.465
    1CAL  Ca1U728751   9.999   9.242   3.465
    1CAL  Ca1U828752   9.751   9.137   3.158
    1CAL  Ca1U928753   9.252   8.143   2.545
    1CAL  Ca1UA28754  10.002   9.444   2.852
    1CAL  Ca1UB28755   9.752   8.143   2.545
    1CAL  Ca1UC28756   8.497   8.440   3.465
    1CAL  Ca1UD28757   8.004   8.038   3.466
    1CAL  Ca1UE28758   9.753   8.736   3.160
    1CAL  Ca1UF28759   8.252   8.947   2.545
    1CAL  Ca1UG28760  10.002   8.642   2.852
    1CAL  Ca1UH28761   9.502   9.043   2.851
    1CAL  Ca1UI28762   8.252   9.539   3.160
    1CAL  Ca1UJ28763   9.752   9.348   2.546
    1CAL  Ca1UK28764   8.502   9.043   2.851
    1CAL  Ca1UL28765   8.498   9.243   3.465
    1CAL  Ca1UM28766  10.002   8.240   2.852
    1CAL  Ca1UN28767   8.502   9.444   2.852
    1CAL  Ca1UO28768   9.498   8.439   3.465
    1CAL  Ca1UP28769   9.252   8.947   2.545
    1CAL  Ca1UQ28770   8.752   8.947   2.545
    1CAL  Ca1UR28771   9.002   8.240   2.852
    1CAL  Ca1US28772   9.002   9.043   2.851
    1CAL  Ca1UT28773   8.502   8.642   2.852
    1CAL  Ca1UU28774   9.002   8.642   2.852
    1CAL  Ca1UV28775   8.751   9.137   3.159
    1CAL  Ca1UW28776   8.252   8.143   2.545
    1CAL  Ca1UX28777   8.752   8.545   2.545
    1CAL  Ca1UY28778   9.252   8.545   2.545
    1CAL  Ca1UZ28779   9.251   9.137   3.159
    1CAL  Ca1Ua28780   9.252   9.538   3.160
    1CAL  Ca1Ub28781   9.751   8.334   3.160
    1CAL  Ca1Uc28782   9.004   8.038   3.465
    1CAL  Ca1Ud28783   8.750   8.334   3.160
    1CAL  Ca1Ue28784   8.505   8.841   3.464
    1CAL  Ca1Uf28785   8.502   8.240   2.852
    1CAL  Ca1Ug28786   8.752   8.143   2.545
    1CAL  Ca1Uh28787   9.252   9.348   2.546
    1CAL  Ca1Ui28788   9.251   8.334   3.160
    1CAL  Ca1Uj28789   8.998   8.439   3.465
    1CAL  Ca1Uk28790   8.752   9.348   2.546
    1CAL  Ca1Ul28791   8.998   9.242   3.465
    1CAL  Ca1Um28792   8.252   9.348   2.546
    1CAL  Ca1Un28793   9.502   8.240   2.852
    1CAL  Ca1Uo28794   9.505   8.841   3.464
    1CAL  Ca1Up28795   9.504   8.037   3.465
    1CAL  Ca1Uq28796   8.752   8.736   3.160
    1CAL  Ca1Ur28797   9.752   9.539   3.160
    1CAL  Ca1Us28798   9.252   8.736   3.160
    1CAL  Ca1Ut28799   8.251   8.334   3.160
    1CAL  Ca1Uu28800  10.002   9.043   2.851
  10.00235   9.63774   3.68400   0.00000   0.00000   0.00000   0.00000   0.00000   0.00000
