Generated with MDTraj, t= 0.0
 29440
    1SIL  Si001    1   0.131   0.226   3.588
    1SIL  Si002    2   9.715   0.200   0.212
    1SIL  O0001    3   0.031   0.176   0.276
    1SIL  O0002    4   0.078   0.364   3.652
    1SIL  O0003    5   9.721   0.311   0.095
    1SIL  O0004    6   0.137   0.115   3.705
    1SIL  O0005    7   0.324   0.061   0.148
    1SIL  O0006    8   0.276   0.250   0.329
    1SIL  Si004    9   9.715   0.652   3.588
    1SIL  Si005   10   9.469   0.625   0.212
    1SIL  O0007   11   9.615   0.602   0.276
    1SIL  O0008   12   9.662   0.790   3.652
    1SIL  O0009   13   9.475   0.737   0.095
    1SIL  O000A   14   9.721   0.540   3.705
    1SIL  O000B   15   0.078   0.487   0.148
    1SIL  O000C   16   0.031   0.675   0.329
    1SIL  Si007   17   9.469   1.077   3.588
    1SIL  Si008   18   9.223   1.051   0.212
    1SIL  O000D   19   9.369   1.027   0.276
    1SIL  O000E   20   9.416   1.216   3.652
    1SIL  O000F   21   9.230   1.162   0.095
    1SIL  O000G   22   9.475   0.966   3.705
    1SIL  O000H   23   9.662   0.913   0.148
    1SIL  O000I   24   9.615   1.101   0.329
    1SIL  Si00A   25   9.223   1.503   3.588
    1SIL  Si00B   26   8.977   1.477   0.212
    1SIL  O000J   27   9.123   1.453   0.276
    1SIL  O000K   28   9.171   1.641   3.652
    1SIL  O000L   29   8.984   1.588   0.095
    1SIL  O000M   30   9.230   1.392   3.705
    1SIL  O000N   31   9.416   1.338   0.148
    1SIL  O000O   32   9.369   1.527   0.329
    1SIL  Si00D   33   8.977   1.929   3.588
    1SIL  Si00E   34   8.732   1.902   0.212
    1SIL  O000P   35   8.878   1.879   0.276
    1SIL  O000Q   36   8.925   2.067   3.652
    1SIL  O000R   37   8.738   2.014   0.095
    1SIL  O000S   38   8.984   1.817   3.705
    1SIL  O000T   39   9.171   1.764   0.148
    1SIL  O000U   40   9.123   1.952   0.329
    1SIL  Si00G   41   8.732   2.354   3.588
    1SIL  Si00H   42   8.486   2.328   0.212
    1SIL  O000V   43   8.632   2.304   0.276
    1SIL  O000W   44   8.679   2.493   3.652
    1SIL  O000X   45   8.492   2.439   0.095
    1SIL  O000Y   46   8.738   2.243   3.705
    1SIL  O000Z   47   8.925   2.190   0.148
    1SIL  O000a   48   8.878   2.378   0.329
    1SIL  Si00J   49   8.486   2.780   3.588
    1SIL  Si00K   50   8.240   2.753   0.212
    1SIL  O000b   51   8.386   2.730   0.276
    1SIL  O000c   52   8.433   2.918   3.652
    1SIL  O000d   53   8.247   2.865   0.095
    1SIL  O000e   54   8.492   2.668   3.705
    1SIL  O000f   55   8.679   2.615   0.148
    1SIL  O000g   56   8.632   2.804   0.329
    1SIL  Si00M   57   8.240   3.206   3.588
    1SIL  Si00N   58   7.994   3.179   0.212
    1SIL  O000h   59   8.140   3.156   0.276
    1SIL  O000i   60   8.188   3.344   3.652
    1SIL  O000j   61   8.001   3.291   0.095
    1SIL  O000k   62   8.247   3.094   3.705
    1SIL  O000l   63   8.433   3.041   0.148
    1SIL  O000m   64   8.386   3.229   0.329
    1SIL  Si00P   65   7.994   3.631   3.588
    1SIL  Si00Q   66   7.749   3.605   0.212
    1SIL  O000n   67   7.895   3.581   0.276
    1SIL  O000o   68   7.942   3.769   3.652
    1SIL  O000p   69   7.755   3.716   0.095
    1SIL  O000q   70   8.001   3.520   3.705
    1SIL  O000r   71   8.188   3.467   0.148
    1SIL  O000s   72   8.140   3.655   0.329
    1SIL  Si00S   73   7.749   4.057   3.588
    1SIL  Si00T   74   7.503   4.030   0.212
    1SIL  O000t   75   7.649   4.007   0.276
    1SIL  O000u   76   7.696   4.195   3.652
    1SIL  O000v   77   7.509   4.142   0.095
    1SIL  O000w   78   7.755   3.945   3.705
    1SIL  O000x   79   7.942   3.892   0.148
    1SIL  O000y   80   7.895   4.081   0.329
    1SIL  Si00V   81   7.503   4.483   3.588
    1SIL  Si00W   82   7.257   4.456   0.212
    1SIL  O000z   83   7.403   4.432   0.276
    1SIL  O0010   84   7.450   4.621   3.652
    1SIL  O0011   85   7.264   4.568   0.095
    1SIL  O0012   86   7.509   4.371   3.705
    1SIL  O0013   87   7.696   4.318   0.148
    1SIL  O0014   88   7.649   4.506   0.329
    1SIL  Si00Y   89   7.257   4.908   3.588
    1SIL  Si00Z   90   7.011   4.882   0.212
    1SIL  O0015   91   7.157   4.858   0.276
    1SIL  O0016   92   7.205   5.046   3.652
    1SIL  O0017   93   7.018   4.993   0.095
    1SIL  O0018   94   7.264   4.797   3.705
    1SIL  O0019   95   7.450   4.744   0.148
    1SIL  O001A   96   7.403   4.932   0.329
    1SIL  Si00b   97   7.011   5.334   3.588
    1SIL  Si00c   98   6.766   5.307   0.212
    1SIL  O001B   99   6.912   5.284   0.276
    1SIL  O001C  100   6.959   5.472   3.652
    1SIL  O001D  101   6.772   5.419   0.095
    1SIL  O001E  102   7.018   5.222   3.705
    1SIL  O001F  103   7.205   5.169   0.148
    1SIL  O001G  104   7.157   5.357   0.329
    1SIL  Si00e  105   6.766   5.759   3.588
    1SIL  Si00f  106   6.520   5.733   0.212
    1SIL  O001H  107   6.666   5.709   0.276
    1SIL  O001I  108   6.713   5.898   3.652
    1SIL  O001J  109   6.526   5.844   0.095
    1SIL  O001K  110   6.772   5.648   3.705
    1SIL  O001L  111   6.959   5.595   0.148
    1SIL  O001M  112   6.912   5.783   0.329
    1SIL  Si00h  113   6.520   6.185   3.588
    1SIL  Si00i  114   6.274   6.159   0.212
    1SIL  O001N  115   6.420   6.135   0.276
    1SIL  O001O  116   6.467   6.323   3.652
    1SIL  O001P  117   6.281   6.270   0.095
    1SIL  O001Q  118   6.526   6.074   3.705
    1SIL  O001R  119   6.713   6.020   0.148
    1SIL  O001S  120   6.666   6.209   0.329
    1SIL  Si00k  121   6.274   6.611   3.588
    1SIL  Si00l  122   6.028   6.584   0.212
    1SIL  O001T  123   6.174   6.561   0.276
    1SIL  O001U  124   6.222   6.749   3.652
    1SIL  O001V  125   6.035   6.696   0.095
    1SIL  O001W  126   6.281   6.499   3.705
    1SIL  O001X  127   6.467   6.446   0.148
    1SIL  O001Y  128   6.420   6.634   0.329
    1SIL  Si00n  129   6.028   7.036   3.588
    1SIL  Si00o  130   5.783   7.010   0.212
    1SIL  O001Z  131   5.929   6.986   0.276
    1SIL  O001a  132   5.976   7.175   3.652
    1SIL  O001b  133   5.789   7.121   0.095
    1SIL  O001c  134   6.035   6.925   3.705
    1SIL  O001d  135   6.222   6.872   0.148
    1SIL  O001e  136   6.174   7.060   0.329
    1SIL  Si00q  137   5.783   7.462   3.588
    1SIL  Si00r  138   5.537   7.436   0.212
    1SIL  O001f  139   5.683   7.412   0.276
    1SIL  O001g  140   5.730   7.600   3.652
    1SIL  O001h  141   5.543   7.547   0.095
    1SIL  O001i  142   5.789   7.351   3.705
    1SIL  O001j  143   5.976   7.297   0.148
    1SIL  O001k  144   5.929   7.486   0.329
    1SIL  Si00t  145   5.537   7.888   3.588
    1SIL  Si00u  146   5.291   7.861   0.212
    1SIL  O001l  147   5.437   7.838   0.276
    1SIL  O001m  148   5.484   8.026   3.652
    1SIL  O001n  149   5.298   7.973   0.095
    1SIL  O001o  150   5.543   7.776   3.705
    1SIL  O001p  151   5.730   7.723   0.148
    1SIL  O001q  152   5.683   7.911   0.329
    1SIL  Si00w  153   5.291   8.313   3.588
    1SIL  Si00x  154   5.045   8.287   0.212
    1SIL  O001r  155   5.191   8.263   0.276
    1SIL  O001s  156   5.239   8.452   3.652
    1SIL  O001t  157   5.052   8.398   0.095
    1SIL  O001u  158   5.298   8.202   3.705
    1SIL  O001v  159   5.484   8.149   0.148
    1SIL  O001w  160   5.437   8.337   0.329
    1SIL  Si00z  161   5.045   8.739   3.588
    1SIL  Si010  162   4.800   8.713   0.212
    1SIL  O001x  163   4.946   8.689   0.276
    1SIL  O001y  164   4.993   8.877   3.652
    1SIL  O001z  165   4.806   8.824   0.095
    1SIL  O0020  166   5.052   8.628   3.705
    1SIL  O0021  167   5.239   8.574   0.148
    1SIL  O0022  168   5.191   8.763   0.329
    1SIL  Si012  169   4.800   9.165   3.588
    1SIL  Si013  170   4.554   9.138   0.212
    1SIL  O0023  171   4.700   9.115   0.276
    1SIL  O0024  172   4.747   9.303   3.652
    1SIL  O0025  173   4.560   9.250   0.095
    1SIL  O0026  174   4.806   9.053   3.705
    1SIL  O0027  175   4.993   9.000   0.148
    1SIL  O0028  176   4.946   9.188   0.329
    1SIL  Si015  177   4.554   9.590   3.588
    1SIL  Si016  178   4.308   9.564   0.212
    1SIL  O0029  179   4.454   9.540   0.276
    1SIL  O002A  180   4.501   9.729   3.652
    1SIL  O002B  181   4.315   9.675   0.095
    1SIL  O002C  182   4.560   9.479   3.705
    1SIL  O002D  183   4.747   9.426   0.148
    1SIL  O002E  184   4.700   9.614   0.329
    1SIL  Si018  185   0.622   0.226   3.588
    1SIL  Si019  186   0.376   0.200   0.212
    1SIL  O002F  187   0.522   0.176   0.276
    1SIL  O002G  188   0.569   0.364   3.652
    1SIL  O002H  189   0.383   0.311   0.095
    1SIL  O002I  190   0.629   0.115   3.705
    1SIL  O002J  191   0.815   0.061   0.148
    1SIL  O002K  192   0.768   0.250   0.329
    1SIL  Si01B  193   0.376   0.652   3.588
    1SIL  Si01C  194   0.131   0.625   0.212
    1SIL  O002L  195   0.276   0.602   0.276
    1SIL  O002M  196   0.324   0.790   3.652
    1SIL  O002N  197   0.137   0.737   0.095
    1SIL  O002O  198   0.383   0.540   3.705
    1SIL  O002P  199   0.569   0.487   0.148
    1SIL  O002Q  200   0.522   0.675   0.329
    1SIL  Si01E  201   0.131   1.077   3.588
    1SIL  Si01F  202   9.715   1.051   0.212
    1SIL  O002R  203   0.031   1.027   0.276
    1SIL  O002S  204   0.078   1.216   3.652
    1SIL  O002T  205   9.721   1.162   0.095
    1SIL  O002U  206   0.137   0.966   3.705
    1SIL  O002V  207   0.324   0.913   0.148
    1SIL  O002W  208   0.276   1.101   0.329
    1SIL  Si01H  209   9.715   1.503   3.588
    1SIL  Si01I  210   9.469   1.477   0.212
    1SIL  O002X  211   9.615   1.453   0.276
    1SIL  O002Y  212   9.662   1.641   3.652
    1SIL  O002Z  213   9.475   1.588   0.095
    1SIL  O002a  214   9.721   1.392   3.705
    1SIL  O002b  215   0.078   1.338   0.148
    1SIL  O002c  216   0.031   1.527   0.329
    1SIL  Si01K  217   9.469   1.929   3.588
    1SIL  Si01L  218   9.223   1.902   0.212
    1SIL  O002d  219   9.369   1.879   0.276
    1SIL  O002e  220   9.416   2.067   3.652
    1SIL  O002f  221   9.230   2.014   0.095
    1SIL  O002g  222   9.475   1.817   3.705
    1SIL  O002h  223   9.662   1.764   0.148
    1SIL  O002i  224   9.615   1.952   0.329
    1SIL  Si01N  225   9.223   2.354   3.588
    1SIL  Si01O  226   8.977   2.328   0.212
    1SIL  O002j  227   9.123   2.304   0.276
    1SIL  O002k  228   9.171   2.493   3.652
    1SIL  O002l  229   8.984   2.439   0.095
    1SIL  O002m  230   9.230   2.243   3.705
    1SIL  O002n  231   9.416   2.190   0.148
    1SIL  O002o  232   9.369   2.378   0.329
    1SIL  Si01Q  233   8.977   2.780   3.588
    1SIL  Si01R  234   8.732   2.753   0.212
    1SIL  O002p  235   8.878   2.730   0.276
    1SIL  O002q  236   8.925   2.918   3.652
    1SIL  O002r  237   8.738   2.865   0.095
    1SIL  O002s  238   8.984   2.668   3.705
    1SIL  O002t  239   9.171   2.615   0.148
    1SIL  O002u  240   9.123   2.804   0.329
    1SIL  Si01T  241   8.732   3.206   3.588
    1SIL  Si01U  242   8.486   3.179   0.212
    1SIL  O002v  243   8.632   3.156   0.276
    1SIL  O002w  244   8.679   3.344   3.652
    1SIL  O002x  245   8.492   3.291   0.095
    1SIL  O002y  246   8.738   3.094   3.705
    1SIL  O002z  247   8.925   3.041   0.148
    1SIL  O0030  248   8.878   3.229   0.329
    1SIL  Si01W  249   8.486   3.631   3.588
    1SIL  Si01X  250   8.240   3.605   0.212
    1SIL  O0031  251   8.386   3.581   0.276
    1SIL  O0032  252   8.433   3.769   3.652
    1SIL  O0033  253   8.247   3.716   0.095
    1SIL  O0034  254   8.492   3.520   3.705
    1SIL  O0035  255   8.679   3.467   0.148
    1SIL  O0036  256   8.632   3.655   0.329
    1SIL  Si01Z  257   8.240   4.057   3.588
    1SIL  Si01a  258   7.994   4.030   0.212
    1SIL  O0037  259   8.140   4.007   0.276
    1SIL  O0038  260   8.188   4.195   3.652
    1SIL  O0039  261   8.001   4.142   0.095
    1SIL  O003A  262   8.247   3.945   3.705
    1SIL  O003B  263   8.433   3.892   0.148
    1SIL  O003C  264   8.386   4.081   0.329
    1SIL  Si01c  265   7.994   4.483   3.588
    1SIL  Si01d  266   7.749   4.456   0.212
    1SIL  O003D  267   7.895   4.432   0.276
    1SIL  O003E  268   7.942   4.621   3.652
    1SIL  O003F  269   7.755   4.568   0.095
    1SIL  O003G  270   8.001   4.371   3.705
    1SIL  O003H  271   8.188   4.318   0.148
    1SIL  O003I  272   8.140   4.506   0.329
    1SIL  Si01f  273   7.749   4.908   3.588
    1SIL  Si01g  274   7.503   4.882   0.212
    1SIL  O003J  275   7.649   4.858   0.276
    1SIL  O003K  276   7.696   5.046   3.652
    1SIL  O003L  277   7.509   4.993   0.095
    1SIL  O003M  278   7.755   4.797   3.705
    1SIL  O003N  279   7.942   4.744   0.148
    1SIL  O003O  280   7.895   4.932   0.329
    1SIL  Si01i  281   7.503   5.334   3.588
    1SIL  Si01j  282   7.257   5.307   0.212
    1SIL  O003P  283   7.403   5.284   0.276
    1SIL  O003Q  284   7.450   5.472   3.652
    1SIL  O003R  285   7.264   5.419   0.095
    1SIL  O003S  286   7.509   5.222   3.705
    1SIL  O003T  287   7.696   5.169   0.148
    1SIL  O003U  288   7.649   5.357   0.329
    1SIL  Si01l  289   7.257   5.759   3.588
    1SIL  Si01m  290   7.011   5.733   0.212
    1SIL  O003V  291   7.157   5.709   0.276
    1SIL  O003W  292   7.205   5.898   3.652
    1SIL  O003X  293   7.018   5.844   0.095
    1SIL  O003Y  294   7.264   5.648   3.705
    1SIL  O003Z  295   7.450   5.595   0.148
    1SIL  O003a  296   7.403   5.783   0.329
    1SIL  Si01o  297   7.011   6.185   3.588
    1SIL  Si01p  298   6.766   6.159   0.212
    1SIL  O003b  299   6.912   6.135   0.276
    1SIL  O003c  300   6.959   6.323   3.652
    1SIL  O003d  301   6.772   6.270   0.095
    1SIL  O003e  302   7.018   6.074   3.705
    1SIL  O003f  303   7.205   6.020   0.148
    1SIL  O003g  304   7.157   6.209   0.329
    1SIL  Si01r  305   6.766   6.611   3.588
    1SIL  Si01s  306   6.520   6.584   0.212
    1SIL  O003h  307   6.666   6.561   0.276
    1SIL  O003i  308   6.713   6.749   3.652
    1SIL  O003j  309   6.526   6.696   0.095
    1SIL  O003k  310   6.772   6.499   3.705
    1SIL  O003l  311   6.959   6.446   0.148
    1SIL  O003m  312   6.912   6.634   0.329
    1SIL  Si01u  313   6.520   7.036   3.588
    1SIL  Si01v  314   6.274   7.010   0.212
    1SIL  O003n  315   6.420   6.986   0.276
    1SIL  O003o  316   6.467   7.175   3.652
    1SIL  O003p  317   6.281   7.121   0.095
    1SIL  O003q  318   6.526   6.925   3.705
    1SIL  O003r  319   6.713   6.872   0.148
    1SIL  O003s  320   6.666   7.060   0.329
    1SIL  Si01x  321   6.274   7.462   3.588
    1SIL  Si01y  322   6.028   7.436   0.212
    1SIL  O003t  323   6.174   7.412   0.276
    1SIL  O003u  324   6.222   7.600   3.652
    1SIL  O003v  325   6.035   7.547   0.095
    1SIL  O003w  326   6.281   7.351   3.705
    1SIL  O003x  327   6.467   7.297   0.148
    1SIL  O003y  328   6.420   7.486   0.329
    1SIL  Si020  329   6.028   7.888   3.588
    1SIL  Si021  330   5.783   7.861   0.212
    1SIL  O003z  331   5.929   7.838   0.276
    1SIL  O0040  332   5.976   8.026   3.652
    1SIL  O0041  333   5.789   7.973   0.095
    1SIL  O0042  334   6.035   7.776   3.705
    1SIL  O0043  335   6.222   7.723   0.148
    1SIL  O0044  336   6.174   7.911   0.329
    1SIL  Si023  337   5.783   8.313   3.588
    1SIL  Si024  338   5.537   8.287   0.212
    1SIL  O0045  339   5.683   8.263   0.276
    1SIL  O0046  340   5.730   8.452   3.652
    1SIL  O0047  341   5.543   8.398   0.095
    1SIL  O0048  342   5.789   8.202   3.705
    1SIL  O0049  343   5.976   8.149   0.148
    1SIL  O004A  344   5.929   8.337   0.329
    1SIL  Si026  345   5.537   8.739   3.588
    1SIL  Si027  346   5.291   8.713   0.212
    1SIL  O004B  347   5.437   8.689   0.276
    1SIL  O004C  348   5.484   8.877   3.652
    1SIL  O004D  349   5.298   8.824   0.095
    1SIL  O004E  350   5.543   8.628   3.705
    1SIL  O004F  351   5.730   8.574   0.148
    1SIL  O004G  352   5.683   8.763   0.329
    1SIL  Si029  353   5.291   9.165   3.588
    1SIL  Si02A  354   5.045   9.138   0.212
    1SIL  O004H  355   5.191   9.115   0.276
    1SIL  O004I  356   5.239   9.303   3.652
    1SIL  O004J  357   5.052   9.250   0.095
    1SIL  O004K  358   5.298   9.053   3.705
    1SIL  O004L  359   5.484   9.000   0.148
    1SIL  O004M  360   5.437   9.188   0.329
    1SIL  Si02C  361   5.045   9.590   3.588
    1SIL  Si02D  362   4.800   9.564   0.212
    1SIL  O004N  363   4.946   9.540   0.276
    1SIL  O004O  364   4.993   9.729   3.652
    1SIL  O004P  365   4.806   9.675   0.095
    1SIL  O004Q  366   5.052   9.479   3.705
    1SIL  O004R  367   5.239   9.426   0.148
    1SIL  O004S  368   5.191   9.614   0.329
    1SIL  Si02F  369   1.114   0.226   3.588
    1SIL  Si02G  370   0.868   0.200   0.212
    1SIL  O004T  371   1.014   0.176   0.276
    1SIL  O004U  372   1.061   0.364   3.652
    1SIL  O004V  373   0.874   0.311   0.095
    1SIL  O004W  374   1.120   0.115   3.705
    1SIL  O004X  375   1.307   0.061   0.148
    1SIL  O004Y  376   1.259   0.250   0.329
    1SIL  Si02I  377   0.868   0.652   3.588
    1SIL  Si02J  378   0.622   0.625   0.212
    1SIL  O004Z  379   0.768   0.602   0.276
    1SIL  O004a  380   0.815   0.790   3.652
    1SIL  O004b  381   0.629   0.737   0.095
    1SIL  O004c  382   0.874   0.540   3.705
    1SIL  O004d  383   1.061   0.487   0.148
    1SIL  O004e  384   1.014   0.675   0.329
    1SIL  Si02L  385   0.622   1.077   3.588
    1SIL  Si02M  386   0.376   1.051   0.212
    1SIL  O004f  387   0.522   1.027   0.276
    1SIL  O004g  388   0.569   1.216   3.652
    1SIL  O004h  389   0.383   1.162   0.095
    1SIL  O004i  390   0.629   0.966   3.705
    1SIL  O004j  391   0.815   0.913   0.148
    1SIL  O004k  392   0.768   1.101   0.329
    1SIL  Si02O  393   0.376   1.503   3.588
    1SIL  Si02P  394   0.131   1.477   0.212
    1SIL  O004l  395   0.276   1.453   0.276
    1SIL  O004m  396   0.324   1.641   3.652
    1SIL  O004n  397   0.137   1.588   0.095
    1SIL  O004o  398   0.383   1.392   3.705
    1SIL  O004p  399   0.569   1.338   0.148
    1SIL  O004q  400   0.522   1.527   0.329
    1SIL  Si02R  401   0.131   1.929   3.588
    1SIL  Si02S  402   9.715   1.902   0.212
    1SIL  O004r  403   0.031   1.879   0.276
    1SIL  O004s  404   0.078   2.067   3.652
    1SIL  O004t  405   9.721   2.014   0.095
    1SIL  O004u  406   0.137   1.817   3.705
    1SIL  O004v  407   0.324   1.764   0.148
    1SIL  O004w  408   0.276   1.952   0.329
    1SIL  Si02U  409   9.715   2.354   3.588
    1SIL  Si02V  410   9.469   2.328   0.212
    1SIL  O004x  411   9.615   2.304   0.276
    1SIL  O004y  412   9.662   2.493   3.652
    1SIL  O004z  413   9.475   2.439   0.095
    1SIL  O0050  414   9.721   2.243   3.705
    1SIL  O0051  415   0.078   2.190   0.148
    1SIL  O0052  416   0.031   2.378   0.329
    1SIL  Si02X  417   9.469   2.780   3.588
    1SIL  Si02Y  418   9.223   2.753   0.212
    1SIL  O0053  419   9.369   2.730   0.276
    1SIL  O0054  420   9.416   2.918   3.652
    1SIL  O0055  421   9.230   2.865   0.095
    1SIL  O0056  422   9.475   2.668   3.705
    1SIL  O0057  423   9.662   2.615   0.148
    1SIL  O0058  424   9.615   2.804   0.329
    1SIL  Si02a  425   9.223   3.206   3.588
    1SIL  Si02b  426   8.977   3.179   0.212
    1SIL  O0059  427   9.123   3.156   0.276
    1SIL  O005A  428   9.171   3.344   3.652
    1SIL  O005B  429   8.984   3.291   0.095
    1SIL  O005C  430   9.230   3.094   3.705
    1SIL  O005D  431   9.416   3.041   0.148
    1SIL  O005E  432   9.369   3.229   0.329
    1SIL  Si02d  433   8.977   3.631   3.588
    1SIL  Si02e  434   8.732   3.605   0.212
    1SIL  O005F  435   8.878   3.581   0.276
    1SIL  O005G  436   8.925   3.769   3.652
    1SIL  O005H  437   8.738   3.716   0.095
    1SIL  O005I  438   8.984   3.520   3.705
    1SIL  O005J  439   9.171   3.467   0.148
    1SIL  O005K  440   9.123   3.655   0.329
    1SIL  Si02g  441   8.732   4.057   3.588
    1SIL  Si02h  442   8.486   4.030   0.212
    1SIL  O005L  443   8.632   4.007   0.276
    1SIL  O005M  444   8.679   4.195   3.652
    1SIL  O005N  445   8.492   4.142   0.095
    1SIL  O005O  446   8.738   3.945   3.705
    1SIL  O005P  447   8.925   3.892   0.148
    1SIL  O005Q  448   8.878   4.081   0.329
    1SIL  Si02j  449   8.486   4.483   3.588
    1SIL  Si02k  450   8.240   4.456   0.212
    1SIL  O005R  451   8.386   4.432   0.276
    1SIL  O005S  452   8.433   4.621   3.652
    1SIL  O005T  453   8.247   4.568   0.095
    1SIL  O005U  454   8.492   4.371   3.705
    1SIL  O005V  455   8.679   4.318   0.148
    1SIL  O005W  456   8.632   4.506   0.329
    1SIL  Si02m  457   8.240   4.908   3.588
    1SIL  Si02n  458   7.994   4.882   0.212
    1SIL  O005X  459   8.140   4.858   0.276
    1SIL  O005Y  460   8.188   5.046   3.652
    1SIL  O005Z  461   8.001   4.993   0.095
    1SIL  O005a  462   8.247   4.797   3.705
    1SIL  O005b  463   8.433   4.744   0.148
    1SIL  O005c  464   8.386   4.932   0.329
    1SIL  Si02p  465   7.994   5.334   3.588
    1SIL  Si02q  466   7.749   5.307   0.212
    1SIL  O005d  467   7.895   5.284   0.276
    1SIL  O005e  468   7.942   5.472   3.652
    1SIL  O005f  469   7.755   5.419   0.095
    1SIL  O005g  470   8.001   5.222   3.705
    1SIL  O005h  471   8.188   5.169   0.148
    1SIL  O005i  472   8.140   5.357   0.329
    1SIL  Si02s  473   7.749   5.759   3.588
    1SIL  Si02t  474   7.503   5.733   0.212
    1SIL  O005j  475   7.649   5.709   0.276
    1SIL  O005k  476   7.696   5.898   3.652
    1SIL  O005l  477   7.509   5.844   0.095
    1SIL  O005m  478   7.755   5.648   3.705
    1SIL  O005n  479   7.942   5.595   0.148
    1SIL  O005o  480   7.895   5.783   0.329
    1SIL  Si02v  481   7.503   6.185   3.588
    1SIL  Si02w  482   7.257   6.159   0.212
    1SIL  O005p  483   7.403   6.135   0.276
    1SIL  O005q  484   7.450   6.323   3.652
    1SIL  O005r  485   7.264   6.270   0.095
    1SIL  O005s  486   7.509   6.074   3.705
    1SIL  O005t  487   7.696   6.020   0.148
    1SIL  O005u  488   7.649   6.209   0.329
    1SIL  Si02y  489   7.257   6.611   3.588
    1SIL  Si02z  490   7.011   6.584   0.212
    1SIL  O005v  491   7.157   6.561   0.276
    1SIL  O005w  492   7.205   6.749   3.652
    1SIL  O005x  493   7.018   6.696   0.095
    1SIL  O005y  494   7.264   6.499   3.705
    1SIL  O005z  495   7.450   6.446   0.148
    1SIL  O0060  496   7.403   6.634   0.329
    1SIL  Si031  497   7.011   7.036   3.588
    1SIL  Si032  498   6.766   7.010   0.212
    1SIL  O0061  499   6.912   6.986   0.276
    1SIL  O0062  500   6.959   7.175   3.652
    1SIL  O0063  501   6.772   7.121   0.095
    1SIL  O0064  502   7.018   6.925   3.705
    1SIL  O0065  503   7.205   6.872   0.148
    1SIL  O0066  504   7.157   7.060   0.329
    1SIL  Si034  505   6.766   7.462   3.588
    1SIL  Si035  506   6.520   7.436   0.212
    1SIL  O0067  507   6.666   7.412   0.276
    1SIL  O0068  508   6.713   7.600   3.652
    1SIL  O0069  509   6.526   7.547   0.095
    1SIL  O006A  510   6.772   7.351   3.705
    1SIL  O006B  511   6.959   7.297   0.148
    1SIL  O006C  512   6.912   7.486   0.329
    1SIL  Si037  513   6.520   7.888   3.588
    1SIL  Si038  514   6.274   7.861   0.212
    1SIL  O006D  515   6.420   7.838   0.276
    1SIL  O006E  516   6.467   8.026   3.652
    1SIL  O006F  517   6.281   7.973   0.095
    1SIL  O006G  518   6.526   7.776   3.705
    1SIL  O006H  519   6.713   7.723   0.148
    1SIL  O006I  520   6.666   7.911   0.329
    1SIL  Si03A  521   6.274   8.313   3.588
    1SIL  Si03B  522   6.028   8.287   0.212
    1SIL  O006J  523   6.174   8.263   0.276
    1SIL  O006K  524   6.222   8.452   3.652
    1SIL  O006L  525   6.035   8.398   0.095
    1SIL  O006M  526   6.281   8.202   3.705
    1SIL  O006N  527   6.467   8.149   0.148
    1SIL  O006O  528   6.420   8.337   0.329
    1SIL  Si03D  529   6.028   8.739   3.588
    1SIL  Si03E  530   5.783   8.713   0.212
    1SIL  O006P  531   5.929   8.689   0.276
    1SIL  O006Q  532   5.976   8.877   3.652
    1SIL  O006R  533   5.789   8.824   0.095
    1SIL  O006S  534   6.035   8.628   3.705
    1SIL  O006T  535   6.222   8.574   0.148
    1SIL  O006U  536   6.174   8.763   0.329
    1SIL  Si03G  537   5.783   9.165   3.588
    1SIL  Si03H  538   5.537   9.138   0.212
    1SIL  O006V  539   5.683   9.115   0.276
    1SIL  O006W  540   5.730   9.303   3.652
    1SIL  O006X  541   5.543   9.250   0.095
    1SIL  O006Y  542   5.789   9.053   3.705
    1SIL  O006Z  543   5.976   9.000   0.148
    1SIL  O006a  544   5.929   9.188   0.329
    1SIL  Si03J  545   5.537   9.590   3.588
    1SIL  Si03K  546   5.291   9.564   0.212
    1SIL  O006b  547   5.437   9.540   0.276
    1SIL  O006c  548   5.484   9.729   3.652
    1SIL  O006d  549   5.298   9.675   0.095
    1SIL  O006e  550   5.543   9.479   3.705
    1SIL  O006f  551   5.730   9.426   0.148
    1SIL  O006g  552   5.683   9.614   0.329
    1SIL  Si03M  553   1.605   0.226   3.588
    1SIL  Si03N  554   1.359   0.200   0.212
    1SIL  O006h  555   1.505   0.176   0.276
    1SIL  O006i  556   1.552   0.364   3.652
    1SIL  O006j  557   1.366   0.311   0.095
    1SIL  O006k  558   1.612   0.115   3.705
    1SIL  O006l  559   1.798   0.061   0.148
    1SIL  O006m  560   1.751   0.250   0.329
    1SIL  Si03P  561   1.359   0.652   3.588
    1SIL  Si03Q  562   1.114   0.625   0.212
    1SIL  O006n  563   1.259   0.602   0.276
    1SIL  O006o  564   1.307   0.790   3.652
    1SIL  O006p  565   1.120   0.737   0.095
    1SIL  O006q  566   1.366   0.540   3.705
    1SIL  O006r  567   1.552   0.487   0.148
    1SIL  O006s  568   1.505   0.675   0.329
    1SIL  Si03S  569   1.114   1.077   3.588
    1SIL  Si03T  570   0.868   1.051   0.212
    1SIL  O006t  571   1.014   1.027   0.276
    1SIL  O006u  572   1.061   1.216   3.652
    1SIL  O006v  573   0.874   1.162   0.095
    1SIL  O006w  574   1.120   0.966   3.705
    1SIL  O006x  575   1.307   0.913   0.148
    1SIL  O006y  576   1.259   1.101   0.329
    1SIL  Si03V  577   0.868   1.503   3.588
    1SIL  Si03W  578   0.622   1.477   0.212
    1SIL  O006z  579   0.768   1.453   0.276
    1SIL  O0070  580   0.815   1.641   3.652
    1SIL  O0071  581   0.629   1.588   0.095
    1SIL  O0072  582   0.874   1.392   3.705
    1SIL  O0073  583   1.061   1.338   0.148
    1SIL  O0074  584   1.014   1.527   0.329
    1SIL  Si03Y  585   0.622   1.929   3.588
    1SIL  Si03Z  586   0.376   1.902   0.212
    1SIL  O0075  587   0.522   1.879   0.276
    1SIL  O0076  588   0.569   2.067   3.652
    1SIL  O0077  589   0.383   2.014   0.095
    1SIL  O0078  590   0.629   1.817   3.705
    1SIL  O0079  591   0.815   1.764   0.148
    1SIL  O007A  592   0.768   1.952   0.329
    1SIL  Si03b  593   0.376   2.354   3.588
    1SIL  Si03c  594   0.131   2.328   0.212
    1SIL  O007B  595   0.276   2.304   0.276
    1SIL  O007C  596   0.324   2.493   3.652
    1SIL  O007D  597   0.137   2.439   0.095
    1SIL  O007E  598   0.383   2.243   3.705
    1SIL  O007F  599   0.569   2.190   0.148
    1SIL  O007G  600   0.522   2.378   0.329
    1SIL  Si03e  601   0.131   2.780   3.588
    1SIL  Si03f  602   9.715   2.753   0.212
    1SIL  O007H  603   0.031   2.730   0.276
    1SIL  O007I  604   0.078   2.918   3.652
    1SIL  O007J  605   9.721   2.865   0.095
    1SIL  O007K  606   0.137   2.668   3.705
    1SIL  O007L  607   0.324   2.615   0.148
    1SIL  O007M  608   0.276   2.804   0.329
    1SIL  Si03h  609   9.715   3.206   3.588
    1SIL  Si03i  610   9.469   3.179   0.212
    1SIL  O007N  611   9.615   3.156   0.276
    1SIL  O007O  612   9.662   3.344   3.652
    1SIL  O007P  613   9.475   3.291   0.095
    1SIL  O007Q  614   9.721   3.094   3.705
    1SIL  O007R  615   0.078   3.041   0.148
    1SIL  O007S  616   0.031   3.229   0.329
    1SIL  Si03k  617   9.469   3.631   3.588
    1SIL  Si03l  618   9.223   3.605   0.212
    1SIL  O007T  619   9.369   3.581   0.276
    1SIL  O007U  620   9.416   3.769   3.652
    1SIL  O007V  621   9.230   3.716   0.095
    1SIL  O007W  622   9.475   3.520   3.705
    1SIL  O007X  623   9.662   3.467   0.148
    1SIL  O007Y  624   9.615   3.655   0.329
    1SIL  Si03n  625   9.223   4.057   3.588
    1SIL  Si03o  626   8.977   4.030   0.212
    1SIL  O007Z  627   9.123   4.007   0.276
    1SIL  O007a  628   9.171   4.195   3.652
    1SIL  O007b  629   8.984   4.142   0.095
    1SIL  O007c  630   9.230   3.945   3.705
    1SIL  O007d  631   9.416   3.892   0.148
    1SIL  O007e  632   9.369   4.081   0.329
    1SIL  Si03q  633   8.977   4.483   3.588
    1SIL  Si03r  634   8.732   4.456   0.212
    1SIL  O007f  635   8.878   4.432   0.276
    1SIL  O007g  636   8.925   4.621   3.652
    1SIL  O007h  637   8.738   4.568   0.095
    1SIL  O007i  638   8.984   4.371   3.705
    1SIL  O007j  639   9.171   4.318   0.148
    1SIL  O007k  640   9.123   4.506   0.329
    1SIL  Si03t  641   8.732   4.908   3.588
    1SIL  Si03u  642   8.486   4.882   0.212
    1SIL  O007l  643   8.632   4.858   0.276
    1SIL  O007m  644   8.679   5.046   3.652
    1SIL  O007n  645   8.492   4.993   0.095
    1SIL  O007o  646   8.738   4.797   3.705
    1SIL  O007p  647   8.925   4.744   0.148
    1SIL  O007q  648   8.878   4.932   0.329
    1SIL  Si03w  649   8.486   5.334   3.588
    1SIL  Si03x  650   8.240   5.307   0.212
    1SIL  O007r  651   8.386   5.284   0.276
    1SIL  O007s  652   8.433   5.472   3.652
    1SIL  O007t  653   8.247   5.419   0.095
    1SIL  O007u  654   8.492   5.222   3.705
    1SIL  O007v  655   8.679   5.169   0.148
    1SIL  O007w  656   8.632   5.357   0.329
    1SIL  Si03z  657   8.240   5.759   3.588
    1SIL  Si040  658   7.994   5.733   0.212
    1SIL  O007x  659   8.140   5.709   0.276
    1SIL  O007y  660   8.188   5.898   3.652
    1SIL  O007z  661   8.001   5.844   0.095
    1SIL  O0080  662   8.247   5.648   3.705
    1SIL  O0081  663   8.433   5.595   0.148
    1SIL  O0082  664   8.386   5.783   0.329
    1SIL  Si042  665   7.994   6.185   3.588
    1SIL  Si043  666   7.749   6.159   0.212
    1SIL  O0083  667   7.895   6.135   0.276
    1SIL  O0084  668   7.942   6.323   3.652
    1SIL  O0085  669   7.755   6.270   0.095
    1SIL  O0086  670   8.001   6.074   3.705
    1SIL  O0087  671   8.188   6.020   0.148
    1SIL  O0088  672   8.140   6.209   0.329
    1SIL  Si045  673   7.749   6.611   3.588
    1SIL  Si046  674   7.503   6.584   0.212
    1SIL  O0089  675   7.649   6.561   0.276
    1SIL  O008A  676   7.696   6.749   3.652
    1SIL  O008B  677   7.509   6.696   0.095
    1SIL  O008C  678   7.755   6.499   3.705
    1SIL  O008D  679   7.942   6.446   0.148
    1SIL  O008E  680   7.895   6.634   0.329
    1SIL  Si048  681   7.503   7.036   3.588
    1SIL  Si049  682   7.257   7.010   0.212
    1SIL  O008F  683   7.403   6.986   0.276
    1SIL  O008G  684   7.450   7.175   3.652
    1SIL  O008H  685   7.264   7.121   0.095
    1SIL  O008I  686   7.509   6.925   3.705
    1SIL  O008J  687   7.696   6.872   0.148
    1SIL  O008K  688   7.649   7.060   0.329
    1SIL  Si04B  689   7.257   7.462   3.588
    1SIL  Si04C  690   7.011   7.436   0.212
    1SIL  O008L  691   7.157   7.412   0.276
    1SIL  O008M  692   7.205   7.600   3.652
    1SIL  O008N  693   7.018   7.547   0.095
    1SIL  O008O  694   7.264   7.351   3.705
    1SIL  O008P  695   7.450   7.297   0.148
    1SIL  O008Q  696   7.403   7.486   0.329
    1SIL  Si04E  697   7.011   7.888   3.588
    1SIL  Si04F  698   6.766   7.861   0.212
    1SIL  O008R  699   6.912   7.838   0.276
    1SIL  O008S  700   6.959   8.026   3.652
    1SIL  O008T  701   6.772   7.973   0.095
    1SIL  O008U  702   7.018   7.776   3.705
    1SIL  O008V  703   7.205   7.723   0.148
    1SIL  O008W  704   7.157   7.911   0.329
    1SIL  Si04H  705   6.766   8.313   3.588
    1SIL  Si04I  706   6.520   8.287   0.212
    1SIL  O008X  707   6.666   8.263   0.276
    1SIL  O008Y  708   6.713   8.452   3.652
    1SIL  O008Z  709   6.526   8.398   0.095
    1SIL  O008a  710   6.772   8.202   3.705
    1SIL  O008b  711   6.959   8.149   0.148
    1SIL  O008c  712   6.912   8.337   0.329
    1SIL  Si04K  713   6.520   8.739   3.588
    1SIL  Si04L  714   6.274   8.713   0.212
    1SIL  O008d  715   6.420   8.689   0.276
    1SIL  O008e  716   6.467   8.877   3.652
    1SIL  O008f  717   6.281   8.824   0.095
    1SIL  O008g  718   6.526   8.628   3.705
    1SIL  O008h  719   6.713   8.574   0.148
    1SIL  O008i  720   6.666   8.763   0.329
    1SIL  Si04N  721   6.274   9.165   3.588
    1SIL  Si04O  722   6.028   9.138   0.212
    1SIL  O008j  723   6.174   9.115   0.276
    1SIL  O008k  724   6.222   9.303   3.652
    1SIL  O008l  725   6.035   9.250   0.095
    1SIL  O008m  726   6.281   9.053   3.705
    1SIL  O008n  727   6.467   9.000   0.148
    1SIL  O008o  728   6.420   9.188   0.329
    1SIL  Si04Q  729   6.028   9.590   3.588
    1SIL  Si04R  730   5.783   9.564   0.212
    1SIL  O008p  731   5.929   9.540   0.276
    1SIL  O008q  732   5.976   9.729   3.652
    1SIL  O008r  733   5.789   9.675   0.095
    1SIL  O008s  734   6.035   9.479   3.705
    1SIL  O008t  735   6.222   9.426   0.148
    1SIL  O008u  736   6.174   9.614   0.329
    1SIL  Si04T  737   2.097   0.226   3.588
    1SIL  Si04U  738   1.851   0.200   0.212
    1SIL  O008v  739   1.997   0.176   0.276
    1SIL  O008w  740   2.044   0.364   3.652
    1SIL  O008x  741   1.857   0.311   0.095
    1SIL  O008y  742   2.103   0.115   3.705
    1SIL  O008z  743   2.290   0.061   0.148
    1SIL  O0090  744   2.242   0.250   0.329
    1SIL  Si04W  745   1.851   0.652   3.588
    1SIL  Si04X  746   1.605   0.625   0.212
    1SIL  O0091  747   1.751   0.602   0.276
    1SIL  O0092  748   1.798   0.790   3.652
    1SIL  O0093  749   1.612   0.737   0.095
    1SIL  O0094  750   1.857   0.540   3.705
    1SIL  O0095  751   2.044   0.487   0.148
    1SIL  O0096  752   1.997   0.675   0.329
    1SIL  Si04Z  753   1.605   1.077   3.588
    1SIL  Si04a  754   1.359   1.051   0.212
    1SIL  O0097  755   1.505   1.027   0.276
    1SIL  O0098  756   1.552   1.216   3.652
    1SIL  O0099  757   1.366   1.162   0.095
    1SIL  O009A  758   1.612   0.966   3.705
    1SIL  O009B  759   1.798   0.913   0.148
    1SIL  O009C  760   1.751   1.101   0.329
    1SIL  Si04c  761   1.359   1.503   3.588
    1SIL  Si04d  762   1.114   1.477   0.212
    1SIL  O009D  763   1.259   1.453   0.276
    1SIL  O009E  764   1.307   1.641   3.652
    1SIL  O009F  765   1.120   1.588   0.095
    1SIL  O009G  766   1.366   1.392   3.705
    1SIL  O009H  767   1.552   1.338   0.148
    1SIL  O009I  768   1.505   1.527   0.329
    1SIL  Si04f  769   1.114   1.929   3.588
    1SIL  Si04g  770   0.868   1.902   0.212
    1SIL  O009J  771   1.014   1.879   0.276
    1SIL  O009K  772   1.061   2.067   3.652
    1SIL  O009L  773   0.874   2.014   0.095
    1SIL  O009M  774   1.120   1.817   3.705
    1SIL  O009N  775   1.307   1.764   0.148
    1SIL  O009O  776   1.259   1.952   0.329
    1SIL  Si04i  777   0.868   2.354   3.588
    1SIL  Si04j  778   0.622   2.328   0.212
    1SIL  O009P  779   0.768   2.304   0.276
    1SIL  O009Q  780   0.815   2.493   3.652
    1SIL  O009R  781   0.629   2.439   0.095
    1SIL  O009S  782   0.874   2.243   3.705
    1SIL  O009T  783   1.061   2.190   0.148
    1SIL  O009U  784   1.014   2.378   0.329
    1SIL  Si04l  785   0.622   2.780   3.588
    1SIL  Si04m  786   0.376   2.753   0.212
    1SIL  O009V  787   0.522   2.730   0.276
    1SIL  O009W  788   0.569   2.918   3.652
    1SIL  O009X  789   0.383   2.865   0.095
    1SIL  O009Y  790   0.629   2.668   3.705
    1SIL  O009Z  791   0.815   2.615   0.148
    1SIL  O009a  792   0.768   2.804   0.329
    1SIL  Si04o  793   0.376   3.206   3.588
    1SIL  Si04p  794   0.131   3.179   0.212
    1SIL  O009b  795   0.276   3.156   0.276
    1SIL  O009c  796   0.324   3.344   3.652
    1SIL  O009d  797   0.137   3.291   0.095
    1SIL  O009e  798   0.383   3.094   3.705
    1SIL  O009f  799   0.569   3.041   0.148
    1SIL  O009g  800   0.522   3.229   0.329
    1SIL  Si04r  801   0.131   3.631   3.588
    1SIL  Si04s  802   9.715   3.605   0.212
    1SIL  O009h  803   0.031   3.581   0.276
    1SIL  O009i  804   0.078   3.769   3.652
    1SIL  O009j  805   9.721   3.716   0.095
    1SIL  O009k  806   0.137   3.520   3.705
    1SIL  O009l  807   0.324   3.467   0.148
    1SIL  O009m  808   0.276   3.655   0.329
    1SIL  Si04u  809   9.715   4.057   3.588
    1SIL  Si04v  810   9.469   4.030   0.212
    1SIL  O009n  811   9.615   4.007   0.276
    1SIL  O009o  812   9.662   4.195   3.652
    1SIL  O009p  813   9.475   4.142   0.095
    1SIL  O009q  814   9.721   3.945   3.705
    1SIL  O009r  815   0.078   3.892   0.148
    1SIL  O009s  816   0.031   4.081   0.329
    1SIL  Si04x  817   9.469   4.483   3.588
    1SIL  Si04y  818   9.223   4.456   0.212
    1SIL  O009t  819   9.369   4.432   0.276
    1SIL  O009u  820   9.416   4.621   3.652
    1SIL  O009v  821   9.230   4.568   0.095
    1SIL  O009w  822   9.475   4.371   3.705
    1SIL  O009x  823   9.662   4.318   0.148
    1SIL  O009y  824   9.615   4.506   0.329
    1SIL  Si050  825   9.223   4.908   3.588
    1SIL  Si051  826   8.977   4.882   0.212
    1SIL  O009z  827   9.123   4.858   0.276
    1SIL  O00A0  828   9.171   5.046   3.652
    1SIL  O00A1  829   8.984   4.993   0.095
    1SIL  O00A2  830   9.230   4.797   3.705
    1SIL  O00A3  831   9.416   4.744   0.148
    1SIL  O00A4  832   9.369   4.932   0.329
    1SIL  Si053  833   8.977   5.334   3.588
    1SIL  Si054  834   8.732   5.307   0.212
    1SIL  O00A5  835   8.878   5.284   0.276
    1SIL  O00A6  836   8.925   5.472   3.652
    1SIL  O00A7  837   8.738   5.419   0.095
    1SIL  O00A8  838   8.984   5.222   3.705
    1SIL  O00A9  839   9.171   5.169   0.148
    1SIL  O00AA  840   9.123   5.357   0.329
    1SIL  Si056  841   8.732   5.759   3.588
    1SIL  Si057  842   8.486   5.733   0.212
    1SIL  O00AB  843   8.632   5.709   0.276
    1SIL  O00AC  844   8.679   5.898   3.652
    1SIL  O00AD  845   8.492   5.844   0.095
    1SIL  O00AE  846   8.738   5.648   3.705
    1SIL  O00AF  847   8.925   5.595   0.148
    1SIL  O00AG  848   8.878   5.783   0.329
    1SIL  Si059  849   8.486   6.185   3.588
    1SIL  Si05A  850   8.240   6.159   0.212
    1SIL  O00AH  851   8.386   6.135   0.276
    1SIL  O00AI  852   8.433   6.323   3.652
    1SIL  O00AJ  853   8.247   6.270   0.095
    1SIL  O00AK  854   8.492   6.074   3.705
    1SIL  O00AL  855   8.679   6.020   0.148
    1SIL  O00AM  856   8.632   6.209   0.329
    1SIL  Si05C  857   8.240   6.611   3.588
    1SIL  Si05D  858   7.994   6.584   0.212
    1SIL  O00AN  859   8.140   6.561   0.276
    1SIL  O00AO  860   8.188   6.749   3.652
    1SIL  O00AP  861   8.001   6.696   0.095
    1SIL  O00AQ  862   8.247   6.499   3.705
    1SIL  O00AR  863   8.433   6.446   0.148
    1SIL  O00AS  864   8.386   6.634   0.329
    1SIL  Si05F  865   7.994   7.036   3.588
    1SIL  Si05G  866   7.749   7.010   0.212
    1SIL  O00AT  867   7.895   6.986   0.276
    1SIL  O00AU  868   7.942   7.175   3.652
    1SIL  O00AV  869   7.755   7.121   0.095
    1SIL  O00AW  870   8.001   6.925   3.705
    1SIL  O00AX  871   8.188   6.872   0.148
    1SIL  O00AY  872   8.140   7.060   0.329
    1SIL  Si05I  873   7.749   7.462   3.588
    1SIL  Si05J  874   7.503   7.436   0.212
    1SIL  O00AZ  875   7.649   7.412   0.276
    1SIL  O00Aa  876   7.696   7.600   3.652
    1SIL  O00Ab  877   7.509   7.547   0.095
    1SIL  O00Ac  878   7.755   7.351   3.705
    1SIL  O00Ad  879   7.942   7.297   0.148
    1SIL  O00Ae  880   7.895   7.486   0.329
    1SIL  Si05L  881   7.503   7.888   3.588
    1SIL  Si05M  882   7.257   7.861   0.212
    1SIL  O00Af  883   7.403   7.838   0.276
    1SIL  O00Ag  884   7.450   8.026   3.652
    1SIL  O00Ah  885   7.264   7.973   0.095
    1SIL  O00Ai  886   7.509   7.776   3.705
    1SIL  O00Aj  887   7.696   7.723   0.148
    1SIL  O00Ak  888   7.649   7.911   0.329
    1SIL  Si05O  889   7.257   8.313   3.588
    1SIL  Si05P  890   7.011   8.287   0.212
    1SIL  O00Al  891   7.157   8.263   0.276
    1SIL  O00Am  892   7.205   8.452   3.652
    1SIL  O00An  893   7.018   8.398   0.095
    1SIL  O00Ao  894   7.264   8.202   3.705
    1SIL  O00Ap  895   7.450   8.149   0.148
    1SIL  O00Aq  896   7.403   8.337   0.329
    1SIL  Si05R  897   7.011   8.739   3.588
    1SIL  Si05S  898   6.766   8.713   0.212
    1SIL  O00Ar  899   6.912   8.689   0.276
    1SIL  O00As  900   6.959   8.877   3.652
    1SIL  O00At  901   6.772   8.824   0.095
    1SIL  O00Au  902   7.018   8.628   3.705
    1SIL  O00Av  903   7.205   8.574   0.148
    1SIL  O00Aw  904   7.157   8.763   0.329
    1SIL  Si05U  905   6.766   9.165   3.588
    1SIL  Si05V  906   6.520   9.138   0.212
    1SIL  O00Ax  907   6.666   9.115   0.276
    1SIL  O00Ay  908   6.713   9.303   3.652
    1SIL  O00Az  909   6.526   9.250   0.095
    1SIL  O00B0  910   6.772   9.053   3.705
    1SIL  O00B1  911   6.959   9.000   0.148
    1SIL  O00B2  912   6.912   9.188   0.329
    1SIL  Si05X  913   6.520   9.590   3.588
    1SIL  Si05Y  914   6.274   9.564   0.212
    1SIL  O00B3  915   6.420   9.540   0.276
    1SIL  O00B4  916   6.467   9.729   3.652
    1SIL  O00B5  917   6.281   9.675   0.095
    1SIL  O00B6  918   6.526   9.479   3.705
    1SIL  O00B7  919   6.713   9.426   0.148
    1SIL  O00B8  920   6.666   9.614   0.329
    1SIL  Si05a  921   2.588   0.226   3.588
    1SIL  Si05b  922   2.342   0.200   0.212
    1SIL  O00B9  923   2.488   0.176   0.276
    1SIL  O00BA  924   2.535   0.364   3.652
    1SIL  O00BB  925   2.349   0.311   0.095
    1SIL  O00BC  926   2.595   0.115   3.705
    1SIL  O00BD  927   2.781   0.061   0.148
    1SIL  O00BE  928   2.734   0.250   0.329
    1SIL  Si05d  929   2.342   0.652   3.588
    1SIL  Si05e  930   2.097   0.625   0.212
    1SIL  O00BF  931   2.242   0.602   0.276
    1SIL  O00BG  932   2.290   0.790   3.652
    1SIL  O00BH  933   2.103   0.737   0.095
    1SIL  O00BI  934   2.349   0.540   3.705
    1SIL  O00BJ  935   2.535   0.487   0.148
    1SIL  O00BK  936   2.488   0.675   0.329
    1SIL  Si05g  937   2.097   1.077   3.588
    1SIL  Si05h  938   1.851   1.051   0.212
    1SIL  O00BL  939   1.997   1.027   0.276
    1SIL  O00BM  940   2.044   1.216   3.652
    1SIL  O00BN  941   1.857   1.162   0.095
    1SIL  O00BO  942   2.103   0.966   3.705
    1SIL  O00BP  943   2.290   0.913   0.148
    1SIL  O00BQ  944   2.242   1.101   0.329
    1SIL  Si05j  945   1.851   1.503   3.588
    1SIL  Si05k  946   1.605   1.477   0.212
    1SIL  O00BR  947   1.751   1.453   0.276
    1SIL  O00BS  948   1.798   1.641   3.652
    1SIL  O00BT  949   1.612   1.588   0.095
    1SIL  O00BU  950   1.857   1.392   3.705
    1SIL  O00BV  951   2.044   1.338   0.148
    1SIL  O00BW  952   1.997   1.527   0.329
    1SIL  Si05m  953   1.605   1.929   3.588
    1SIL  Si05n  954   1.359   1.902   0.212
    1SIL  O00BX  955   1.505   1.879   0.276
    1SIL  O00BY  956   1.552   2.067   3.652
    1SIL  O00BZ  957   1.366   2.014   0.095
    1SIL  O00Ba  958   1.612   1.817   3.705
    1SIL  O00Bb  959   1.798   1.764   0.148
    1SIL  O00Bc  960   1.751   1.952   0.329
    1SIL  Si05p  961   1.359   2.354   3.588
    1SIL  Si05q  962   1.114   2.328   0.212
    1SIL  O00Bd  963   1.259   2.304   0.276
    1SIL  O00Be  964   1.307   2.493   3.652
    1SIL  O00Bf  965   1.120   2.439   0.095
    1SIL  O00Bg  966   1.366   2.243   3.705
    1SIL  O00Bh  967   1.552   2.190   0.148
    1SIL  O00Bi  968   1.505   2.378   0.329
    1SIL  Si05s  969   1.114   2.780   3.588
    1SIL  Si05t  970   0.868   2.753   0.212
    1SIL  O00Bj  971   1.014   2.730   0.276
    1SIL  O00Bk  972   1.061   2.918   3.652
    1SIL  O00Bl  973   0.874   2.865   0.095
    1SIL  O00Bm  974   1.120   2.668   3.705
    1SIL  O00Bn  975   1.307   2.615   0.148
    1SIL  O00Bo  976   1.259   2.804   0.329
    1SIL  Si05v  977   0.868   3.206   3.588
    1SIL  Si05w  978   0.622   3.179   0.212
    1SIL  O00Bp  979   0.768   3.156   0.276
    1SIL  O00Bq  980   0.815   3.344   3.652
    1SIL  O00Br  981   0.629   3.291   0.095
    1SIL  O00Bs  982   0.874   3.094   3.705
    1SIL  O00Bt  983   1.061   3.041   0.148
    1SIL  O00Bu  984   1.014   3.229   0.329
    1SIL  Si05y  985   0.622   3.631   3.588
    1SIL  Si05z  986   0.376   3.605   0.212
    1SIL  O00Bv  987   0.522   3.581   0.276
    1SIL  O00Bw  988   0.569   3.769   3.652
    1SIL  O00Bx  989   0.383   3.716   0.095
    1SIL  O00By  990   0.629   3.520   3.705
    1SIL  O00Bz  991   0.815   3.467   0.148
    1SIL  O00C0  992   0.768   3.655   0.329
    1SIL  Si061  993   0.376   4.057   3.588
    1SIL  Si062  994   0.131   4.030   0.212
    1SIL  O00C1  995   0.276   4.007   0.276
    1SIL  O00C2  996   0.324   4.195   3.652
    1SIL  O00C3  997   0.137   4.142   0.095
    1SIL  O00C4  998   0.383   3.945   3.705
    1SIL  O00C5  999   0.569   3.892   0.148
    1SIL  O00C6 1000   0.522   4.081   0.329
    1SIL  Si064 1001   0.131   4.483   3.588
    1SIL  Si065 1002   9.715   4.456   0.212
    1SIL  O00C7 1003   0.031   4.432   0.276
    1SIL  O00C8 1004   0.078   4.621   3.652
    1SIL  O00C9 1005   9.721   4.568   0.095
    1SIL  O00CA 1006   0.137   4.371   3.705
    1SIL  O00CB 1007   0.324   4.318   0.148
    1SIL  O00CC 1008   0.276   4.506   0.329
    1SIL  Si067 1009   9.715   4.908   3.588
    1SIL  Si068 1010   9.469   4.882   0.212
    1SIL  O00CD 1011   9.615   4.858   0.276
    1SIL  O00CE 1012   9.662   5.046   3.652
    1SIL  O00CF 1013   9.475   4.993   0.095
    1SIL  O00CG 1014   9.721   4.797   3.705
    1SIL  O00CH 1015   0.078   4.744   0.148
    1SIL  O00CI 1016   0.031   4.932   0.329
    1SIL  Si06A 1017   9.469   5.334   3.588
    1SIL  Si06B 1018   9.223   5.307   0.212
    1SIL  O00CJ 1019   9.369   5.284   0.276
    1SIL  O00CK 1020   9.416   5.472   3.652
    1SIL  O00CL 1021   9.230   5.419   0.095
    1SIL  O00CM 1022   9.475   5.222   3.705
    1SIL  O00CN 1023   9.662   5.169   0.148
    1SIL  O00CO 1024   9.615   5.357   0.329
    1SIL  Si06D 1025   9.223   5.759   3.588
    1SIL  Si06E 1026   8.977   5.733   0.212
    1SIL  O00CP 1027   9.123   5.709   0.276
    1SIL  O00CQ 1028   9.171   5.898   3.652
    1SIL  O00CR 1029   8.984   5.844   0.095
    1SIL  O00CS 1030   9.230   5.648   3.705
    1SIL  O00CT 1031   9.416   5.595   0.148
    1SIL  O00CU 1032   9.369   5.783   0.329
    1SIL  Si06G 1033   8.977   6.185   3.588
    1SIL  Si06H 1034   8.732   6.159   0.212
    1SIL  O00CV 1035   8.878   6.135   0.276
    1SIL  O00CW 1036   8.925   6.323   3.652
    1SIL  O00CX 1037   8.738   6.270   0.095
    1SIL  O00CY 1038   8.984   6.074   3.705
    1SIL  O00CZ 1039   9.171   6.020   0.148
    1SIL  O00Ca 1040   9.123   6.209   0.329
    1SIL  Si06J 1041   8.732   6.611   3.588
    1SIL  Si06K 1042   8.486   6.584   0.212
    1SIL  O00Cb 1043   8.632   6.561   0.276
    1SIL  O00Cc 1044   8.679   6.749   3.652
    1SIL  O00Cd 1045   8.492   6.696   0.095
    1SIL  O00Ce 1046   8.738   6.499   3.705
    1SIL  O00Cf 1047   8.925   6.446   0.148
    1SIL  O00Cg 1048   8.878   6.634   0.329
    1SIL  Si06M 1049   8.486   7.036   3.588
    1SIL  Si06N 1050   8.240   7.010   0.212
    1SIL  O00Ch 1051   8.386   6.986   0.276
    1SIL  O00Ci 1052   8.433   7.175   3.652
    1SIL  O00Cj 1053   8.247   7.121   0.095
    1SIL  O00Ck 1054   8.492   6.925   3.705
    1SIL  O00Cl 1055   8.679   6.872   0.148
    1SIL  O00Cm 1056   8.632   7.060   0.329
    1SIL  Si06P 1057   8.240   7.462   3.588
    1SIL  Si06Q 1058   7.994   7.436   0.212
    1SIL  O00Cn 1059   8.140   7.412   0.276
    1SIL  O00Co 1060   8.188   7.600   3.652
    1SIL  O00Cp 1061   8.001   7.547   0.095
    1SIL  O00Cq 1062   8.247   7.351   3.705
    1SIL  O00Cr 1063   8.433   7.297   0.148
    1SIL  O00Cs 1064   8.386   7.486   0.329
    1SIL  Si06S 1065   7.994   7.888   3.588
    1SIL  Si06T 1066   7.749   7.861   0.212
    1SIL  O00Ct 1067   7.895   7.838   0.276
    1SIL  O00Cu 1068   7.942   8.026   3.652
    1SIL  O00Cv 1069   7.755   7.973   0.095
    1SIL  O00Cw 1070   8.001   7.776   3.705
    1SIL  O00Cx 1071   8.188   7.723   0.148
    1SIL  O00Cy 1072   8.140   7.911   0.329
    1SIL  Si06V 1073   7.749   8.313   3.588
    1SIL  Si06W 1074   7.503   8.287   0.212
    1SIL  O00Cz 1075   7.649   8.263   0.276
    1SIL  O00D0 1076   7.696   8.452   3.652
    1SIL  O00D1 1077   7.509   8.398   0.095
    1SIL  O00D2 1078   7.755   8.202   3.705
    1SIL  O00D3 1079   7.942   8.149   0.148
    1SIL  O00D4 1080   7.895   8.337   0.329
    1SIL  Si06Y 1081   7.503   8.739   3.588
    1SIL  Si06Z 1082   7.257   8.713   0.212
    1SIL  O00D5 1083   7.403   8.689   0.276
    1SIL  O00D6 1084   7.450   8.877   3.652
    1SIL  O00D7 1085   7.264   8.824   0.095
    1SIL  O00D8 1086   7.509   8.628   3.705
    1SIL  O00D9 1087   7.696   8.574   0.148
    1SIL  O00DA 1088   7.649   8.763   0.329
    1SIL  Si06b 1089   7.257   9.165   3.588
    1SIL  Si06c 1090   7.011   9.138   0.212
    1SIL  O00DB 1091   7.157   9.115   0.276
    1SIL  O00DC 1092   7.205   9.303   3.652
    1SIL  O00DD 1093   7.018   9.250   0.095
    1SIL  O00DE 1094   7.264   9.053   3.705
    1SIL  O00DF 1095   7.450   9.000   0.148
    1SIL  O00DG 1096   7.403   9.188   0.329
    1SIL  Si06e 1097   7.011   9.590   3.588
    1SIL  Si06f 1098   6.766   9.564   0.212
    1SIL  O00DH 1099   6.912   9.540   0.276
    1SIL  O00DI 1100   6.959   9.729   3.652
    1SIL  O00DJ 1101   6.772   9.675   0.095
    1SIL  O00DK 1102   7.018   9.479   3.705
    1SIL  O00DL 1103   7.205   9.426   0.148
    1SIL  O00DM 1104   7.157   9.614   0.329
    1SIL  Si06h 1105   3.079   0.226   3.588
    1SIL  Si06i 1106   2.834   0.200   0.212
    1SIL  O00DN 1107   2.980   0.176   0.276
    1SIL  O00DO 1108   3.027   0.364   3.652
    1SIL  O00DP 1109   2.840   0.311   0.095
    1SIL  O00DQ 1110   3.086   0.115   3.705
    1SIL  O00DR 1111   3.273   0.061   0.148
    1SIL  O00DS 1112   3.225   0.250   0.329
    1SIL  Si06k 1113   2.834   0.652   3.588
    1SIL  Si06l 1114   2.588   0.625   0.212
    1SIL  O00DT 1115   2.734   0.602   0.276
    1SIL  O00DU 1116   2.781   0.790   3.652
    1SIL  O00DV 1117   2.595   0.737   0.095
    1SIL  O00DW 1118   2.840   0.540   3.705
    1SIL  O00DX 1119   3.027   0.487   0.148
    1SIL  O00DY 1120   2.980   0.675   0.329
    1SIL  Si06n 1121   2.588   1.077   3.588
    1SIL  Si06o 1122   2.342   1.051   0.212
    1SIL  O00DZ 1123   2.488   1.027   0.276
    1SIL  O00Da 1124   2.535   1.216   3.652
    1SIL  O00Db 1125   2.349   1.162   0.095
    1SIL  O00Dc 1126   2.595   0.966   3.705
    1SIL  O00Dd 1127   2.781   0.913   0.148
    1SIL  O00De 1128   2.734   1.101   0.329
    1SIL  Si06q 1129   2.342   1.503   3.588
    1SIL  Si06r 1130   2.097   1.477   0.212
    1SIL  O00Df 1131   2.242   1.453   0.276
    1SIL  O00Dg 1132   2.290   1.641   3.652
    1SIL  O00Dh 1133   2.103   1.588   0.095
    1SIL  O00Di 1134   2.349   1.392   3.705
    1SIL  O00Dj 1135   2.535   1.338   0.148
    1SIL  O00Dk 1136   2.488   1.527   0.329
    1SIL  Si06t 1137   2.097   1.929   3.588
    1SIL  Si06u 1138   1.851   1.902   0.212
    1SIL  O00Dl 1139   1.997   1.879   0.276
    1SIL  O00Dm 1140   2.044   2.067   3.652
    1SIL  O00Dn 1141   1.857   2.014   0.095
    1SIL  O00Do 1142   2.103   1.817   3.705
    1SIL  O00Dp 1143   2.290   1.764   0.148
    1SIL  O00Dq 1144   2.242   1.952   0.329
    1SIL  Si06w 1145   1.851   2.354   3.588
    1SIL  Si06x 1146   1.605   2.328   0.212
    1SIL  O00Dr 1147   1.751   2.304   0.276
    1SIL  O00Ds 1148   1.798   2.493   3.652
    1SIL  O00Dt 1149   1.612   2.439   0.095
    1SIL  O00Du 1150   1.857   2.243   3.705
    1SIL  O00Dv 1151   2.044   2.190   0.148
    1SIL  O00Dw 1152   1.997   2.378   0.329
    1SIL  Si06z 1153   1.605   2.780   3.588
    1SIL  Si070 1154   1.359   2.753   0.212
    1SIL  O00Dx 1155   1.505   2.730   0.276
    1SIL  O00Dy 1156   1.552   2.918   3.652
    1SIL  O00Dz 1157   1.366   2.865   0.095
    1SIL  O00E0 1158   1.612   2.668   3.705
    1SIL  O00E1 1159   1.798   2.615   0.148
    1SIL  O00E2 1160   1.751   2.804   0.329
    1SIL  Si072 1161   1.359   3.206   3.588
    1SIL  Si073 1162   1.114   3.179   0.212
    1SIL  O00E3 1163   1.259   3.156   0.276
    1SIL  O00E4 1164   1.307   3.344   3.652
    1SIL  O00E5 1165   1.120   3.291   0.095
    1SIL  O00E6 1166   1.366   3.094   3.705
    1SIL  O00E7 1167   1.552   3.041   0.148
    1SIL  O00E8 1168   1.505   3.229   0.329
    1SIL  Si075 1169   1.114   3.631   3.588
    1SIL  Si076 1170   0.868   3.605   0.212
    1SIL  O00E9 1171   1.014   3.581   0.276
    1SIL  O00EA 1172   1.061   3.769   3.652
    1SIL  O00EB 1173   0.874   3.716   0.095
    1SIL  O00EC 1174   1.120   3.520   3.705
    1SIL  O00ED 1175   1.307   3.467   0.148
    1SIL  O00EE 1176   1.259   3.655   0.329
    1SIL  Si078 1177   0.868   4.057   3.588
    1SIL  Si079 1178   0.622   4.030   0.212
    1SIL  O00EF 1179   0.768   4.007   0.276
    1SIL  O00EG 1180   0.815   4.195   3.652
    1SIL  O00EH 1181   0.629   4.142   0.095
    1SIL  O00EI 1182   0.874   3.945   3.705
    1SIL  O00EJ 1183   1.061   3.892   0.148
    1SIL  O00EK 1184   1.014   4.081   0.329
    1SIL  Si07B 1185   0.622   4.483   3.588
    1SIL  Si07C 1186   0.376   4.456   0.212
    1SIL  O00EL 1187   0.522   4.432   0.276
    1SIL  O00EM 1188   0.569   4.621   3.652
    1SIL  O00EN 1189   0.383   4.568   0.095
    1SIL  O00EO 1190   0.629   4.371   3.705
    1SIL  O00EP 1191   0.815   4.318   0.148
    1SIL  O00EQ 1192   0.768   4.506   0.329
    1SIL  Si07E 1193   0.376   4.908   3.588
    1SIL  Si07F 1194   0.131   4.882   0.212
    1SIL  O00ER 1195   0.276   4.858   0.276
    1SIL  O00ES 1196   0.324   5.046   3.652
    1SIL  O00ET 1197   0.137   4.993   0.095
    1SIL  O00EU 1198   0.383   4.797   3.705
    1SIL  O00EV 1199   0.569   4.744   0.148
    1SIL  O00EW 1200   0.522   4.932   0.329
    1SIL  Si07H 1201   0.131   5.334   3.588
    1SIL  Si07I 1202   9.715   5.307   0.212
    1SIL  O00EX 1203   0.031   5.284   0.276
    1SIL  O00EY 1204   0.078   5.472   3.652
    1SIL  O00EZ 1205   9.721   5.419   0.095
    1SIL  O00Ea 1206   0.137   5.222   3.705
    1SIL  O00Eb 1207   0.324   5.169   0.148
    1SIL  O00Ec 1208   0.276   5.357   0.329
    1SIL  Si07K 1209   9.715   5.759   3.588
    1SIL  Si07L 1210   9.469   5.733   0.212
    1SIL  O00Ed 1211   9.615   5.709   0.276
    1SIL  O00Ee 1212   9.662   5.898   3.652
    1SIL  O00Ef 1213   9.475   5.844   0.095
    1SIL  O00Eg 1214   9.721   5.648   3.705
    1SIL  O00Eh 1215   0.078   5.595   0.148
    1SIL  O00Ei 1216   0.031   5.783   0.329
    1SIL  Si07N 1217   9.469   6.185   3.588
    1SIL  Si07O 1218   9.223   6.159   0.212
    1SIL  O00Ej 1219   9.369   6.135   0.276
    1SIL  O00Ek 1220   9.416   6.323   3.652
    1SIL  O00El 1221   9.230   6.270   0.095
    1SIL  O00Em 1222   9.475   6.074   3.705
    1SIL  O00En 1223   9.662   6.020   0.148
    1SIL  O00Eo 1224   9.615   6.209   0.329
    1SIL  Si07Q 1225   9.223   6.611   3.588
    1SIL  Si07R 1226   8.977   6.584   0.212
    1SIL  O00Ep 1227   9.123   6.561   0.276
    1SIL  O00Eq 1228   9.171   6.749   3.652
    1SIL  O00Er 1229   8.984   6.696   0.095
    1SIL  O00Es 1230   9.230   6.499   3.705
    1SIL  O00Et 1231   9.416   6.446   0.148
    1SIL  O00Eu 1232   9.369   6.634   0.329
    1SIL  Si07T 1233   8.977   7.036   3.588
    1SIL  Si07U 1234   8.732   7.010   0.212
    1SIL  O00Ev 1235   8.878   6.986   0.276
    1SIL  O00Ew 1236   8.925   7.175   3.652
    1SIL  O00Ex 1237   8.738   7.121   0.095
    1SIL  O00Ey 1238   8.984   6.925   3.705
    1SIL  O00Ez 1239   9.171   6.872   0.148
    1SIL  O00F0 1240   9.123   7.060   0.329
    1SIL  Si07W 1241   8.732   7.462   3.588
    1SIL  Si07X 1242   8.486   7.436   0.212
    1SIL  O00F1 1243   8.632   7.412   0.276
    1SIL  O00F2 1244   8.679   7.600   3.652
    1SIL  O00F3 1245   8.492   7.547   0.095
    1SIL  O00F4 1246   8.738   7.351   3.705
    1SIL  O00F5 1247   8.925   7.297   0.148
    1SIL  O00F6 1248   8.878   7.486   0.329
    1SIL  Si07Z 1249   8.486   7.888   3.588
    1SIL  Si07a 1250   8.240   7.861   0.212
    1SIL  O00F7 1251   8.386   7.838   0.276
    1SIL  O00F8 1252   8.433   8.026   3.652
    1SIL  O00F9 1253   8.247   7.973   0.095
    1SIL  O00FA 1254   8.492   7.776   3.705
    1SIL  O00FB 1255   8.679   7.723   0.148
    1SIL  O00FC 1256   8.632   7.911   0.329
    1SIL  Si07c 1257   8.240   8.313   3.588
    1SIL  Si07d 1258   7.994   8.287   0.212
    1SIL  O00FD 1259   8.140   8.263   0.276
    1SIL  O00FE 1260   8.188   8.452   3.652
    1SIL  O00FF 1261   8.001   8.398   0.095
    1SIL  O00FG 1262   8.247   8.202   3.705
    1SIL  O00FH 1263   8.433   8.149   0.148
    1SIL  O00FI 1264   8.386   8.337   0.329
    1SIL  Si07f 1265   7.994   8.739   3.588
    1SIL  Si07g 1266   7.749   8.713   0.212
    1SIL  O00FJ 1267   7.895   8.689   0.276
    1SIL  O00FK 1268   7.942   8.877   3.652
    1SIL  O00FL 1269   7.755   8.824   0.095
    1SIL  O00FM 1270   8.001   8.628   3.705
    1SIL  O00FN 1271   8.188   8.574   0.148
    1SIL  O00FO 1272   8.140   8.763   0.329
    1SIL  Si07i 1273   7.749   9.165   3.588
    1SIL  Si07j 1274   7.503   9.138   0.212
    1SIL  O00FP 1275   7.649   9.115   0.276
    1SIL  O00FQ 1276   7.696   9.303   3.652
    1SIL  O00FR 1277   7.509   9.250   0.095
    1SIL  O00FS 1278   7.755   9.053   3.705
    1SIL  O00FT 1279   7.942   9.000   0.148
    1SIL  O00FU 1280   7.895   9.188   0.329
    1SIL  Si07l 1281   7.503   9.590   3.588
    1SIL  Si07m 1282   7.257   9.564   0.212
    1SIL  O00FV 1283   7.403   9.540   0.276
    1SIL  O00FW 1284   7.450   9.729   3.652
    1SIL  O00FX 1285   7.264   9.675   0.095
    1SIL  O00FY 1286   7.509   9.479   3.705
    1SIL  O00FZ 1287   7.696   9.426   0.148
    1SIL  O00Fa 1288   7.649   9.614   0.329
    1SIL  Si07o 1289   3.571   0.226   3.588
    1SIL  Si07p 1290   3.325   0.200   0.212
    1SIL  O00Fb 1291   3.471   0.176   0.276
    1SIL  O00Fc 1292   3.518   0.364   3.652
    1SIL  O00Fd 1293   3.332   0.311   0.095
    1SIL  O00Fe 1294   3.577   0.115   3.705
    1SIL  O00Ff 1295   3.764   0.061   0.148
    1SIL  O00Fg 1296   3.717   0.250   0.329
    1SIL  Si07r 1297   3.325   0.652   3.588
    1SIL  Si07s 1298   3.079   0.625   0.212
    1SIL  O00Fh 1299   3.225   0.602   0.276
    1SIL  O00Fi 1300   3.273   0.790   3.652
    1SIL  O00Fj 1301   3.086   0.737   0.095
    1SIL  O00Fk 1302   3.332   0.540   3.705
    1SIL  O00Fl 1303   3.518   0.487   0.148
    1SIL  O00Fm 1304   3.471   0.675   0.329
    1SIL  Si07u 1305   3.079   1.077   3.588
    1SIL  Si07v 1306   2.834   1.051   0.212
    1SIL  O00Fn 1307   2.980   1.027   0.276
    1SIL  O00Fo 1308   3.027   1.216   3.652
    1SIL  O00Fp 1309   2.840   1.162   0.095
    1SIL  O00Fq 1310   3.086   0.966   3.705
    1SIL  O00Fr 1311   3.273   0.913   0.148
    1SIL  O00Fs 1312   3.225   1.101   0.329
    1SIL  Si07x 1313   2.834   1.503   3.588
    1SIL  Si07y 1314   2.588   1.477   0.212
    1SIL  O00Ft 1315   2.734   1.453   0.276
    1SIL  O00Fu 1316   2.781   1.641   3.652
    1SIL  O00Fv 1317   2.595   1.588   0.095
    1SIL  O00Fw 1318   2.840   1.392   3.705
    1SIL  O00Fx 1319   3.027   1.338   0.148
    1SIL  O00Fy 1320   2.980   1.527   0.329
    1SIL  Si080 1321   2.588   1.929   3.588
    1SIL  Si081 1322   2.342   1.902   0.212
    1SIL  O00Fz 1323   2.488   1.879   0.276
    1SIL  O00G0 1324   2.535   2.067   3.652
    1SIL  O00G1 1325   2.349   2.014   0.095
    1SIL  O00G2 1326   2.595   1.817   3.705
    1SIL  O00G3 1327   2.781   1.764   0.148
    1SIL  O00G4 1328   2.734   1.952   0.329
    1SIL  Si083 1329   2.342   2.354   3.588
    1SIL  Si084 1330   2.097   2.328   0.212
    1SIL  O00G5 1331   2.242   2.304   0.276
    1SIL  O00G6 1332   2.290   2.493   3.652
    1SIL  O00G7 1333   2.103   2.439   0.095
    1SIL  O00G8 1334   2.349   2.243   3.705
    1SIL  O00G9 1335   2.535   2.190   0.148
    1SIL  O00GA 1336   2.488   2.378   0.329
    1SIL  Si086 1337   2.097   2.780   3.588
    1SIL  Si087 1338   1.851   2.753   0.212
    1SIL  O00GB 1339   1.997   2.730   0.276
    1SIL  O00GC 1340   2.044   2.918   3.652
    1SIL  O00GD 1341   1.857   2.865   0.095
    1SIL  O00GE 1342   2.103   2.668   3.705
    1SIL  O00GF 1343   2.290   2.615   0.148
    1SIL  O00GG 1344   2.242   2.804   0.329
    1SIL  Si089 1345   1.851   3.206   3.588
    1SIL  Si08A 1346   1.605   3.179   0.212
    1SIL  O00GH 1347   1.751   3.156   0.276
    1SIL  O00GI 1348   1.798   3.344   3.652
    1SIL  O00GJ 1349   1.612   3.291   0.095
    1SIL  O00GK 1350   1.857   3.094   3.705
    1SIL  O00GL 1351   2.044   3.041   0.148
    1SIL  O00GM 1352   1.997   3.229   0.329
    1SIL  Si08C 1353   1.605   3.631   3.588
    1SIL  Si08D 1354   1.359   3.605   0.212
    1SIL  O00GN 1355   1.505   3.581   0.276
    1SIL  O00GO 1356   1.552   3.769   3.652
    1SIL  O00GP 1357   1.366   3.716   0.095
    1SIL  O00GQ 1358   1.612   3.520   3.705
    1SIL  O00GR 1359   1.798   3.467   0.148
    1SIL  O00GS 1360   1.751   3.655   0.329
    1SIL  Si08F 1361   1.359   4.057   3.588
    1SIL  Si08G 1362   1.114   4.030   0.212
    1SIL  O00GT 1363   1.259   4.007   0.276
    1SIL  O00GU 1364   1.307   4.195   3.652
    1SIL  O00GV 1365   1.120   4.142   0.095
    1SIL  O00GW 1366   1.366   3.945   3.705
    1SIL  O00GX 1367   1.552   3.892   0.148
    1SIL  O00GY 1368   1.505   4.081   0.329
    1SIL  Si08I 1369   1.114   4.483   3.588
    1SIL  Si08J 1370   0.868   4.456   0.212
    1SIL  O00GZ 1371   1.014   4.432   0.276
    1SIL  O00Ga 1372   1.061   4.621   3.652
    1SIL  O00Gb 1373   0.874   4.568   0.095
    1SIL  O00Gc 1374   1.120   4.371   3.705
    1SIL  O00Gd 1375   1.307   4.318   0.148
    1SIL  O00Ge 1376   1.259   4.506   0.329
    1SIL  Si08L 1377   0.868   4.908   3.588
    1SIL  Si08M 1378   0.622   4.882   0.212
    1SIL  O00Gf 1379   0.768   4.858   0.276
    1SIL  O00Gg 1380   0.815   5.046   3.652
    1SIL  O00Gh 1381   0.629   4.993   0.095
    1SIL  O00Gi 1382   0.874   4.797   3.705
    1SIL  O00Gj 1383   1.061   4.744   0.148
    1SIL  O00Gk 1384   1.014   4.932   0.329
    1SIL  Si08O 1385   0.622   5.334   3.588
    1SIL  Si08P 1386   0.376   5.307   0.212
    1SIL  O00Gl 1387   0.522   5.284   0.276
    1SIL  O00Gm 1388   0.569   5.472   3.652
    1SIL  O00Gn 1389   0.383   5.419   0.095
    1SIL  O00Go 1390   0.629   5.222   3.705
    1SIL  O00Gp 1391   0.815   5.169   0.148
    1SIL  O00Gq 1392   0.768   5.357   0.329
    1SIL  Si08R 1393   0.376   5.759   3.588
    1SIL  Si08S 1394   0.131   5.733   0.212
    1SIL  O00Gr 1395   0.276   5.709   0.276
    1SIL  O00Gs 1396   0.324   5.898   3.652
    1SIL  O00Gt 1397   0.137   5.844   0.095
    1SIL  O00Gu 1398   0.383   5.648   3.705
    1SIL  O00Gv 1399   0.569   5.595   0.148
    1SIL  O00Gw 1400   0.522   5.783   0.329
    1SIL  Si08U 1401   0.131   6.185   3.588
    1SIL  Si08V 1402   9.715   6.159   0.212
    1SIL  O00Gx 1403   0.031   6.135   0.276
    1SIL  O00Gy 1404   0.078   6.323   3.652
    1SIL  O00Gz 1405   9.721   6.270   0.095
    1SIL  O00H0 1406   0.137   6.074   3.705
    1SIL  O00H1 1407   0.324   6.020   0.148
    1SIL  O00H2 1408   0.276   6.209   0.329
    1SIL  Si08X 1409   9.715   6.611   3.588
    1SIL  Si08Y 1410   9.469   6.584   0.212
    1SIL  O00H3 1411   9.615   6.561   0.276
    1SIL  O00H4 1412   9.662   6.749   3.652
    1SIL  O00H5 1413   9.475   6.696   0.095
    1SIL  O00H6 1414   9.721   6.499   3.705
    1SIL  O00H7 1415   0.078   6.446   0.148
    1SIL  O00H8 1416   0.031   6.634   0.329
    1SIL  Si08a 1417   9.469   7.036   3.588
    1SIL  Si08b 1418   9.223   7.010   0.212
    1SIL  O00H9 1419   9.369   6.986   0.276
    1SIL  O00HA 1420   9.416   7.175   3.652
    1SIL  O00HB 1421   9.230   7.121   0.095
    1SIL  O00HC 1422   9.475   6.925   3.705
    1SIL  O00HD 1423   9.662   6.872   0.148
    1SIL  O00HE 1424   9.615   7.060   0.329
    1SIL  Si08d 1425   9.223   7.462   3.588
    1SIL  Si08e 1426   8.977   7.436   0.212
    1SIL  O00HF 1427   9.123   7.412   0.276
    1SIL  O00HG 1428   9.171   7.600   3.652
    1SIL  O00HH 1429   8.984   7.547   0.095
    1SIL  O00HI 1430   9.230   7.351   3.705
    1SIL  O00HJ 1431   9.416   7.297   0.148
    1SIL  O00HK 1432   9.369   7.486   0.329
    1SIL  Si08g 1433   8.977   7.888   3.588
    1SIL  Si08h 1434   8.732   7.861   0.212
    1SIL  O00HL 1435   8.878   7.838   0.276
    1SIL  O00HM 1436   8.925   8.026   3.652
    1SIL  O00HN 1437   8.738   7.973   0.095
    1SIL  O00HO 1438   8.984   7.776   3.705
    1SIL  O00HP 1439   9.171   7.723   0.148
    1SIL  O00HQ 1440   9.123   7.911   0.329
    1SIL  Si08j 1441   8.732   8.313   3.588
    1SIL  Si08k 1442   8.486   8.287   0.212
    1SIL  O00HR 1443   8.632   8.263   0.276
    1SIL  O00HS 1444   8.679   8.452   3.652
    1SIL  O00HT 1445   8.492   8.398   0.095
    1SIL  O00HU 1446   8.738   8.202   3.705
    1SIL  O00HV 1447   8.925   8.149   0.148
    1SIL  O00HW 1448   8.878   8.337   0.329
    1SIL  Si08m 1449   8.486   8.739   3.588
    1SIL  Si08n 1450   8.240   8.713   0.212
    1SIL  O00HX 1451   8.386   8.689   0.276
    1SIL  O00HY 1452   8.433   8.877   3.652
    1SIL  O00HZ 1453   8.247   8.824   0.095
    1SIL  O00Ha 1454   8.492   8.628   3.705
    1SIL  O00Hb 1455   8.679   8.574   0.148
    1SIL  O00Hc 1456   8.632   8.763   0.329
    1SIL  Si08p 1457   8.240   9.165   3.588
    1SIL  Si08q 1458   7.994   9.138   0.212
    1SIL  O00Hd 1459   8.140   9.115   0.276
    1SIL  O00He 1460   8.188   9.303   3.652
    1SIL  O00Hf 1461   8.001   9.250   0.095
    1SIL  O00Hg 1462   8.247   9.053   3.705
    1SIL  O00Hh 1463   8.433   9.000   0.148
    1SIL  O00Hi 1464   8.386   9.188   0.329
    1SIL  Si08s 1465   7.994   9.590   3.588
    1SIL  Si08t 1466   7.749   9.564   0.212
    1SIL  O00Hj 1467   7.895   9.540   0.276
    1SIL  O00Hk 1468   7.942   9.729   3.652
    1SIL  O00Hl 1469   7.755   9.675   0.095
    1SIL  O00Hm 1470   8.001   9.479   3.705
    1SIL  O00Hn 1471   8.188   9.426   0.148
    1SIL  O00Ho 1472   8.140   9.614   0.329
    1SIL  Si08v 1473   4.062   0.226   3.588
    1SIL  Si08w 1474   3.817   0.200   0.212
    1SIL  O00Hp 1475   3.963   0.176   0.276
    1SIL  O00Hq 1476   4.010   0.364   3.652
    1SIL  O00Hr 1477   3.823   0.311   0.095
    1SIL  O00Hs 1478   4.069   0.115   3.705
    1SIL  O00Ht 1479   4.256   0.061   0.148
    1SIL  O00Hu 1480   4.208   0.250   0.329
    1SIL  Si08y 1481   3.817   0.652   3.588
    1SIL  Si08z 1482   3.571   0.625   0.212
    1SIL  O00Hv 1483   3.717   0.602   0.276
    1SIL  O00Hw 1484   3.764   0.790   3.652
    1SIL  O00Hx 1485   3.577   0.737   0.095
    1SIL  O00Hy 1486   3.823   0.540   3.705
    1SIL  O00Hz 1487   4.010   0.487   0.148
    1SIL  O00I0 1488   3.963   0.675   0.329
    1SIL  Si091 1489   3.571   1.077   3.588
    1SIL  Si092 1490   3.325   1.051   0.212
    1SIL  O00I1 1491   3.471   1.027   0.276
    1SIL  O00I2 1492   3.518   1.216   3.652
    1SIL  O00I3 1493   3.332   1.162   0.095
    1SIL  O00I4 1494   3.577   0.966   3.705
    1SIL  O00I5 1495   3.764   0.913   0.148
    1SIL  O00I6 1496   3.717   1.101   0.329
    1SIL  Si094 1497   3.325   1.503   3.588
    1SIL  Si095 1498   3.079   1.477   0.212
    1SIL  O00I7 1499   3.225   1.453   0.276
    1SIL  O00I8 1500   3.273   1.641   3.652
    1SIL  O00I9 1501   3.086   1.588   0.095
    1SIL  O00IA 1502   3.332   1.392   3.705
    1SIL  O00IB 1503   3.518   1.338   0.148
    1SIL  O00IC 1504   3.471   1.527   0.329
    1SIL  Si097 1505   3.079   1.929   3.588
    1SIL  Si098 1506   2.834   1.902   0.212
    1SIL  O00ID 1507   2.980   1.879   0.276
    1SIL  O00IE 1508   3.027   2.067   3.652
    1SIL  O00IF 1509   2.840   2.014   0.095
    1SIL  O00IG 1510   3.086   1.817   3.705
    1SIL  O00IH 1511   3.273   1.764   0.148
    1SIL  O00II 1512   3.225   1.952   0.329
    1SIL  Si09A 1513   2.834   2.354   3.588
    1SIL  Si09B 1514   2.588   2.328   0.212
    1SIL  O00IJ 1515   2.734   2.304   0.276
    1SIL  O00IK 1516   2.781   2.493   3.652
    1SIL  O00IL 1517   2.595   2.439   0.095
    1SIL  O00IM 1518   2.840   2.243   3.705
    1SIL  O00IN 1519   3.027   2.190   0.148
    1SIL  O00IO 1520   2.980   2.378   0.329
    1SIL  Si09D 1521   2.588   2.780   3.588
    1SIL  Si09E 1522   2.342   2.753   0.212
    1SIL  O00IP 1523   2.488   2.730   0.276
    1SIL  O00IQ 1524   2.535   2.918   3.652
    1SIL  O00IR 1525   2.349   2.865   0.095
    1SIL  O00IS 1526   2.595   2.668   3.705
    1SIL  O00IT 1527   2.781   2.615   0.148
    1SIL  O00IU 1528   2.734   2.804   0.329
    1SIL  Si09G 1529   2.342   3.206   3.588
    1SIL  Si09H 1530   2.097   3.179   0.212
    1SIL  O00IV 1531   2.242   3.156   0.276
    1SIL  O00IW 1532   2.290   3.344   3.652
    1SIL  O00IX 1533   2.103   3.291   0.095
    1SIL  O00IY 1534   2.349   3.094   3.705
    1SIL  O00IZ 1535   2.535   3.041   0.148
    1SIL  O00Ia 1536   2.488   3.229   0.329
    1SIL  Si09J 1537   2.097   3.631   3.588
    1SIL  Si09K 1538   1.851   3.605   0.212
    1SIL  O00Ib 1539   1.997   3.581   0.276
    1SIL  O00Ic 1540   2.044   3.769   3.652
    1SIL  O00Id 1541   1.857   3.716   0.095
    1SIL  O00Ie 1542   2.103   3.520   3.705
    1SIL  O00If 1543   2.290   3.467   0.148
    1SIL  O00Ig 1544   2.242   3.655   0.329
    1SIL  Si09M 1545   1.851   4.057   3.588
    1SIL  Si09N 1546   1.605   4.030   0.212
    1SIL  O00Ih 1547   1.751   4.007   0.276
    1SIL  O00Ii 1548   1.798   4.195   3.652
    1SIL  O00Ij 1549   1.612   4.142   0.095
    1SIL  O00Ik 1550   1.857   3.945   3.705
    1SIL  O00Il 1551   2.044   3.892   0.148
    1SIL  O00Im 1552   1.997   4.081   0.329
    1SIL  Si09P 1553   1.605   4.483   3.588
    1SIL  Si09Q 1554   1.359   4.456   0.212
    1SIL  O00In 1555   1.505   4.432   0.276
    1SIL  O00Io 1556   1.552   4.621   3.652
    1SIL  O00Ip 1557   1.366   4.568   0.095
    1SIL  O00Iq 1558   1.612   4.371   3.705
    1SIL  O00Ir 1559   1.798   4.318   0.148
    1SIL  O00Is 1560   1.751   4.506   0.329
    1SIL  Si09S 1561   1.359   4.908   3.588
    1SIL  Si09T 1562   1.114   4.882   0.212
    1SIL  O00It 1563   1.259   4.858   0.276
    1SIL  O00Iu 1564   1.307   5.046   3.652
    1SIL  O00Iv 1565   1.120   4.993   0.095
    1SIL  O00Iw 1566   1.366   4.797   3.705
    1SIL  O00Ix 1567   1.552   4.744   0.148
    1SIL  O00Iy 1568   1.505   4.932   0.329
    1SIL  Si09V 1569   1.114   5.334   3.588
    1SIL  Si09W 1570   0.868   5.307   0.212
    1SIL  O00Iz 1571   1.014   5.284   0.276
    1SIL  O00J0 1572   1.061   5.472   3.652
    1SIL  O00J1 1573   0.874   5.419   0.095
    1SIL  O00J2 1574   1.120   5.222   3.705
    1SIL  O00J3 1575   1.307   5.169   0.148
    1SIL  O00J4 1576   1.259   5.357   0.329
    1SIL  Si09Y 1577   0.868   5.759   3.588
    1SIL  Si09Z 1578   0.622   5.733   0.212
    1SIL  O00J5 1579   0.768   5.709   0.276
    1SIL  O00J6 1580   0.815   5.898   3.652
    1SIL  O00J7 1581   0.629   5.844   0.095
    1SIL  O00J8 1582   0.874   5.648   3.705
    1SIL  O00J9 1583   1.061   5.595   0.148
    1SIL  O00JA 1584   1.014   5.783   0.329
    1SIL  Si09b 1585   0.622   6.185   3.588
    1SIL  Si09c 1586   0.376   6.159   0.212
    1SIL  O00JB 1587   0.522   6.135   0.276
    1SIL  O00JC 1588   0.569   6.323   3.652
    1SIL  O00JD 1589   0.383   6.270   0.095
    1SIL  O00JE 1590   0.629   6.074   3.705
    1SIL  O00JF 1591   0.815   6.020   0.148
    1SIL  O00JG 1592   0.768   6.209   0.329
    1SIL  Si09e 1593   0.376   6.611   3.588
    1SIL  Si09f 1594   0.131   6.584   0.212
    1SIL  O00JH 1595   0.276   6.561   0.276
    1SIL  O00JI 1596   0.324   6.749   3.652
    1SIL  O00JJ 1597   0.137   6.696   0.095
    1SIL  O00JK 1598   0.383   6.499   3.705
    1SIL  O00JL 1599   0.569   6.446   0.148
    1SIL  O00JM 1600   0.522   6.634   0.329
    1SIL  Si09h 1601   0.131   7.036   3.588
    1SIL  Si09i 1602   9.715   7.010   0.212
    1SIL  O00JN 1603   0.031   6.986   0.276
    1SIL  O00JO 1604   0.078   7.175   3.652
    1SIL  O00JP 1605   9.721   7.121   0.095
    1SIL  O00JQ 1606   0.137   6.925   3.705
    1SIL  O00JR 1607   0.324   6.872   0.148
    1SIL  O00JS 1608   0.276   7.060   0.329
    1SIL  Si09k 1609   9.715   7.462   3.588
    1SIL  Si09l 1610   9.469   7.436   0.212
    1SIL  O00JT 1611   9.615   7.412   0.276
    1SIL  O00JU 1612   9.662   7.600   3.652
    1SIL  O00JV 1613   9.475   7.547   0.095
    1SIL  O00JW 1614   9.721   7.351   3.705
    1SIL  O00JX 1615   0.078   7.297   0.148
    1SIL  O00JY 1616   0.031   7.486   0.329
    1SIL  Si09n 1617   9.469   7.888   3.588
    1SIL  Si09o 1618   9.223   7.861   0.212
    1SIL  O00JZ 1619   9.369   7.838   0.276
    1SIL  O00Ja 1620   9.416   8.026   3.652
    1SIL  O00Jb 1621   9.230   7.973   0.095
    1SIL  O00Jc 1622   9.475   7.776   3.705
    1SIL  O00Jd 1623   9.662   7.723   0.148
    1SIL  O00Je 1624   9.615   7.911   0.329
    1SIL  Si09q 1625   9.223   8.313   3.588
    1SIL  Si09r 1626   8.977   8.287   0.212
    1SIL  O00Jf 1627   9.123   8.263   0.276
    1SIL  O00Jg 1628   9.171   8.452   3.652
    1SIL  O00Jh 1629   8.984   8.398   0.095
    1SIL  O00Ji 1630   9.230   8.202   3.705
    1SIL  O00Jj 1631   9.416   8.149   0.148
    1SIL  O00Jk 1632   9.369   8.337   0.329
    1SIL  Si09t 1633   8.977   8.739   3.588
    1SIL  Si09u 1634   8.732   8.713   0.212
    1SIL  O00Jl 1635   8.878   8.689   0.276
    1SIL  O00Jm 1636   8.925   8.877   3.652
    1SIL  O00Jn 1637   8.738   8.824   0.095
    1SIL  O00Jo 1638   8.984   8.628   3.705
    1SIL  O00Jp 1639   9.171   8.574   0.148
    1SIL  O00Jq 1640   9.123   8.763   0.329
    1SIL  Si09w 1641   8.732   9.165   3.588
    1SIL  Si09x 1642   8.486   9.138   0.212
    1SIL  O00Jr 1643   8.632   9.115   0.276
    1SIL  O00Js 1644   8.679   9.303   3.652
    1SIL  O00Jt 1645   8.492   9.250   0.095
    1SIL  O00Ju 1646   8.738   9.053   3.705
    1SIL  O00Jv 1647   8.925   9.000   0.148
    1SIL  O00Jw 1648   8.878   9.188   0.329
    1SIL  Si09z 1649   8.486   9.590   3.588
    1SIL  Si0A0 1650   8.240   9.564   0.212
    1SIL  O00Jx 1651   8.386   9.540   0.276
    1SIL  O00Jy 1652   8.433   9.729   3.652
    1SIL  O00Jz 1653   8.247   9.675   0.095
    1SIL  O00K0 1654   8.492   9.479   3.705
    1SIL  O00K1 1655   8.679   9.426   0.148
    1SIL  O00K2 1656   8.632   9.614   0.329
    1SIL  Si0A2 1657   4.554   0.226   3.588
    1SIL  Si0A3 1658   4.308   0.200   0.212
    1SIL  O00K3 1659   4.454   0.176   0.276
    1SIL  O00K4 1660   4.501   0.364   3.652
    1SIL  O00K5 1661   4.315   0.311   0.095
    1SIL  O00K6 1662   4.560   0.115   3.705
    1SIL  O00K7 1663   4.747   0.061   0.148
    1SIL  O00K8 1664   4.700   0.250   0.329
    1SIL  Si0A5 1665   4.308   0.652   3.588
    1SIL  Si0A6 1666   4.062   0.625   0.212
    1SIL  O00K9 1667   4.208   0.602   0.276
    1SIL  O00KA 1668   4.256   0.790   3.652
    1SIL  O00KB 1669   4.069   0.737   0.095
    1SIL  O00KC 1670   4.315   0.540   3.705
    1SIL  O00KD 1671   4.501   0.487   0.148
    1SIL  O00KE 1672   4.454   0.675   0.329
    1SIL  Si0A8 1673   4.062   1.077   3.588
    1SIL  Si0A9 1674   3.817   1.051   0.212
    1SIL  O00KF 1675   3.963   1.027   0.276
    1SIL  O00KG 1676   4.010   1.216   3.652
    1SIL  O00KH 1677   3.823   1.162   0.095
    1SIL  O00KI 1678   4.069   0.966   3.705
    1SIL  O00KJ 1679   4.256   0.913   0.148
    1SIL  O00KK 1680   4.208   1.101   0.329
    1SIL  Si0AB 1681   3.817   1.503   3.588
    1SIL  Si0AC 1682   3.571   1.477   0.212
    1SIL  O00KL 1683   3.717   1.453   0.276
    1SIL  O00KM 1684   3.764   1.641   3.652
    1SIL  O00KN 1685   3.577   1.588   0.095
    1SIL  O00KO 1686   3.823   1.392   3.705
    1SIL  O00KP 1687   4.010   1.338   0.148
    1SIL  O00KQ 1688   3.963   1.527   0.329
    1SIL  Si0AE 1689   3.571   1.929   3.588
    1SIL  Si0AF 1690   3.325   1.902   0.212
    1SIL  O00KR 1691   3.471   1.879   0.276
    1SIL  O00KS 1692   3.518   2.067   3.652
    1SIL  O00KT 1693   3.332   2.014   0.095
    1SIL  O00KU 1694   3.577   1.817   3.705
    1SIL  O00KV 1695   3.764   1.764   0.148
    1SIL  O00KW 1696   3.717   1.952   0.329
    1SIL  Si0AH 1697   3.325   2.354   3.588
    1SIL  Si0AI 1698   3.079   2.328   0.212
    1SIL  O00KX 1699   3.225   2.304   0.276
    1SIL  O00KY 1700   3.273   2.493   3.652
    1SIL  O00KZ 1701   3.086   2.439   0.095
    1SIL  O00Ka 1702   3.332   2.243   3.705
    1SIL  O00Kb 1703   3.518   2.190   0.148
    1SIL  O00Kc 1704   3.471   2.378   0.329
    1SIL  Si0AK 1705   3.079   2.780   3.588
    1SIL  Si0AL 1706   2.834   2.753   0.212
    1SIL  O00Kd 1707   2.980   2.730   0.276
    1SIL  O00Ke 1708   3.027   2.918   3.652
    1SIL  O00Kf 1709   2.840   2.865   0.095
    1SIL  O00Kg 1710   3.086   2.668   3.705
    1SIL  O00Kh 1711   3.273   2.615   0.148
    1SIL  O00Ki 1712   3.225   2.804   0.329
    1SIL  Si0AN 1713   2.834   3.206   3.588
    1SIL  Si0AO 1714   2.588   3.179   0.212
    1SIL  O00Kj 1715   2.734   3.156   0.276
    1SIL  O00Kk 1716   2.781   3.344   3.652
    1SIL  O00Kl 1717   2.595   3.291   0.095
    1SIL  O00Km 1718   2.840   3.094   3.705
    1SIL  O00Kn 1719   3.027   3.041   0.148
    1SIL  O00Ko 1720   2.980   3.229   0.329
    1SIL  Si0AQ 1721   2.588   3.631   3.588
    1SIL  Si0AR 1722   2.342   3.605   0.212
    1SIL  O00Kp 1723   2.488   3.581   0.276
    1SIL  O00Kq 1724   2.535   3.769   3.652
    1SIL  O00Kr 1725   2.349   3.716   0.095
    1SIL  O00Ks 1726   2.595   3.520   3.705
    1SIL  O00Kt 1727   2.781   3.467   0.148
    1SIL  O00Ku 1728   2.734   3.655   0.329
    1SIL  Si0AT 1729   2.342   4.057   3.588
    1SIL  Si0AU 1730   2.097   4.030   0.212
    1SIL  O00Kv 1731   2.242   4.007   0.276
    1SIL  O00Kw 1732   2.290   4.195   3.652
    1SIL  O00Kx 1733   2.103   4.142   0.095
    1SIL  O00Ky 1734   2.349   3.945   3.705
    1SIL  O00Kz 1735   2.535   3.892   0.148
    1SIL  O00L0 1736   2.488   4.081   0.329
    1SIL  Si0AW 1737   2.097   4.483   3.588
    1SIL  Si0AX 1738   1.851   4.456   0.212
    1SIL  O00L1 1739   1.997   4.432   0.276
    1SIL  O00L2 1740   2.044   4.621   3.652
    1SIL  O00L3 1741   1.857   4.568   0.095
    1SIL  O00L4 1742   2.103   4.371   3.705
    1SIL  O00L5 1743   2.290   4.318   0.148
    1SIL  O00L6 1744   2.242   4.506   0.329
    1SIL  Si0AZ 1745   1.851   4.908   3.588
    1SIL  Si0Aa 1746   1.605   4.882   0.212
    1SIL  O00L7 1747   1.751   4.858   0.276
    1SIL  O00L8 1748   1.798   5.046   3.652
    1SIL  O00L9 1749   1.612   4.993   0.095
    1SIL  O00LA 1750   1.857   4.797   3.705
    1SIL  O00LB 1751   2.044   4.744   0.148
    1SIL  O00LC 1752   1.997   4.932   0.329
    1SIL  Si0Ac 1753   1.605   5.334   3.588
    1SIL  Si0Ad 1754   1.359   5.307   0.212
    1SIL  O00LD 1755   1.505   5.284   0.276
    1SIL  O00LE 1756   1.552   5.472   3.652
    1SIL  O00LF 1757   1.366   5.419   0.095
    1SIL  O00LG 1758   1.612   5.222   3.705
    1SIL  O00LH 1759   1.798   5.169   0.148
    1SIL  O00LI 1760   1.751   5.357   0.329
    1SIL  Si0Af 1761   1.359   5.759   3.588
    1SIL  Si0Ag 1762   1.114   5.733   0.212
    1SIL  O00LJ 1763   1.259   5.709   0.276
    1SIL  O00LK 1764   1.307   5.898   3.652
    1SIL  O00LL 1765   1.120   5.844   0.095
    1SIL  O00LM 1766   1.366   5.648   3.705
    1SIL  O00LN 1767   1.552   5.595   0.148
    1SIL  O00LO 1768   1.505   5.783   0.329
    1SIL  Si0Ai 1769   1.114   6.185   3.588
    1SIL  Si0Aj 1770   0.868   6.159   0.212
    1SIL  O00LP 1771   1.014   6.135   0.276
    1SIL  O00LQ 1772   1.061   6.323   3.652
    1SIL  O00LR 1773   0.874   6.270   0.095
    1SIL  O00LS 1774   1.120   6.074   3.705
    1SIL  O00LT 1775   1.307   6.020   0.148
    1SIL  O00LU 1776   1.259   6.209   0.329
    1SIL  Si0Al 1777   0.868   6.611   3.588
    1SIL  Si0Am 1778   0.622   6.584   0.212
    1SIL  O00LV 1779   0.768   6.561   0.276
    1SIL  O00LW 1780   0.815   6.749   3.652
    1SIL  O00LX 1781   0.629   6.696   0.095
    1SIL  O00LY 1782   0.874   6.499   3.705
    1SIL  O00LZ 1783   1.061   6.446   0.148
    1SIL  O00La 1784   1.014   6.634   0.329
    1SIL  Si0Ao 1785   0.622   7.036   3.588
    1SIL  Si0Ap 1786   0.376   7.010   0.212
    1SIL  O00Lb 1787   0.522   6.986   0.276
    1SIL  O00Lc 1788   0.569   7.175   3.652
    1SIL  O00Ld 1789   0.383   7.121   0.095
    1SIL  O00Le 1790   0.629   6.925   3.705
    1SIL  O00Lf 1791   0.815   6.872   0.148
    1SIL  O00Lg 1792   0.768   7.060   0.329
    1SIL  Si0Ar 1793   0.376   7.462   3.588
    1SIL  Si0As 1794   0.131   7.436   0.212
    1SIL  O00Lh 1795   0.276   7.412   0.276
    1SIL  O00Li 1796   0.324   7.600   3.652
    1SIL  O00Lj 1797   0.137   7.547   0.095
    1SIL  O00Lk 1798   0.383   7.351   3.705
    1SIL  O00Ll 1799   0.569   7.297   0.148
    1SIL  O00Lm 1800   0.522   7.486   0.329
    1SIL  Si0Au 1801   0.131   7.888   3.588
    1SIL  Si0Av 1802   9.715   7.861   0.212
    1SIL  O00Ln 1803   0.031   7.838   0.276
    1SIL  O00Lo 1804   0.078   8.026   3.652
    1SIL  O00Lp 1805   9.721   7.973   0.095
    1SIL  O00Lq 1806   0.137   7.776   3.705
    1SIL  O00Lr 1807   0.324   7.723   0.148
    1SIL  O00Ls 1808   0.276   7.911   0.329
    1SIL  Si0Ax 1809   9.715   8.313   3.588
    1SIL  Si0Ay 1810   9.469   8.287   0.212
    1SIL  O00Lt 1811   9.615   8.263   0.276
    1SIL  O00Lu 1812   9.662   8.452   3.652
    1SIL  O00Lv 1813   9.475   8.398   0.095
    1SIL  O00Lw 1814   9.721   8.202   3.705
    1SIL  O00Lx 1815   0.078   8.149   0.148
    1SIL  O00Ly 1816   0.031   8.337   0.329
    1SIL  Si0B0 1817   9.469   8.739   3.588
    1SIL  Si0B1 1818   9.223   8.713   0.212
    1SIL  O00Lz 1819   9.369   8.689   0.276
    1SIL  O00M0 1820   9.416   8.877   3.652
    1SIL  O00M1 1821   9.230   8.824   0.095
    1SIL  O00M2 1822   9.475   8.628   3.705
    1SIL  O00M3 1823   9.662   8.574   0.148
    1SIL  O00M4 1824   9.615   8.763   0.329
    1SIL  Si0B3 1825   9.223   9.165   3.588
    1SIL  Si0B4 1826   8.977   9.138   0.212
    1SIL  O00M5 1827   9.123   9.115   0.276
    1SIL  O00M6 1828   9.171   9.303   3.652
    1SIL  O00M7 1829   8.984   9.250   0.095
    1SIL  O00M8 1830   9.230   9.053   3.705
    1SIL  O00M9 1831   9.416   9.000   0.148
    1SIL  O00MA 1832   9.369   9.188   0.329
    1SIL  Si0B6 1833   8.977   9.590   3.588
    1SIL  Si0B7 1834   8.732   9.564   0.212
    1SIL  O00MB 1835   8.878   9.540   0.276
    1SIL  O00MC 1836   8.925   9.729   3.652
    1SIL  O00MD 1837   8.738   9.675   0.095
    1SIL  O00ME 1838   8.984   9.479   3.705
    1SIL  O00MF 1839   9.171   9.426   0.148
    1SIL  O00MG 1840   9.123   9.614   0.329
    1SIL  Si0B9 1841   5.045   0.226   3.588
    1SIL  Si0BA 1842   4.800   0.200   0.212
    1SIL  O00MH 1843   4.946   0.176   0.276
    1SIL  O00MI 1844   4.993   0.364   3.652
    1SIL  O00MJ 1845   4.806   0.311   0.095
    1SIL  O00MK 1846   5.052   0.115   3.705
    1SIL  O00ML 1847   5.239   0.061   0.148
    1SIL  O00MM 1848   5.191   0.250   0.329
    1SIL  Si0BC 1849   4.800   0.652   3.588
    1SIL  Si0BD 1850   4.554   0.625   0.212
    1SIL  O00MN 1851   4.700   0.602   0.276
    1SIL  O00MO 1852   4.747   0.790   3.652
    1SIL  O00MP 1853   4.560   0.737   0.095
    1SIL  O00MQ 1854   4.806   0.540   3.705
    1SIL  O00MR 1855   4.993   0.487   0.148
    1SIL  O00MS 1856   4.946   0.675   0.329
    1SIL  Si0BF 1857   4.554   1.077   3.588
    1SIL  Si0BG 1858   4.308   1.051   0.212
    1SIL  O00MT 1859   4.454   1.027   0.276
    1SIL  O00MU 1860   4.501   1.216   3.652
    1SIL  O00MV 1861   4.315   1.162   0.095
    1SIL  O00MW 1862   4.560   0.966   3.705
    1SIL  O00MX 1863   4.747   0.913   0.148
    1SIL  O00MY 1864   4.700   1.101   0.329
    1SIL  Si0BI 1865   4.308   1.503   3.588
    1SIL  Si0BJ 1866   4.062   1.477   0.212
    1SIL  O00MZ 1867   4.208   1.453   0.276
    1SIL  O00Ma 1868   4.256   1.641   3.652
    1SIL  O00Mb 1869   4.069   1.588   0.095
    1SIL  O00Mc 1870   4.315   1.392   3.705
    1SIL  O00Md 1871   4.501   1.338   0.148
    1SIL  O00Me 1872   4.454   1.527   0.329
    1SIL  Si0BL 1873   4.062   1.929   3.588
    1SIL  Si0BM 1874   3.817   1.902   0.212
    1SIL  O00Mf 1875   3.963   1.879   0.276
    1SIL  O00Mg 1876   4.010   2.067   3.652
    1SIL  O00Mh 1877   3.823   2.014   0.095
    1SIL  O00Mi 1878   4.069   1.817   3.705
    1SIL  O00Mj 1879   4.256   1.764   0.148
    1SIL  O00Mk 1880   4.208   1.952   0.329
    1SIL  Si0BO 1881   3.817   2.354   3.588
    1SIL  Si0BP 1882   3.571   2.328   0.212
    1SIL  O00Ml 1883   3.717   2.304   0.276
    1SIL  O00Mm 1884   3.764   2.493   3.652
    1SIL  O00Mn 1885   3.577   2.439   0.095
    1SIL  O00Mo 1886   3.823   2.243   3.705
    1SIL  O00Mp 1887   4.010   2.190   0.148
    1SIL  O00Mq 1888   3.963   2.378   0.329
    1SIL  Si0BR 1889   3.571   2.780   3.588
    1SIL  Si0BS 1890   3.325   2.753   0.212
    1SIL  O00Mr 1891   3.471   2.730   0.276
    1SIL  O00Ms 1892   3.518   2.918   3.652
    1SIL  O00Mt 1893   3.332   2.865   0.095
    1SIL  O00Mu 1894   3.577   2.668   3.705
    1SIL  O00Mv 1895   3.764   2.615   0.148
    1SIL  O00Mw 1896   3.717   2.804   0.329
    1SIL  Si0BU 1897   3.325   3.206   3.588
    1SIL  Si0BV 1898   3.079   3.179   0.212
    1SIL  O00Mx 1899   3.225   3.156   0.276
    1SIL  O00My 1900   3.273   3.344   3.652
    1SIL  O00Mz 1901   3.086   3.291   0.095
    1SIL  O00N0 1902   3.332   3.094   3.705
    1SIL  O00N1 1903   3.518   3.041   0.148
    1SIL  O00N2 1904   3.471   3.229   0.329
    1SIL  Si0BX 1905   3.079   3.631   3.588
    1SIL  Si0BY 1906   2.834   3.605   0.212
    1SIL  O00N3 1907   2.980   3.581   0.276
    1SIL  O00N4 1908   3.027   3.769   3.652
    1SIL  O00N5 1909   2.840   3.716   0.095
    1SIL  O00N6 1910   3.086   3.520   3.705
    1SIL  O00N7 1911   3.273   3.467   0.148
    1SIL  O00N8 1912   3.225   3.655   0.329
    1SIL  Si0Ba 1913   2.834   4.057   3.588
    1SIL  Si0Bb 1914   2.588   4.030   0.212
    1SIL  O00N9 1915   2.734   4.007   0.276
    1SIL  O00NA 1916   2.781   4.195   3.652
    1SIL  O00NB 1917   2.595   4.142   0.095
    1SIL  O00NC 1918   2.840   3.945   3.705
    1SIL  O00ND 1919   3.027   3.892   0.148
    1SIL  O00NE 1920   2.980   4.081   0.329
    1SIL  Si0Bd 1921   2.588   4.483   3.588
    1SIL  Si0Be 1922   2.342   4.456   0.212
    1SIL  O00NF 1923   2.488   4.432   0.276
    1SIL  O00NG 1924   2.535   4.621   3.652
    1SIL  O00NH 1925   2.349   4.568   0.095
    1SIL  O00NI 1926   2.595   4.371   3.705
    1SIL  O00NJ 1927   2.781   4.318   0.148
    1SIL  O00NK 1928   2.734   4.506   0.329
    1SIL  Si0Bg 1929   2.342   4.908   3.588
    1SIL  Si0Bh 1930   2.097   4.882   0.212
    1SIL  O00NL 1931   2.242   4.858   0.276
    1SIL  O00NM 1932   2.290   5.046   3.652
    1SIL  O00NN 1933   2.103   4.993   0.095
    1SIL  O00NO 1934   2.349   4.797   3.705
    1SIL  O00NP 1935   2.535   4.744   0.148
    1SIL  O00NQ 1936   2.488   4.932   0.329
    1SIL  Si0Bj 1937   2.097   5.334   3.588
    1SIL  Si0Bk 1938   1.851   5.307   0.212
    1SIL  O00NR 1939   1.997   5.284   0.276
    1SIL  O00NS 1940   2.044   5.472   3.652
    1SIL  O00NT 1941   1.857   5.419   0.095
    1SIL  O00NU 1942   2.103   5.222   3.705
    1SIL  O00NV 1943   2.290   5.169   0.148
    1SIL  O00NW 1944   2.242   5.357   0.329
    1SIL  Si0Bm 1945   1.851   5.759   3.588
    1SIL  Si0Bn 1946   1.605   5.733   0.212
    1SIL  O00NX 1947   1.751   5.709   0.276
    1SIL  O00NY 1948   1.798   5.898   3.652
    1SIL  O00NZ 1949   1.612   5.844   0.095
    1SIL  O00Na 1950   1.857   5.648   3.705
    1SIL  O00Nb 1951   2.044   5.595   0.148
    1SIL  O00Nc 1952   1.997   5.783   0.329
    1SIL  Si0Bp 1953   1.605   6.185   3.588
    1SIL  Si0Bq 1954   1.359   6.159   0.212
    1SIL  O00Nd 1955   1.505   6.135   0.276
    1SIL  O00Ne 1956   1.552   6.323   3.652
    1SIL  O00Nf 1957   1.366   6.270   0.095
    1SIL  O00Ng 1958   1.612   6.074   3.705
    1SIL  O00Nh 1959   1.798   6.020   0.148
    1SIL  O00Ni 1960   1.751   6.209   0.329
    1SIL  Si0Bs 1961   1.359   6.611   3.588
    1SIL  Si0Bt 1962   1.114   6.584   0.212
    1SIL  O00Nj 1963   1.259   6.561   0.276
    1SIL  O00Nk 1964   1.307   6.749   3.652
    1SIL  O00Nl 1965   1.120   6.696   0.095
    1SIL  O00Nm 1966   1.366   6.499   3.705
    1SIL  O00Nn 1967   1.552   6.446   0.148
    1SIL  O00No 1968   1.505   6.634   0.329
    1SIL  Si0Bv 1969   1.114   7.036   3.588
    1SIL  Si0Bw 1970   0.868   7.010   0.212
    1SIL  O00Np 1971   1.014   6.986   0.276
    1SIL  O00Nq 1972   1.061   7.175   3.652
    1SIL  O00Nr 1973   0.874   7.121   0.095
    1SIL  O00Ns 1974   1.120   6.925   3.705
    1SIL  O00Nt 1975   1.307   6.872   0.148
    1SIL  O00Nu 1976   1.259   7.060   0.329
    1SIL  Si0By 1977   0.868   7.462   3.588
    1SIL  Si0Bz 1978   0.622   7.436   0.212
    1SIL  O00Nv 1979   0.768   7.412   0.276
    1SIL  O00Nw 1980   0.815   7.600   3.652
    1SIL  O00Nx 1981   0.629   7.547   0.095
    1SIL  O00Ny 1982   0.874   7.351   3.705
    1SIL  O00Nz 1983   1.061   7.297   0.148
    1SIL  O00O0 1984   1.014   7.486   0.329
    1SIL  Si0C1 1985   0.622   7.888   3.588
    1SIL  Si0C2 1986   0.376   7.861   0.212
    1SIL  O00O1 1987   0.522   7.838   0.276
    1SIL  O00O2 1988   0.569   8.026   3.652
    1SIL  O00O3 1989   0.383   7.973   0.095
    1SIL  O00O4 1990   0.629   7.776   3.705
    1SIL  O00O5 1991   0.815   7.723   0.148
    1SIL  O00O6 1992   0.768   7.911   0.329
    1SIL  Si0C4 1993   0.376   8.313   3.588
    1SIL  Si0C5 1994   0.131   8.287   0.212
    1SIL  O00O7 1995   0.276   8.263   0.276
    1SIL  O00O8 1996   0.324   8.452   3.652
    1SIL  O00O9 1997   0.137   8.398   0.095
    1SIL  O00OA 1998   0.383   8.202   3.705
    1SIL  O00OB 1999   0.569   8.149   0.148
    1SIL  O00OC 2000   0.522   8.337   0.329
    1SIL  Si0C7 2001   0.131   8.739   3.588
    1SIL  Si0C8 2002   9.715   8.713   0.212
    1SIL  O00OD 2003   0.031   8.689   0.276
    1SIL  O00OE 2004   0.078   8.877   3.652
    1SIL  O00OF 2005   9.721   8.824   0.095
    1SIL  O00OG 2006   0.137   8.628   3.705
    1SIL  O00OH 2007   0.324   8.574   0.148
    1SIL  O00OI 2008   0.276   8.763   0.329
    1SIL  Si0CA 2009   9.715   9.165   3.588
    1SIL  Si0CB 2010   9.469   9.138   0.212
    1SIL  O00OJ 2011   9.615   9.115   0.276
    1SIL  O00OK 2012   9.662   9.303   3.652
    1SIL  O00OL 2013   9.475   9.250   0.095
    1SIL  O00OM 2014   9.721   9.053   3.705
    1SIL  O00ON 2015   0.078   9.000   0.148
    1SIL  O00OO 2016   0.031   9.188   0.329
    1SIL  Si0CD 2017   9.469   9.590   3.588
    1SIL  Si0CE 2018   9.223   9.564   0.212
    1SIL  O00OP 2019   9.369   9.540   0.276
    1SIL  O00OQ 2020   9.416   9.729   3.652
    1SIL  O00OR 2021   9.230   9.675   0.095
    1SIL  O00OS 2022   9.475   9.479   3.705
    1SIL  O00OT 2023   9.662   9.426   0.148
    1SIL  O00OU 2024   9.615   9.614   0.329
    1SIL  Si0CG 2025   5.537   0.226   3.588
    1SIL  Si0CH 2026   5.291   0.200   0.212
    1SIL  O00OV 2027   5.437   0.176   0.276
    1SIL  O00OW 2028   5.484   0.364   3.652
    1SIL  O00OX 2029   5.298   0.311   0.095
    1SIL  O00OY 2030   5.543   0.115   3.705
    1SIL  O00OZ 2031   5.730   0.061   0.148
    1SIL  O00Oa 2032   5.683   0.250   0.329
    1SIL  Si0CJ 2033   5.291   0.652   3.588
    1SIL  Si0CK 2034   5.045   0.625   0.212
    1SIL  O00Ob 2035   5.191   0.602   0.276
    1SIL  O00Oc 2036   5.239   0.790   3.652
    1SIL  O00Od 2037   5.052   0.737   0.095
    1SIL  O00Oe 2038   5.298   0.540   3.705
    1SIL  O00Of 2039   5.484   0.487   0.148
    1SIL  O00Og 2040   5.437   0.675   0.329
    1SIL  Si0CM 2041   5.045   1.077   3.588
    1SIL  Si0CN 2042   4.800   1.051   0.212
    1SIL  O00Oh 2043   4.946   1.027   0.276
    1SIL  O00Oi 2044   4.993   1.216   3.652
    1SIL  O00Oj 2045   4.806   1.162   0.095
    1SIL  O00Ok 2046   5.052   0.966   3.705
    1SIL  O00Ol 2047   5.239   0.913   0.148
    1SIL  O00Om 2048   5.191   1.101   0.329
    1SIL  Si0CP 2049   4.800   1.503   3.588
    1SIL  Si0CQ 2050   4.554   1.477   0.212
    1SIL  O00On 2051   4.700   1.453   0.276
    1SIL  O00Oo 2052   4.747   1.641   3.652
    1SIL  O00Op 2053   4.560   1.588   0.095
    1SIL  O00Oq 2054   4.806   1.392   3.705
    1SIL  O00Or 2055   4.993   1.338   0.148
    1SIL  O00Os 2056   4.946   1.527   0.329
    1SIL  Si0CS 2057   4.554   1.929   3.588
    1SIL  Si0CT 2058   4.308   1.902   0.212
    1SIL  O00Ot 2059   4.454   1.879   0.276
    1SIL  O00Ou 2060   4.501   2.067   3.652
    1SIL  O00Ov 2061   4.315   2.014   0.095
    1SIL  O00Ow 2062   4.560   1.817   3.705
    1SIL  O00Ox 2063   4.747   1.764   0.148
    1SIL  O00Oy 2064   4.700   1.952   0.329
    1SIL  Si0CV 2065   4.308   2.354   3.588
    1SIL  Si0CW 2066   4.062   2.328   0.212
    1SIL  O00Oz 2067   4.208   2.304   0.276
    1SIL  O00P0 2068   4.256   2.493   3.652
    1SIL  O00P1 2069   4.069   2.439   0.095
    1SIL  O00P2 2070   4.315   2.243   3.705
    1SIL  O00P3 2071   4.501   2.190   0.148
    1SIL  O00P4 2072   4.454   2.378   0.329
    1SIL  Si0CY 2073   4.062   2.780   3.588
    1SIL  Si0CZ 2074   3.817   2.753   0.212
    1SIL  O00P5 2075   3.963   2.730   0.276
    1SIL  O00P6 2076   4.010   2.918   3.652
    1SIL  O00P7 2077   3.823   2.865   0.095
    1SIL  O00P8 2078   4.069   2.668   3.705
    1SIL  O00P9 2079   4.256   2.615   0.148
    1SIL  O00PA 2080   4.208   2.804   0.329
    1SIL  Si0Cb 2081   3.817   3.206   3.588
    1SIL  Si0Cc 2082   3.571   3.179   0.212
    1SIL  O00PB 2083   3.717   3.156   0.276
    1SIL  O00PC 2084   3.764   3.344   3.652
    1SIL  O00PD 2085   3.577   3.291   0.095
    1SIL  O00PE 2086   3.823   3.094   3.705
    1SIL  O00PF 2087   4.010   3.041   0.148
    1SIL  O00PG 2088   3.963   3.229   0.329
    1SIL  Si0Ce 2089   3.571   3.631   3.588
    1SIL  Si0Cf 2090   3.325   3.605   0.212
    1SIL  O00PH 2091   3.471   3.581   0.276
    1SIL  O00PI 2092   3.518   3.769   3.652
    1SIL  O00PJ 2093   3.332   3.716   0.095
    1SIL  O00PK 2094   3.577   3.520   3.705
    1SIL  O00PL 2095   3.764   3.467   0.148
    1SIL  O00PM 2096   3.717   3.655   0.329
    1SIL  Si0Ch 2097   3.325   4.057   3.588
    1SIL  Si0Ci 2098   3.079   4.030   0.212
    1SIL  O00PN 2099   3.225   4.007   0.276
    1SIL  O00PO 2100   3.273   4.195   3.652
    1SIL  O00PP 2101   3.086   4.142   0.095
    1SIL  O00PQ 2102   3.332   3.945   3.705
    1SIL  O00PR 2103   3.518   3.892   0.148
    1SIL  O00PS 2104   3.471   4.081   0.329
    1SIL  Si0Ck 2105   3.079   4.483   3.588
    1SIL  Si0Cl 2106   2.834   4.456   0.212
    1SIL  O00PT 2107   2.980   4.432   0.276
    1SIL  O00PU 2108   3.027   4.621   3.652
    1SIL  O00PV 2109   2.840   4.568   0.095
    1SIL  O00PW 2110   3.086   4.371   3.705
    1SIL  O00PX 2111   3.273   4.318   0.148
    1SIL  O00PY 2112   3.225   4.506   0.329
    1SIL  Si0Cn 2113   2.834   4.908   3.588
    1SIL  Si0Co 2114   2.588   4.882   0.212
    1SIL  O00PZ 2115   2.734   4.858   0.276
    1SIL  O00Pa 2116   2.781   5.046   3.652
    1SIL  O00Pb 2117   2.595   4.993   0.095
    1SIL  O00Pc 2118   2.840   4.797   3.705
    1SIL  O00Pd 2119   3.027   4.744   0.148
    1SIL  O00Pe 2120   2.980   4.932   0.329
    1SIL  Si0Cq 2121   2.588   5.334   3.588
    1SIL  Si0Cr 2122   2.342   5.307   0.212
    1SIL  O00Pf 2123   2.488   5.284   0.276
    1SIL  O00Pg 2124   2.535   5.472   3.652
    1SIL  O00Ph 2125   2.349   5.419   0.095
    1SIL  O00Pi 2126   2.595   5.222   3.705
    1SIL  O00Pj 2127   2.781   5.169   0.148
    1SIL  O00Pk 2128   2.734   5.357   0.329
    1SIL  Si0Ct 2129   2.342   5.759   3.588
    1SIL  Si0Cu 2130   2.097   5.733   0.212
    1SIL  O00Pl 2131   2.242   5.709   0.276
    1SIL  O00Pm 2132   2.290   5.898   3.652
    1SIL  O00Pn 2133   2.103   5.844   0.095
    1SIL  O00Po 2134   2.349   5.648   3.705
    1SIL  O00Pp 2135   2.535   5.595   0.148
    1SIL  O00Pq 2136   2.488   5.783   0.329
    1SIL  Si0Cw 2137   2.097   6.185   3.588
    1SIL  Si0Cx 2138   1.851   6.159   0.212
    1SIL  O00Pr 2139   1.997   6.135   0.276
    1SIL  O00Ps 2140   2.044   6.323   3.652
    1SIL  O00Pt 2141   1.857   6.270   0.095
    1SIL  O00Pu 2142   2.103   6.074   3.705
    1SIL  O00Pv 2143   2.290   6.020   0.148
    1SIL  O00Pw 2144   2.242   6.209   0.329
    1SIL  Si0Cz 2145   1.851   6.611   3.588
    1SIL  Si0D0 2146   1.605   6.584   0.212
    1SIL  O00Px 2147   1.751   6.561   0.276
    1SIL  O00Py 2148   1.798   6.749   3.652
    1SIL  O00Pz 2149   1.612   6.696   0.095
    1SIL  O00Q0 2150   1.857   6.499   3.705
    1SIL  O00Q1 2151   2.044   6.446   0.148
    1SIL  O00Q2 2152   1.997   6.634   0.329
    1SIL  Si0D2 2153   1.605   7.036   3.588
    1SIL  Si0D3 2154   1.359   7.010   0.212
    1SIL  O00Q3 2155   1.505   6.986   0.276
    1SIL  O00Q4 2156   1.552   7.175   3.652
    1SIL  O00Q5 2157   1.366   7.121   0.095
    1SIL  O00Q6 2158   1.612   6.925   3.705
    1SIL  O00Q7 2159   1.798   6.872   0.148
    1SIL  O00Q8 2160   1.751   7.060   0.329
    1SIL  Si0D5 2161   1.359   7.462   3.588
    1SIL  Si0D6 2162   1.114   7.436   0.212
    1SIL  O00Q9 2163   1.259   7.412   0.276
    1SIL  O00QA 2164   1.307   7.600   3.652
    1SIL  O00QB 2165   1.120   7.547   0.095
    1SIL  O00QC 2166   1.366   7.351   3.705
    1SIL  O00QD 2167   1.552   7.297   0.148
    1SIL  O00QE 2168   1.505   7.486   0.329
    1SIL  Si0D8 2169   1.114   7.888   3.588
    1SIL  Si0D9 2170   0.868   7.861   0.212
    1SIL  O00QF 2171   1.014   7.838   0.276
    1SIL  O00QG 2172   1.061   8.026   3.652
    1SIL  O00QH 2173   0.874   7.973   0.095
    1SIL  O00QI 2174   1.120   7.776   3.705
    1SIL  O00QJ 2175   1.307   7.723   0.148
    1SIL  O00QK 2176   1.259   7.911   0.329
    1SIL  Si0DB 2177   0.868   8.313   3.588
    1SIL  Si0DC 2178   0.622   8.287   0.212
    1SIL  O00QL 2179   0.768   8.263   0.276
    1SIL  O00QM 2180   0.815   8.452   3.652
    1SIL  O00QN 2181   0.629   8.398   0.095
    1SIL  O00QO 2182   0.874   8.202   3.705
    1SIL  O00QP 2183   1.061   8.149   0.148
    1SIL  O00QQ 2184   1.014   8.337   0.329
    1SIL  Si0DE 2185   0.622   8.739   3.588
    1SIL  Si0DF 2186   0.376   8.713   0.212
    1SIL  O00QR 2187   0.522   8.689   0.276
    1SIL  O00QS 2188   0.569   8.877   3.652
    1SIL  O00QT 2189   0.383   8.824   0.095
    1SIL  O00QU 2190   0.629   8.628   3.705
    1SIL  O00QV 2191   0.815   8.574   0.148
    1SIL  O00QW 2192   0.768   8.763   0.329
    1SIL  Si0DH 2193   0.376   9.165   3.588
    1SIL  Si0DI 2194   0.131   9.138   0.212
    1SIL  O00QX 2195   0.276   9.115   0.276
    1SIL  O00QY 2196   0.324   9.303   3.652
    1SIL  O00QZ 2197   0.137   9.250   0.095
    1SIL  O00Qa 2198   0.383   9.053   3.705
    1SIL  O00Qb 2199   0.569   9.000   0.148
    1SIL  O00Qc 2200   0.522   9.188   0.329
    1SIL  Si0DK 2201   0.131   9.590   3.588
    1SIL  Si0DL 2202   9.715   9.564   0.212
    1SIL  O00Qd 2203   0.031   9.540   0.276
    1SIL  O00Qe 2204   0.078   9.729   3.652
    1SIL  O00Qf 2205   9.721   9.675   0.095
    1SIL  O00Qg 2206   0.137   9.479   3.705
    1SIL  O00Qh 2207   0.324   9.426   0.148
    1SIL  O00Qi 2208   0.276   9.614   0.329
    1SIL  Si0DN 2209   6.028   0.226   3.588
    1SIL  Si0DO 2210   5.783   0.200   0.212
    1SIL  O00Qj 2211   5.929   0.176   0.276
    1SIL  O00Qk 2212   5.976   0.364   3.652
    1SIL  O00Ql 2213   5.789   0.311   0.095
    1SIL  O00Qm 2214   6.035   0.115   3.705
    1SIL  O00Qn 2215   6.222   0.061   0.148
    1SIL  O00Qo 2216   6.174   0.250   0.329
    1SIL  Si0DQ 2217   5.783   0.652   3.588
    1SIL  Si0DR 2218   5.537   0.625   0.212
    1SIL  O00Qp 2219   5.683   0.602   0.276
    1SIL  O00Qq 2220   5.730   0.790   3.652
    1SIL  O00Qr 2221   5.543   0.737   0.095
    1SIL  O00Qs 2222   5.789   0.540   3.705
    1SIL  O00Qt 2223   5.976   0.487   0.148
    1SIL  O00Qu 2224   5.929   0.675   0.329
    1SIL  Si0DT 2225   5.537   1.077   3.588
    1SIL  Si0DU 2226   5.291   1.051   0.212
    1SIL  O00Qv 2227   5.437   1.027   0.276
    1SIL  O00Qw 2228   5.484   1.216   3.652
    1SIL  O00Qx 2229   5.298   1.162   0.095
    1SIL  O00Qy 2230   5.543   0.966   3.705
    1SIL  O00Qz 2231   5.730   0.913   0.148
    1SIL  O00R0 2232   5.683   1.101   0.329
    1SIL  Si0DW 2233   5.291   1.503   3.588
    1SIL  Si0DX 2234   5.045   1.477   0.212
    1SIL  O00R1 2235   5.191   1.453   0.276
    1SIL  O00R2 2236   5.239   1.641   3.652
    1SIL  O00R3 2237   5.052   1.588   0.095
    1SIL  O00R4 2238   5.298   1.392   3.705
    1SIL  O00R5 2239   5.484   1.338   0.148
    1SIL  O00R6 2240   5.437   1.527   0.329
    1SIL  Si0DZ 2241   5.045   1.929   3.588
    1SIL  Si0Da 2242   4.800   1.902   0.212
    1SIL  O00R7 2243   4.946   1.879   0.276
    1SIL  O00R8 2244   4.993   2.067   3.652
    1SIL  O00R9 2245   4.806   2.014   0.095
    1SIL  O00RA 2246   5.052   1.817   3.705
    1SIL  O00RB 2247   5.239   1.764   0.148
    1SIL  O00RC 2248   5.191   1.952   0.329
    1SIL  Si0Dc 2249   4.800   2.354   3.588
    1SIL  Si0Dd 2250   4.554   2.328   0.212
    1SIL  O00RD 2251   4.700   2.304   0.276
    1SIL  O00RE 2252   4.747   2.493   3.652
    1SIL  O00RF 2253   4.560   2.439   0.095
    1SIL  O00RG 2254   4.806   2.243   3.705
    1SIL  O00RH 2255   4.993   2.190   0.148
    1SIL  O00RI 2256   4.946   2.378   0.329
    1SIL  Si0Df 2257   4.554   2.780   3.588
    1SIL  Si0Dg 2258   4.308   2.753   0.212
    1SIL  O00RJ 2259   4.454   2.730   0.276
    1SIL  O00RK 2260   4.501   2.918   3.652
    1SIL  O00RL 2261   4.315   2.865   0.095
    1SIL  O00RM 2262   4.560   2.668   3.705
    1SIL  O00RN 2263   4.747   2.615   0.148
    1SIL  O00RO 2264   4.700   2.804   0.329
    1SIL  Si0Di 2265   4.308   3.206   3.588
    1SIL  Si0Dj 2266   4.062   3.179   0.212
    1SIL  O00RP 2267   4.208   3.156   0.276
    1SIL  O00RQ 2268   4.256   3.344   3.652
    1SIL  O00RR 2269   4.069   3.291   0.095
    1SIL  O00RS 2270   4.315   3.094   3.705
    1SIL  O00RT 2271   4.501   3.041   0.148
    1SIL  O00RU 2272   4.454   3.229   0.329
    1SIL  Si0Dl 2273   4.062   3.631   3.588
    1SIL  Si0Dm 2274   3.817   3.605   0.212
    1SIL  O00RV 2275   3.963   3.581   0.276
    1SIL  O00RW 2276   4.010   3.769   3.652
    1SIL  O00RX 2277   3.823   3.716   0.095
    1SIL  O00RY 2278   4.069   3.520   3.705
    1SIL  O00RZ 2279   4.256   3.467   0.148
    1SIL  O00Ra 2280   4.208   3.655   0.329
    1SIL  Si0Do 2281   3.817   4.057   3.588
    1SIL  Si0Dp 2282   3.571   4.030   0.212
    1SIL  O00Rb 2283   3.717   4.007   0.276
    1SIL  O00Rc 2284   3.764   4.195   3.652
    1SIL  O00Rd 2285   3.577   4.142   0.095
    1SIL  O00Re 2286   3.823   3.945   3.705
    1SIL  O00Rf 2287   4.010   3.892   0.148
    1SIL  O00Rg 2288   3.963   4.081   0.329
    1SIL  Si0Dr 2289   3.571   4.483   3.588
    1SIL  Si0Ds 2290   3.325   4.456   0.212
    1SIL  O00Rh 2291   3.471   4.432   0.276
    1SIL  O00Ri 2292   3.518   4.621   3.652
    1SIL  O00Rj 2293   3.332   4.568   0.095
    1SIL  O00Rk 2294   3.577   4.371   3.705
    1SIL  O00Rl 2295   3.764   4.318   0.148
    1SIL  O00Rm 2296   3.717   4.506   0.329
    1SIL  Si0Du 2297   3.325   4.908   3.588
    1SIL  Si0Dv 2298   3.079   4.882   0.212
    1SIL  O00Rn 2299   3.225   4.858   0.276
    1SIL  O00Ro 2300   3.273   5.046   3.652
    1SIL  O00Rp 2301   3.086   4.993   0.095
    1SIL  O00Rq 2302   3.332   4.797   3.705
    1SIL  O00Rr 2303   3.518   4.744   0.148
    1SIL  O00Rs 2304   3.471   4.932   0.329
    1SIL  Si0Dx 2305   3.079   5.334   3.588
    1SIL  Si0Dy 2306   2.834   5.307   0.212
    1SIL  O00Rt 2307   2.980   5.284   0.276
    1SIL  O00Ru 2308   3.027   5.472   3.652
    1SIL  O00Rv 2309   2.840   5.419   0.095
    1SIL  O00Rw 2310   3.086   5.222   3.705
    1SIL  O00Rx 2311   3.273   5.169   0.148
    1SIL  O00Ry 2312   3.225   5.357   0.329
    1SIL  Si0E0 2313   2.834   5.759   3.588
    1SIL  Si0E1 2314   2.588   5.733   0.212
    1SIL  O00Rz 2315   2.734   5.709   0.276
    1SIL  O00S0 2316   2.781   5.898   3.652
    1SIL  O00S1 2317   2.595   5.844   0.095
    1SIL  O00S2 2318   2.840   5.648   3.705
    1SIL  O00S3 2319   3.027   5.595   0.148
    1SIL  O00S4 2320   2.980   5.783   0.329
    1SIL  Si0E3 2321   2.588   6.185   3.588
    1SIL  Si0E4 2322   2.342   6.159   0.212
    1SIL  O00S5 2323   2.488   6.135   0.276
    1SIL  O00S6 2324   2.535   6.323   3.652
    1SIL  O00S7 2325   2.349   6.270   0.095
    1SIL  O00S8 2326   2.595   6.074   3.705
    1SIL  O00S9 2327   2.781   6.020   0.148
    1SIL  O00SA 2328   2.734   6.209   0.329
    1SIL  Si0E6 2329   2.342   6.611   3.588
    1SIL  Si0E7 2330   2.097   6.584   0.212
    1SIL  O00SB 2331   2.242   6.561   0.276
    1SIL  O00SC 2332   2.290   6.749   3.652
    1SIL  O00SD 2333   2.103   6.696   0.095
    1SIL  O00SE 2334   2.349   6.499   3.705
    1SIL  O00SF 2335   2.535   6.446   0.148
    1SIL  O00SG 2336   2.488   6.634   0.329
    1SIL  Si0E9 2337   2.097   7.036   3.588
    1SIL  Si0EA 2338   1.851   7.010   0.212
    1SIL  O00SH 2339   1.997   6.986   0.276
    1SIL  O00SI 2340   2.044   7.175   3.652
    1SIL  O00SJ 2341   1.857   7.121   0.095
    1SIL  O00SK 2342   2.103   6.925   3.705
    1SIL  O00SL 2343   2.290   6.872   0.148
    1SIL  O00SM 2344   2.242   7.060   0.329
    1SIL  Si0EC 2345   1.851   7.462   3.588
    1SIL  Si0ED 2346   1.605   7.436   0.212
    1SIL  O00SN 2347   1.751   7.412   0.276
    1SIL  O00SO 2348   1.798   7.600   3.652
    1SIL  O00SP 2349   1.612   7.547   0.095
    1SIL  O00SQ 2350   1.857   7.351   3.705
    1SIL  O00SR 2351   2.044   7.297   0.148
    1SIL  O00SS 2352   1.997   7.486   0.329
    1SIL  Si0EF 2353   1.605   7.888   3.588
    1SIL  Si0EG 2354   1.359   7.861   0.212
    1SIL  O00ST 2355   1.505   7.838   0.276
    1SIL  O00SU 2356   1.552   8.026   3.652
    1SIL  O00SV 2357   1.366   7.973   0.095
    1SIL  O00SW 2358   1.612   7.776   3.705
    1SIL  O00SX 2359   1.798   7.723   0.148
    1SIL  O00SY 2360   1.751   7.911   0.329
    1SIL  Si0EI 2361   1.359   8.313   3.588
    1SIL  Si0EJ 2362   1.114   8.287   0.212
    1SIL  O00SZ 2363   1.259   8.263   0.276
    1SIL  O00Sa 2364   1.307   8.452   3.652
    1SIL  O00Sb 2365   1.120   8.398   0.095
    1SIL  O00Sc 2366   1.366   8.202   3.705
    1SIL  O00Sd 2367   1.552   8.149   0.148
    1SIL  O00Se 2368   1.505   8.337   0.329
    1SIL  Si0EL 2369   1.114   8.739   3.588
    1SIL  Si0EM 2370   0.868   8.713   0.212
    1SIL  O00Sf 2371   1.014   8.689   0.276
    1SIL  O00Sg 2372   1.061   8.877   3.652
    1SIL  O00Sh 2373   0.874   8.824   0.095
    1SIL  O00Si 2374   1.120   8.628   3.705
    1SIL  O00Sj 2375   1.307   8.574   0.148
    1SIL  O00Sk 2376   1.259   8.763   0.329
    1SIL  Si0EO 2377   0.868   9.165   3.588
    1SIL  Si0EP 2378   0.622   9.138   0.212
    1SIL  O00Sl 2379   0.768   9.115   0.276
    1SIL  O00Sm 2380   0.815   9.303   3.652
    1SIL  O00Sn 2381   0.629   9.250   0.095
    1SIL  O00So 2382   0.874   9.053   3.705
    1SIL  O00Sp 2383   1.061   9.000   0.148
    1SIL  O00Sq 2384   1.014   9.188   0.329
    1SIL  Si0ER 2385   0.622   9.590   3.588
    1SIL  Si0ES 2386   0.376   9.564   0.212
    1SIL  O00Sr 2387   0.522   9.540   0.276
    1SIL  O00Ss 2388   0.569   9.729   3.652
    1SIL  O00St 2389   0.383   9.675   0.095
    1SIL  O00Su 2390   0.629   9.479   3.705
    1SIL  O00Sv 2391   0.815   9.426   0.148
    1SIL  O00Sw 2392   0.768   9.614   0.329
    1SIL  Si0EU 2393   6.520   0.226   3.588
    1SIL  Si0EV 2394   6.274   0.200   0.212
    1SIL  O00Sx 2395   6.420   0.176   0.276
    1SIL  O00Sy 2396   6.467   0.364   3.652
    1SIL  O00Sz 2397   6.281   0.311   0.095
    1SIL  O00T0 2398   6.526   0.115   3.705
    1SIL  O00T1 2399   6.713   0.061   0.148
    1SIL  O00T2 2400   6.666   0.250   0.329
    1SIL  Si0EX 2401   6.274   0.652   3.588
    1SIL  Si0EY 2402   6.028   0.625   0.212
    1SIL  O00T3 2403   6.174   0.602   0.276
    1SIL  O00T4 2404   6.222   0.790   3.652
    1SIL  O00T5 2405   6.035   0.737   0.095
    1SIL  O00T6 2406   6.281   0.540   3.705
    1SIL  O00T7 2407   6.467   0.487   0.148
    1SIL  O00T8 2408   6.420   0.675   0.329
    1SIL  Si0Ea 2409   6.028   1.077   3.588
    1SIL  Si0Eb 2410   5.783   1.051   0.212
    1SIL  O00T9 2411   5.929   1.027   0.276
    1SIL  O00TA 2412   5.976   1.216   3.652
    1SIL  O00TB 2413   5.789   1.162   0.095
    1SIL  O00TC 2414   6.035   0.966   3.705
    1SIL  O00TD 2415   6.222   0.913   0.148
    1SIL  O00TE 2416   6.174   1.101   0.329
    1SIL  Si0Ed 2417   5.783   1.503   3.588
    1SIL  Si0Ee 2418   5.537   1.477   0.212
    1SIL  O00TF 2419   5.683   1.453   0.276
    1SIL  O00TG 2420   5.730   1.641   3.652
    1SIL  O00TH 2421   5.543   1.588   0.095
    1SIL  O00TI 2422   5.789   1.392   3.705
    1SIL  O00TJ 2423   5.976   1.338   0.148
    1SIL  O00TK 2424   5.929   1.527   0.329
    1SIL  Si0Eg 2425   5.537   1.929   3.588
    1SIL  Si0Eh 2426   5.291   1.902   0.212
    1SIL  O00TL 2427   5.437   1.879   0.276
    1SIL  O00TM 2428   5.484   2.067   3.652
    1SIL  O00TN 2429   5.298   2.014   0.095
    1SIL  O00TO 2430   5.543   1.817   3.705
    1SIL  O00TP 2431   5.730   1.764   0.148
    1SIL  O00TQ 2432   5.683   1.952   0.329
    1SIL  Si0Ej 2433   5.291   2.354   3.588
    1SIL  Si0Ek 2434   5.045   2.328   0.212
    1SIL  O00TR 2435   5.191   2.304   0.276
    1SIL  O00TS 2436   5.239   2.493   3.652
    1SIL  O00TT 2437   5.052   2.439   0.095
    1SIL  O00TU 2438   5.298   2.243   3.705
    1SIL  O00TV 2439   5.484   2.190   0.148
    1SIL  O00TW 2440   5.437   2.378   0.329
    1SIL  Si0Em 2441   5.045   2.780   3.588
    1SIL  Si0En 2442   4.800   2.753   0.212
    1SIL  O00TX 2443   4.946   2.730   0.276
    1SIL  O00TY 2444   4.993   2.918   3.652
    1SIL  O00TZ 2445   4.806   2.865   0.095
    1SIL  O00Ta 2446   5.052   2.668   3.705
    1SIL  O00Tb 2447   5.239   2.615   0.148
    1SIL  O00Tc 2448   5.191   2.804   0.329
    1SIL  Si0Ep 2449   4.800   3.206   3.588
    1SIL  Si0Eq 2450   4.554   3.179   0.212
    1SIL  O00Td 2451   4.700   3.156   0.276
    1SIL  O00Te 2452   4.747   3.344   3.652
    1SIL  O00Tf 2453   4.560   3.291   0.095
    1SIL  O00Tg 2454   4.806   3.094   3.705
    1SIL  O00Th 2455   4.993   3.041   0.148
    1SIL  O00Ti 2456   4.946   3.229   0.329
    1SIL  Si0Es 2457   4.554   3.631   3.588
    1SIL  Si0Et 2458   4.308   3.605   0.212
    1SIL  O00Tj 2459   4.454   3.581   0.276
    1SIL  O00Tk 2460   4.501   3.769   3.652
    1SIL  O00Tl 2461   4.315   3.716   0.095
    1SIL  O00Tm 2462   4.560   3.520   3.705
    1SIL  O00Tn 2463   4.747   3.467   0.148
    1SIL  O00To 2464   4.700   3.655   0.329
    1SIL  Si0Ev 2465   4.308   4.057   3.588
    1SIL  Si0Ew 2466   4.062   4.030   0.212
    1SIL  O00Tp 2467   4.208   4.007   0.276
    1SIL  O00Tq 2468   4.256   4.195   3.652
    1SIL  O00Tr 2469   4.069   4.142   0.095
    1SIL  O00Ts 2470   4.315   3.945   3.705
    1SIL  O00Tt 2471   4.501   3.892   0.148
    1SIL  O00Tu 2472   4.454   4.081   0.329
    1SIL  Si0Ey 2473   4.062   4.483   3.588
    1SIL  Si0Ez 2474   3.817   4.456   0.212
    1SIL  O00Tv 2475   3.963   4.432   0.276
    1SIL  O00Tw 2476   4.010   4.621   3.652
    1SIL  O00Tx 2477   3.823   4.568   0.095
    1SIL  O00Ty 2478   4.069   4.371   3.705
    1SIL  O00Tz 2479   4.256   4.318   0.148
    1SIL  O00U0 2480   4.208   4.506   0.329
    1SIL  Si0F1 2481   3.817   4.908   3.588
    1SIL  Si0F2 2482   3.571   4.882   0.212
    1SIL  O00U1 2483   3.717   4.858   0.276
    1SIL  O00U2 2484   3.764   5.046   3.652
    1SIL  O00U3 2485   3.577   4.993   0.095
    1SIL  O00U4 2486   3.823   4.797   3.705
    1SIL  O00U5 2487   4.010   4.744   0.148
    1SIL  O00U6 2488   3.963   4.932   0.329
    1SIL  Si0F4 2489   3.571   5.334   3.588
    1SIL  Si0F5 2490   3.325   5.307   0.212
    1SIL  O00U7 2491   3.471   5.284   0.276
    1SIL  O00U8 2492   3.518   5.472   3.652
    1SIL  O00U9 2493   3.332   5.419   0.095
    1SIL  O00UA 2494   3.577   5.222   3.705
    1SIL  O00UB 2495   3.764   5.169   0.148
    1SIL  O00UC 2496   3.717   5.357   0.329
    1SIL  Si0F7 2497   3.325   5.759   3.588
    1SIL  Si0F8 2498   3.079   5.733   0.212
    1SIL  O00UD 2499   3.225   5.709   0.276
    1SIL  O00UE 2500   3.273   5.898   3.652
    1SIL  O00UF 2501   3.086   5.844   0.095
    1SIL  O00UG 2502   3.332   5.648   3.705
    1SIL  O00UH 2503   3.518   5.595   0.148
    1SIL  O00UI 2504   3.471   5.783   0.329
    1SIL  Si0FA 2505   3.079   6.185   3.588
    1SIL  Si0FB 2506   2.834   6.159   0.212
    1SIL  O00UJ 2507   2.980   6.135   0.276
    1SIL  O00UK 2508   3.027   6.323   3.652
    1SIL  O00UL 2509   2.840   6.270   0.095
    1SIL  O00UM 2510   3.086   6.074   3.705
    1SIL  O00UN 2511   3.273   6.020   0.148
    1SIL  O00UO 2512   3.225   6.209   0.329
    1SIL  Si0FD 2513   2.834   6.611   3.588
    1SIL  Si0FE 2514   2.588   6.584   0.212
    1SIL  O00UP 2515   2.734   6.561   0.276
    1SIL  O00UQ 2516   2.781   6.749   3.652
    1SIL  O00UR 2517   2.595   6.696   0.095
    1SIL  O00US 2518   2.840   6.499   3.705
    1SIL  O00UT 2519   3.027   6.446   0.148
    1SIL  O00UU 2520   2.980   6.634   0.329
    1SIL  Si0FG 2521   2.588   7.036   3.588
    1SIL  Si0FH 2522   2.342   7.010   0.212
    1SIL  O00UV 2523   2.488   6.986   0.276
    1SIL  O00UW 2524   2.535   7.175   3.652
    1SIL  O00UX 2525   2.349   7.121   0.095
    1SIL  O00UY 2526   2.595   6.925   3.705
    1SIL  O00UZ 2527   2.781   6.872   0.148
    1SIL  O00Ua 2528   2.734   7.060   0.329
    1SIL  Si0FJ 2529   2.342   7.462   3.588
    1SIL  Si0FK 2530   2.097   7.436   0.212
    1SIL  O00Ub 2531   2.242   7.412   0.276
    1SIL  O00Uc 2532   2.290   7.600   3.652
    1SIL  O00Ud 2533   2.103   7.547   0.095
    1SIL  O00Ue 2534   2.349   7.351   3.705
    1SIL  O00Uf 2535   2.535   7.297   0.148
    1SIL  O00Ug 2536   2.488   7.486   0.329
    1SIL  Si0FM 2537   2.097   7.888   3.588
    1SIL  Si0FN 2538   1.851   7.861   0.212
    1SIL  O00Uh 2539   1.997   7.838   0.276
    1SIL  O00Ui 2540   2.044   8.026   3.652
    1SIL  O00Uj 2541   1.857   7.973   0.095
    1SIL  O00Uk 2542   2.103   7.776   3.705
    1SIL  O00Ul 2543   2.290   7.723   0.148
    1SIL  O00Um 2544   2.242   7.911   0.329
    1SIL  Si0FP 2545   1.851   8.313   3.588
    1SIL  Si0FQ 2546   1.605   8.287   0.212
    1SIL  O00Un 2547   1.751   8.263   0.276
    1SIL  O00Uo 2548   1.798   8.452   3.652
    1SIL  O00Up 2549   1.612   8.398   0.095
    1SIL  O00Uq 2550   1.857   8.202   3.705
    1SIL  O00Ur 2551   2.044   8.149   0.148
    1SIL  O00Us 2552   1.997   8.337   0.329
    1SIL  Si0FS 2553   1.605   8.739   3.588
    1SIL  Si0FT 2554   1.359   8.713   0.212
    1SIL  O00Ut 2555   1.505   8.689   0.276
    1SIL  O00Uu 2556   1.552   8.877   3.652
    1SIL  O00Uv 2557   1.366   8.824   0.095
    1SIL  O00Uw 2558   1.612   8.628   3.705
    1SIL  O00Ux 2559   1.798   8.574   0.148
    1SIL  O00Uy 2560   1.751   8.763   0.329
    1SIL  Si0FV 2561   1.359   9.165   3.588
    1SIL  Si0FW 2562   1.114   9.138   0.212
    1SIL  O00Uz 2563   1.259   9.115   0.276
    1SIL  O00V0 2564   1.307   9.303   3.652
    1SIL  O00V1 2565   1.120   9.250   0.095
    1SIL  O00V2 2566   1.366   9.053   3.705
    1SIL  O00V3 2567   1.552   9.000   0.148
    1SIL  O00V4 2568   1.505   9.188   0.329
    1SIL  Si0FY 2569   1.114   9.590   3.588
    1SIL  Si0FZ 2570   0.868   9.564   0.212
    1SIL  O00V5 2571   1.014   9.540   0.276
    1SIL  O00V6 2572   1.061   9.729   3.652
    1SIL  O00V7 2573   0.874   9.675   0.095
    1SIL  O00V8 2574   1.120   9.479   3.705
    1SIL  O00V9 2575   1.307   9.426   0.148
    1SIL  O00VA 2576   1.259   9.614   0.329
    1SIL  Si0Fb 2577   7.011   0.226   3.588
    1SIL  Si0Fc 2578   6.766   0.200   0.212
    1SIL  O00VB 2579   6.912   0.176   0.276
    1SIL  O00VC 2580   6.959   0.364   3.652
    1SIL  O00VD 2581   6.772   0.311   0.095
    1SIL  O00VE 2582   7.018   0.115   3.705
    1SIL  O00VF 2583   7.205   0.061   0.148
    1SIL  O00VG 2584   7.157   0.250   0.329
    1SIL  Si0Fe 2585   6.766   0.652   3.588
    1SIL  Si0Ff 2586   6.520   0.625   0.212
    1SIL  O00VH 2587   6.666   0.602   0.276
    1SIL  O00VI 2588   6.713   0.790   3.652
    1SIL  O00VJ 2589   6.526   0.737   0.095
    1SIL  O00VK 2590   6.772   0.540   3.705
    1SIL  O00VL 2591   6.959   0.487   0.148
    1SIL  O00VM 2592   6.912   0.675   0.329
    1SIL  Si0Fh 2593   6.520   1.077   3.588
    1SIL  Si0Fi 2594   6.274   1.051   0.212
    1SIL  O00VN 2595   6.420   1.027   0.276
    1SIL  O00VO 2596   6.467   1.216   3.652
    1SIL  O00VP 2597   6.281   1.162   0.095
    1SIL  O00VQ 2598   6.526   0.966   3.705
    1SIL  O00VR 2599   6.713   0.913   0.148
    1SIL  O00VS 2600   6.666   1.101   0.329
    1SIL  Si0Fk 2601   6.274   1.503   3.588
    1SIL  Si0Fl 2602   6.028   1.477   0.212
    1SIL  O00VT 2603   6.174   1.453   0.276
    1SIL  O00VU 2604   6.222   1.641   3.652
    1SIL  O00VV 2605   6.035   1.588   0.095
    1SIL  O00VW 2606   6.281   1.392   3.705
    1SIL  O00VX 2607   6.467   1.338   0.148
    1SIL  O00VY 2608   6.420   1.527   0.329
    1SIL  Si0Fn 2609   6.028   1.929   3.588
    1SIL  Si0Fo 2610   5.783   1.902   0.212
    1SIL  O00VZ 2611   5.929   1.879   0.276
    1SIL  O00Va 2612   5.976   2.067   3.652
    1SIL  O00Vb 2613   5.789   2.014   0.095
    1SIL  O00Vc 2614   6.035   1.817   3.705
    1SIL  O00Vd 2615   6.222   1.764   0.148
    1SIL  O00Ve 2616   6.174   1.952   0.329
    1SIL  Si0Fq 2617   5.783   2.354   3.588
    1SIL  Si0Fr 2618   5.537   2.328   0.212
    1SIL  O00Vf 2619   5.683   2.304   0.276
    1SIL  O00Vg 2620   5.730   2.493   3.652
    1SIL  O00Vh 2621   5.543   2.439   0.095
    1SIL  O00Vi 2622   5.789   2.243   3.705
    1SIL  O00Vj 2623   5.976   2.190   0.148
    1SIL  O00Vk 2624   5.929   2.378   0.329
    1SIL  Si0Ft 2625   5.537   2.780   3.588
    1SIL  Si0Fu 2626   5.291   2.753   0.212
    1SIL  O00Vl 2627   5.437   2.730   0.276
    1SIL  O00Vm 2628   5.484   2.918   3.652
    1SIL  O00Vn 2629   5.298   2.865   0.095
    1SIL  O00Vo 2630   5.543   2.668   3.705
    1SIL  O00Vp 2631   5.730   2.615   0.148
    1SIL  O00Vq 2632   5.683   2.804   0.329
    1SIL  Si0Fw 2633   5.291   3.206   3.588
    1SIL  Si0Fx 2634   5.045   3.179   0.212
    1SIL  O00Vr 2635   5.191   3.156   0.276
    1SIL  O00Vs 2636   5.239   3.344   3.652
    1SIL  O00Vt 2637   5.052   3.291   0.095
    1SIL  O00Vu 2638   5.298   3.094   3.705
    1SIL  O00Vv 2639   5.484   3.041   0.148
    1SIL  O00Vw 2640   5.437   3.229   0.329
    1SIL  Si0Fz 2641   5.045   3.631   3.588
    1SIL  Si0G0 2642   4.800   3.605   0.212
    1SIL  O00Vx 2643   4.946   3.581   0.276
    1SIL  O00Vy 2644   4.993   3.769   3.652
    1SIL  O00Vz 2645   4.806   3.716   0.095
    1SIL  O00W0 2646   5.052   3.520   3.705
    1SIL  O00W1 2647   5.239   3.467   0.148
    1SIL  O00W2 2648   5.191   3.655   0.329
    1SIL  Si0G2 2649   4.800   4.057   3.588
    1SIL  Si0G3 2650   4.554   4.030   0.212
    1SIL  O00W3 2651   4.700   4.007   0.276
    1SIL  O00W4 2652   4.747   4.195   3.652
    1SIL  O00W5 2653   4.560   4.142   0.095
    1SIL  O00W6 2654   4.806   3.945   3.705
    1SIL  O00W7 2655   4.993   3.892   0.148
    1SIL  O00W8 2656   4.946   4.081   0.329
    1SIL  Si0G5 2657   4.554   4.483   3.588
    1SIL  Si0G6 2658   4.308   4.456   0.212
    1SIL  O00W9 2659   4.454   4.432   0.276
    1SIL  O00WA 2660   4.501   4.621   3.652
    1SIL  O00WB 2661   4.315   4.568   0.095
    1SIL  O00WC 2662   4.560   4.371   3.705
    1SIL  O00WD 2663   4.747   4.318   0.148
    1SIL  O00WE 2664   4.700   4.506   0.329
    1SIL  Si0G8 2665   4.308   4.908   3.588
    1SIL  Si0G9 2666   4.062   4.882   0.212
    1SIL  O00WF 2667   4.208   4.858   0.276
    1SIL  O00WG 2668   4.256   5.046   3.652
    1SIL  O00WH 2669   4.069   4.993   0.095
    1SIL  O00WI 2670   4.315   4.797   3.705
    1SIL  O00WJ 2671   4.501   4.744   0.148
    1SIL  O00WK 2672   4.454   4.932   0.329
    1SIL  Si0GB 2673   4.062   5.334   3.588
    1SIL  Si0GC 2674   3.817   5.307   0.212
    1SIL  O00WL 2675   3.963   5.284   0.276
    1SIL  O00WM 2676   4.010   5.472   3.652
    1SIL  O00WN 2677   3.823   5.419   0.095
    1SIL  O00WO 2678   4.069   5.222   3.705
    1SIL  O00WP 2679   4.256   5.169   0.148
    1SIL  O00WQ 2680   4.208   5.357   0.329
    1SIL  Si0GE 2681   3.817   5.759   3.588
    1SIL  Si0GF 2682   3.571   5.733   0.212
    1SIL  O00WR 2683   3.717   5.709   0.276
    1SIL  O00WS 2684   3.764   5.898   3.652
    1SIL  O00WT 2685   3.577   5.844   0.095
    1SIL  O00WU 2686   3.823   5.648   3.705
    1SIL  O00WV 2687   4.010   5.595   0.148
    1SIL  O00WW 2688   3.963   5.783   0.329
    1SIL  Si0GH 2689   3.571   6.185   3.588
    1SIL  Si0GI 2690   3.325   6.159   0.212
    1SIL  O00WX 2691   3.471   6.135   0.276
    1SIL  O00WY 2692   3.518   6.323   3.652
    1SIL  O00WZ 2693   3.332   6.270   0.095
    1SIL  O00Wa 2694   3.577   6.074   3.705
    1SIL  O00Wb 2695   3.764   6.020   0.148
    1SIL  O00Wc 2696   3.717   6.209   0.329
    1SIL  Si0GK 2697   3.325   6.611   3.588
    1SIL  Si0GL 2698   3.079   6.584   0.212
    1SIL  O00Wd 2699   3.225   6.561   0.276
    1SIL  O00We 2700   3.273   6.749   3.652
    1SIL  O00Wf 2701   3.086   6.696   0.095
    1SIL  O00Wg 2702   3.332   6.499   3.705
    1SIL  O00Wh 2703   3.518   6.446   0.148
    1SIL  O00Wi 2704   3.471   6.634   0.329
    1SIL  Si0GN 2705   3.079   7.036   3.588
    1SIL  Si0GO 2706   2.834   7.010   0.212
    1SIL  O00Wj 2707   2.980   6.986   0.276
    1SIL  O00Wk 2708   3.027   7.175   3.652
    1SIL  O00Wl 2709   2.840   7.121   0.095
    1SIL  O00Wm 2710   3.086   6.925   3.705
    1SIL  O00Wn 2711   3.273   6.872   0.148
    1SIL  O00Wo 2712   3.225   7.060   0.329
    1SIL  Si0GQ 2713   2.834   7.462   3.588
    1SIL  Si0GR 2714   2.588   7.436   0.212
    1SIL  O00Wp 2715   2.734   7.412   0.276
    1SIL  O00Wq 2716   2.781   7.600   3.652
    1SIL  O00Wr 2717   2.595   7.547   0.095
    1SIL  O00Ws 2718   2.840   7.351   3.705
    1SIL  O00Wt 2719   3.027   7.297   0.148
    1SIL  O00Wu 2720   2.980   7.486   0.329
    1SIL  Si0GT 2721   2.588   7.888   3.588
    1SIL  Si0GU 2722   2.342   7.861   0.212
    1SIL  O00Wv 2723   2.488   7.838   0.276
    1SIL  O00Ww 2724   2.535   8.026   3.652
    1SIL  O00Wx 2725   2.349   7.973   0.095
    1SIL  O00Wy 2726   2.595   7.776   3.705
    1SIL  O00Wz 2727   2.781   7.723   0.148
    1SIL  O00X0 2728   2.734   7.911   0.329
    1SIL  Si0GW 2729   2.342   8.313   3.588
    1SIL  Si0GX 2730   2.097   8.287   0.212
    1SIL  O00X1 2731   2.242   8.263   0.276
    1SIL  O00X2 2732   2.290   8.452   3.652
    1SIL  O00X3 2733   2.103   8.398   0.095
    1SIL  O00X4 2734   2.349   8.202   3.705
    1SIL  O00X5 2735   2.535   8.149   0.148
    1SIL  O00X6 2736   2.488   8.337   0.329
    1SIL  Si0GZ 2737   2.097   8.739   3.588
    1SIL  Si0Ga 2738   1.851   8.713   0.212
    1SIL  O00X7 2739   1.997   8.689   0.276
    1SIL  O00X8 2740   2.044   8.877   3.652
    1SIL  O00X9 2741   1.857   8.824   0.095
    1SIL  O00XA 2742   2.103   8.628   3.705
    1SIL  O00XB 2743   2.290   8.574   0.148
    1SIL  O00XC 2744   2.242   8.763   0.329
    1SIL  Si0Gc 2745   1.851   9.165   3.588
    1SIL  Si0Gd 2746   1.605   9.138   0.212
    1SIL  O00XD 2747   1.751   9.115   0.276
    1SIL  O00XE 2748   1.798   9.303   3.652
    1SIL  O00XF 2749   1.612   9.250   0.095
    1SIL  O00XG 2750   1.857   9.053   3.705
    1SIL  O00XH 2751   2.044   9.000   0.148
    1SIL  O00XI 2752   1.997   9.188   0.329
    1SIL  Si0Gf 2753   1.605   9.590   3.588
    1SIL  Si0Gg 2754   1.359   9.564   0.212
    1SIL  O00XJ 2755   1.505   9.540   0.276
    1SIL  O00XK 2756   1.552   9.729   3.652
    1SIL  O00XL 2757   1.366   9.675   0.095
    1SIL  O00XM 2758   1.612   9.479   3.705
    1SIL  O00XN 2759   1.798   9.426   0.148
    1SIL  O00XO 2760   1.751   9.614   0.329
    1SIL  Si0Gi 2761   7.503   0.226   3.588
    1SIL  Si0Gj 2762   7.257   0.200   0.212
    1SIL  O00XP 2763   7.403   0.176   0.276
    1SIL  O00XQ 2764   7.450   0.364   3.652
    1SIL  O00XR 2765   7.264   0.311   0.095
    1SIL  O00XS 2766   7.509   0.115   3.705
    1SIL  O00XT 2767   7.696   0.061   0.148
    1SIL  O00XU 2768   7.649   0.250   0.329
    1SIL  Si0Gl 2769   7.257   0.652   3.588
    1SIL  Si0Gm 2770   7.011   0.625   0.212
    1SIL  O00XV 2771   7.157   0.602   0.276
    1SIL  O00XW 2772   7.205   0.790   3.652
    1SIL  O00XX 2773   7.018   0.737   0.095
    1SIL  O00XY 2774   7.264   0.540   3.705
    1SIL  O00XZ 2775   7.450   0.487   0.148
    1SIL  O00Xa 2776   7.403   0.675   0.329
    1SIL  Si0Go 2777   7.011   1.077   3.588
    1SIL  Si0Gp 2778   6.766   1.051   0.212
    1SIL  O00Xb 2779   6.912   1.027   0.276
    1SIL  O00Xc 2780   6.959   1.216   3.652
    1SIL  O00Xd 2781   6.772   1.162   0.095
    1SIL  O00Xe 2782   7.018   0.966   3.705
    1SIL  O00Xf 2783   7.205   0.913   0.148
    1SIL  O00Xg 2784   7.157   1.101   0.329
    1SIL  Si0Gr 2785   6.766   1.503   3.588
    1SIL  Si0Gs 2786   6.520   1.477   0.212
    1SIL  O00Xh 2787   6.666   1.453   0.276
    1SIL  O00Xi 2788   6.713   1.641   3.652
    1SIL  O00Xj 2789   6.526   1.588   0.095
    1SIL  O00Xk 2790   6.772   1.392   3.705
    1SIL  O00Xl 2791   6.959   1.338   0.148
    1SIL  O00Xm 2792   6.912   1.527   0.329
    1SIL  Si0Gu 2793   6.520   1.929   3.588
    1SIL  Si0Gv 2794   6.274   1.902   0.212
    1SIL  O00Xn 2795   6.420   1.879   0.276
    1SIL  O00Xo 2796   6.467   2.067   3.652
    1SIL  O00Xp 2797   6.281   2.014   0.095
    1SIL  O00Xq 2798   6.526   1.817   3.705
    1SIL  O00Xr 2799   6.713   1.764   0.148
    1SIL  O00Xs 2800   6.666   1.952   0.329
    1SIL  Si0Gx 2801   6.274   2.354   3.588
    1SIL  Si0Gy 2802   6.028   2.328   0.212
    1SIL  O00Xt 2803   6.174   2.304   0.276
    1SIL  O00Xu 2804   6.222   2.493   3.652
    1SIL  O00Xv 2805   6.035   2.439   0.095
    1SIL  O00Xw 2806   6.281   2.243   3.705
    1SIL  O00Xx 2807   6.467   2.190   0.148
    1SIL  O00Xy 2808   6.420   2.378   0.329
    1SIL  Si0H0 2809   6.028   2.780   3.588
    1SIL  Si0H1 2810   5.783   2.753   0.212
    1SIL  O00Xz 2811   5.929   2.730   0.276
    1SIL  O00Y0 2812   5.976   2.918   3.652
    1SIL  O00Y1 2813   5.789   2.865   0.095
    1SIL  O00Y2 2814   6.035   2.668   3.705
    1SIL  O00Y3 2815   6.222   2.615   0.148
    1SIL  O00Y4 2816   6.174   2.804   0.329
    1SIL  Si0H3 2817   5.783   3.206   3.588
    1SIL  Si0H4 2818   5.537   3.179   0.212
    1SIL  O00Y5 2819   5.683   3.156   0.276
    1SIL  O00Y6 2820   5.730   3.344   3.652
    1SIL  O00Y7 2821   5.543   3.291   0.095
    1SIL  O00Y8 2822   5.789   3.094   3.705
    1SIL  O00Y9 2823   5.976   3.041   0.148
    1SIL  O00YA 2824   5.929   3.229   0.329
    1SIL  Si0H6 2825   5.537   3.631   3.588
    1SIL  Si0H7 2826   5.291   3.605   0.212
    1SIL  O00YB 2827   5.437   3.581   0.276
    1SIL  O00YC 2828   5.484   3.769   3.652
    1SIL  O00YD 2829   5.298   3.716   0.095
    1SIL  O00YE 2830   5.543   3.520   3.705
    1SIL  O00YF 2831   5.730   3.467   0.148
    1SIL  O00YG 2832   5.683   3.655   0.329
    1SIL  Si0H9 2833   5.291   4.057   3.588
    1SIL  Si0HA 2834   5.045   4.030   0.212
    1SIL  O00YH 2835   5.191   4.007   0.276
    1SIL  O00YI 2836   5.239   4.195   3.652
    1SIL  O00YJ 2837   5.052   4.142   0.095
    1SIL  O00YK 2838   5.298   3.945   3.705
    1SIL  O00YL 2839   5.484   3.892   0.148
    1SIL  O00YM 2840   5.437   4.081   0.329
    1SIL  Si0HC 2841   5.045   4.483   3.588
    1SIL  Si0HD 2842   4.800   4.456   0.212
    1SIL  O00YN 2843   4.946   4.432   0.276
    1SIL  O00YO 2844   4.993   4.621   3.652
    1SIL  O00YP 2845   4.806   4.568   0.095
    1SIL  O00YQ 2846   5.052   4.371   3.705
    1SIL  O00YR 2847   5.239   4.318   0.148
    1SIL  O00YS 2848   5.191   4.506   0.329
    1SIL  Si0HF 2849   4.800   4.908   3.588
    1SIL  Si0HG 2850   4.554   4.882   0.212
    1SIL  O00YT 2851   4.700   4.858   0.276
    1SIL  O00YU 2852   4.747   5.046   3.652
    1SIL  O00YV 2853   4.560   4.993   0.095
    1SIL  O00YW 2854   4.806   4.797   3.705
    1SIL  O00YX 2855   4.993   4.744   0.148
    1SIL  O00YY 2856   4.946   4.932   0.329
    1SIL  Si0HI 2857   4.554   5.334   3.588
    1SIL  Si0HJ 2858   4.308   5.307   0.212
    1SIL  O00YZ 2859   4.454   5.284   0.276
    1SIL  O00Ya 2860   4.501   5.472   3.652
    1SIL  O00Yb 2861   4.315   5.419   0.095
    1SIL  O00Yc 2862   4.560   5.222   3.705
    1SIL  O00Yd 2863   4.747   5.169   0.148
    1SIL  O00Ye 2864   4.700   5.357   0.329
    1SIL  Si0HL 2865   4.308   5.759   3.588
    1SIL  Si0HM 2866   4.062   5.733   0.212
    1SIL  O00Yf 2867   4.208   5.709   0.276
    1SIL  O00Yg 2868   4.256   5.898   3.652
    1SIL  O00Yh 2869   4.069   5.844   0.095
    1SIL  O00Yi 2870   4.315   5.648   3.705
    1SIL  O00Yj 2871   4.501   5.595   0.148
    1SIL  O00Yk 2872   4.454   5.783   0.329
    1SIL  Si0HO 2873   4.062   6.185   3.588
    1SIL  Si0HP 2874   3.817   6.159   0.212
    1SIL  O00Yl 2875   3.963   6.135   0.276
    1SIL  O00Ym 2876   4.010   6.323   3.652
    1SIL  O00Yn 2877   3.823   6.270   0.095
    1SIL  O00Yo 2878   4.069   6.074   3.705
    1SIL  O00Yp 2879   4.256   6.020   0.148
    1SIL  O00Yq 2880   4.208   6.209   0.329
    1SIL  Si0HR 2881   3.817   6.611   3.588
    1SIL  Si0HS 2882   3.571   6.584   0.212
    1SIL  O00Yr 2883   3.717   6.561   0.276
    1SIL  O00Ys 2884   3.764   6.749   3.652
    1SIL  O00Yt 2885   3.577   6.696   0.095
    1SIL  O00Yu 2886   3.823   6.499   3.705
    1SIL  O00Yv 2887   4.010   6.446   0.148
    1SIL  O00Yw 2888   3.963   6.634   0.329
    1SIL  Si0HU 2889   3.571   7.036   3.588
    1SIL  Si0HV 2890   3.325   7.010   0.212
    1SIL  O00Yx 2891   3.471   6.986   0.276
    1SIL  O00Yy 2892   3.518   7.175   3.652
    1SIL  O00Yz 2893   3.332   7.121   0.095
    1SIL  O00Z0 2894   3.577   6.925   3.705
    1SIL  O00Z1 2895   3.764   6.872   0.148
    1SIL  O00Z2 2896   3.717   7.060   0.329
    1SIL  Si0HX 2897   3.325   7.462   3.588
    1SIL  Si0HY 2898   3.079   7.436   0.212
    1SIL  O00Z3 2899   3.225   7.412   0.276
    1SIL  O00Z4 2900   3.273   7.600   3.652
    1SIL  O00Z5 2901   3.086   7.547   0.095
    1SIL  O00Z6 2902   3.332   7.351   3.705
    1SIL  O00Z7 2903   3.518   7.297   0.148
    1SIL  O00Z8 2904   3.471   7.486   0.329
    1SIL  Si0Ha 2905   3.079   7.888   3.588
    1SIL  Si0Hb 2906   2.834   7.861   0.212
    1SIL  O00Z9 2907   2.980   7.838   0.276
    1SIL  O00ZA 2908   3.027   8.026   3.652
    1SIL  O00ZB 2909   2.840   7.973   0.095
    1SIL  O00ZC 2910   3.086   7.776   3.705
    1SIL  O00ZD 2911   3.273   7.723   0.148
    1SIL  O00ZE 2912   3.225   7.911   0.329
    1SIL  Si0Hd 2913   2.834   8.313   3.588
    1SIL  Si0He 2914   2.588   8.287   0.212
    1SIL  O00ZF 2915   2.734   8.263   0.276
    1SIL  O00ZG 2916   2.781   8.452   3.652
    1SIL  O00ZH 2917   2.595   8.398   0.095
    1SIL  O00ZI 2918   2.840   8.202   3.705
    1SIL  O00ZJ 2919   3.027   8.149   0.148
    1SIL  O00ZK 2920   2.980   8.337   0.329
    1SIL  Si0Hg 2921   2.588   8.739   3.588
    1SIL  Si0Hh 2922   2.342   8.713   0.212
    1SIL  O00ZL 2923   2.488   8.689   0.276
    1SIL  O00ZM 2924   2.535   8.877   3.652
    1SIL  O00ZN 2925   2.349   8.824   0.095
    1SIL  O00ZO 2926   2.595   8.628   3.705
    1SIL  O00ZP 2927   2.781   8.574   0.148
    1SIL  O00ZQ 2928   2.734   8.763   0.329
    1SIL  Si0Hj 2929   2.342   9.165   3.588
    1SIL  Si0Hk 2930   2.097   9.138   0.212
    1SIL  O00ZR 2931   2.242   9.115   0.276
    1SIL  O00ZS 2932   2.290   9.303   3.652
    1SIL  O00ZT 2933   2.103   9.250   0.095
    1SIL  O00ZU 2934   2.349   9.053   3.705
    1SIL  O00ZV 2935   2.535   9.000   0.148
    1SIL  O00ZW 2936   2.488   9.188   0.329
    1SIL  Si0Hm 2937   2.097   9.590   3.588
    1SIL  Si0Hn 2938   1.851   9.564   0.212
    1SIL  O00ZX 2939   1.997   9.540   0.276
    1SIL  O00ZY 2940   2.044   9.729   3.652
    1SIL  O00ZZ 2941   1.857   9.675   0.095
    1SIL  O00Za 2942   2.103   9.479   3.705
    1SIL  O00Zb 2943   2.290   9.426   0.148
    1SIL  O00Zc 2944   2.242   9.614   0.329
    1SIL  Si0Hp 2945   7.994   0.226   3.588
    1SIL  Si0Hq 2946   7.749   0.200   0.212
    1SIL  O00Zd 2947   7.895   0.176   0.276
    1SIL  O00Ze 2948   7.942   0.364   3.652
    1SIL  O00Zf 2949   7.755   0.311   0.095
    1SIL  O00Zg 2950   8.001   0.115   3.705
    1SIL  O00Zh 2951   8.188   0.061   0.148
    1SIL  O00Zi 2952   8.140   0.250   0.329
    1SIL  Si0Hs 2953   7.749   0.652   3.588
    1SIL  Si0Ht 2954   7.503   0.625   0.212
    1SIL  O00Zj 2955   7.649   0.602   0.276
    1SIL  O00Zk 2956   7.696   0.790   3.652
    1SIL  O00Zl 2957   7.509   0.737   0.095
    1SIL  O00Zm 2958   7.755   0.540   3.705
    1SIL  O00Zn 2959   7.942   0.487   0.148
    1SIL  O00Zo 2960   7.895   0.675   0.329
    1SIL  Si0Hv 2961   7.503   1.077   3.588
    1SIL  Si0Hw 2962   7.257   1.051   0.212
    1SIL  O00Zp 2963   7.403   1.027   0.276
    1SIL  O00Zq 2964   7.450   1.216   3.652
    1SIL  O00Zr 2965   7.264   1.162   0.095
    1SIL  O00Zs 2966   7.509   0.966   3.705
    1SIL  O00Zt 2967   7.696   0.913   0.148
    1SIL  O00Zu 2968   7.649   1.101   0.329
    1SIL  Si0Hy 2969   7.257   1.503   3.588
    1SIL  Si0Hz 2970   7.011   1.477   0.212
    1SIL  O00Zv 2971   7.157   1.453   0.276
    1SIL  O00Zw 2972   7.205   1.641   3.652
    1SIL  O00Zx 2973   7.018   1.588   0.095
    1SIL  O00Zy 2974   7.264   1.392   3.705
    1SIL  O00Zz 2975   7.450   1.338   0.148
    1SIL  O00a0 2976   7.403   1.527   0.329
    1SIL  Si0I1 2977   7.011   1.929   3.588
    1SIL  Si0I2 2978   6.766   1.902   0.212
    1SIL  O00a1 2979   6.912   1.879   0.276
    1SIL  O00a2 2980   6.959   2.067   3.652
    1SIL  O00a3 2981   6.772   2.014   0.095
    1SIL  O00a4 2982   7.018   1.817   3.705
    1SIL  O00a5 2983   7.205   1.764   0.148
    1SIL  O00a6 2984   7.157   1.952   0.329
    1SIL  Si0I4 2985   6.766   2.354   3.588
    1SIL  Si0I5 2986   6.520   2.328   0.212
    1SIL  O00a7 2987   6.666   2.304   0.276
    1SIL  O00a8 2988   6.713   2.493   3.652
    1SIL  O00a9 2989   6.526   2.439   0.095
    1SIL  O00aA 2990   6.772   2.243   3.705
    1SIL  O00aB 2991   6.959   2.190   0.148
    1SIL  O00aC 2992   6.912   2.378   0.329
    1SIL  Si0I7 2993   6.520   2.780   3.588
    1SIL  Si0I8 2994   6.274   2.753   0.212
    1SIL  O00aD 2995   6.420   2.730   0.276
    1SIL  O00aE 2996   6.467   2.918   3.652
    1SIL  O00aF 2997   6.281   2.865   0.095
    1SIL  O00aG 2998   6.526   2.668   3.705
    1SIL  O00aH 2999   6.713   2.615   0.148
    1SIL  O00aI 3000   6.666   2.804   0.329
    1SIL  Si0IA 3001   6.274   3.206   3.588
    1SIL  Si0IB 3002   6.028   3.179   0.212
    1SIL  O00aJ 3003   6.174   3.156   0.276
    1SIL  O00aK 3004   6.222   3.344   3.652
    1SIL  O00aL 3005   6.035   3.291   0.095
    1SIL  O00aM 3006   6.281   3.094   3.705
    1SIL  O00aN 3007   6.467   3.041   0.148
    1SIL  O00aO 3008   6.420   3.229   0.329
    1SIL  Si0ID 3009   6.028   3.631   3.588
    1SIL  Si0IE 3010   5.783   3.605   0.212
    1SIL  O00aP 3011   5.929   3.581   0.276
    1SIL  O00aQ 3012   5.976   3.769   3.652
    1SIL  O00aR 3013   5.789   3.716   0.095
    1SIL  O00aS 3014   6.035   3.520   3.705
    1SIL  O00aT 3015   6.222   3.467   0.148
    1SIL  O00aU 3016   6.174   3.655   0.329
    1SIL  Si0IG 3017   5.783   4.057   3.588
    1SIL  Si0IH 3018   5.537   4.030   0.212
    1SIL  O00aV 3019   5.683   4.007   0.276
    1SIL  O00aW 3020   5.730   4.195   3.652
    1SIL  O00aX 3021   5.543   4.142   0.095
    1SIL  O00aY 3022   5.789   3.945   3.705
    1SIL  O00aZ 3023   5.976   3.892   0.148
    1SIL  O00aa 3024   5.929   4.081   0.329
    1SIL  Si0IJ 3025   5.537   4.483   3.588
    1SIL  Si0IK 3026   5.291   4.456   0.212
    1SIL  O00ab 3027   5.437   4.432   0.276
    1SIL  O00ac 3028   5.484   4.621   3.652
    1SIL  O00ad 3029   5.298   4.568   0.095
    1SIL  O00ae 3030   5.543   4.371   3.705
    1SIL  O00af 3031   5.730   4.318   0.148
    1SIL  O00ag 3032   5.683   4.506   0.329
    1SIL  Si0IM 3033   5.291   4.908   3.588
    1SIL  Si0IN 3034   5.045   4.882   0.212
    1SIL  O00ah 3035   5.191   4.858   0.276
    1SIL  O00ai 3036   5.239   5.046   3.652
    1SIL  O00aj 3037   5.052   4.993   0.095
    1SIL  O00ak 3038   5.298   4.797   3.705
    1SIL  O00al 3039   5.484   4.744   0.148
    1SIL  O00am 3040   5.437   4.932   0.329
    1SIL  Si0IP 3041   5.045   5.334   3.588
    1SIL  Si0IQ 3042   4.800   5.307   0.212
    1SIL  O00an 3043   4.946   5.284   0.276
    1SIL  O00ao 3044   4.993   5.472   3.652
    1SIL  O00ap 3045   4.806   5.419   0.095
    1SIL  O00aq 3046   5.052   5.222   3.705
    1SIL  O00ar 3047   5.239   5.169   0.148
    1SIL  O00as 3048   5.191   5.357   0.329
    1SIL  Si0IS 3049   4.800   5.759   3.588
    1SIL  Si0IT 3050   4.554   5.733   0.212
    1SIL  O00at 3051   4.700   5.709   0.276
    1SIL  O00au 3052   4.747   5.898   3.652
    1SIL  O00av 3053   4.560   5.844   0.095
    1SIL  O00aw 3054   4.806   5.648   3.705
    1SIL  O00ax 3055   4.993   5.595   0.148
    1SIL  O00ay 3056   4.946   5.783   0.329
    1SIL  Si0IV 3057   4.554   6.185   3.588
    1SIL  Si0IW 3058   4.308   6.159   0.212
    1SIL  O00az 3059   4.454   6.135   0.276
    1SIL  O00b0 3060   4.501   6.323   3.652
    1SIL  O00b1 3061   4.315   6.270   0.095
    1SIL  O00b2 3062   4.560   6.074   3.705
    1SIL  O00b3 3063   4.747   6.020   0.148
    1SIL  O00b4 3064   4.700   6.209   0.329
    1SIL  Si0IY 3065   4.308   6.611   3.588
    1SIL  Si0IZ 3066   4.062   6.584   0.212
    1SIL  O00b5 3067   4.208   6.561   0.276
    1SIL  O00b6 3068   4.256   6.749   3.652
    1SIL  O00b7 3069   4.069   6.696   0.095
    1SIL  O00b8 3070   4.315   6.499   3.705
    1SIL  O00b9 3071   4.501   6.446   0.148
    1SIL  O00bA 3072   4.454   6.634   0.329
    1SIL  Si0Ib 3073   4.062   7.036   3.588
    1SIL  Si0Ic 3074   3.817   7.010   0.212
    1SIL  O00bB 3075   3.963   6.986   0.276
    1SIL  O00bC 3076   4.010   7.175   3.652
    1SIL  O00bD 3077   3.823   7.121   0.095
    1SIL  O00bE 3078   4.069   6.925   3.705
    1SIL  O00bF 3079   4.256   6.872   0.148
    1SIL  O00bG 3080   4.208   7.060   0.329
    1SIL  Si0Ie 3081   3.817   7.462   3.588
    1SIL  Si0If 3082   3.571   7.436   0.212
    1SIL  O00bH 3083   3.717   7.412   0.276
    1SIL  O00bI 3084   3.764   7.600   3.652
    1SIL  O00bJ 3085   3.577   7.547   0.095
    1SIL  O00bK 3086   3.823   7.351   3.705
    1SIL  O00bL 3087   4.010   7.297   0.148
    1SIL  O00bM 3088   3.963   7.486   0.329
    1SIL  Si0Ih 3089   3.571   7.888   3.588
    1SIL  Si0Ii 3090   3.325   7.861   0.212
    1SIL  O00bN 3091   3.471   7.838   0.276
    1SIL  O00bO 3092   3.518   8.026   3.652
    1SIL  O00bP 3093   3.332   7.973   0.095
    1SIL  O00bQ 3094   3.577   7.776   3.705
    1SIL  O00bR 3095   3.764   7.723   0.148
    1SIL  O00bS 3096   3.717   7.911   0.329
    1SIL  Si0Ik 3097   3.325   8.313   3.588
    1SIL  Si0Il 3098   3.079   8.287   0.212
    1SIL  O00bT 3099   3.225   8.263   0.276
    1SIL  O00bU 3100   3.273   8.452   3.652
    1SIL  O00bV 3101   3.086   8.398   0.095
    1SIL  O00bW 3102   3.332   8.202   3.705
    1SIL  O00bX 3103   3.518   8.149   0.148
    1SIL  O00bY 3104   3.471   8.337   0.329
    1SIL  Si0In 3105   3.079   8.739   3.588
    1SIL  Si0Io 3106   2.834   8.713   0.212
    1SIL  O00bZ 3107   2.980   8.689   0.276
    1SIL  O00ba 3108   3.027   8.877   3.652
    1SIL  O00bb 3109   2.840   8.824   0.095
    1SIL  O00bc 3110   3.086   8.628   3.705
    1SIL  O00bd 3111   3.273   8.574   0.148
    1SIL  O00be 3112   3.225   8.763   0.329
    1SIL  Si0Iq 3113   2.834   9.165   3.588
    1SIL  Si0Ir 3114   2.588   9.138   0.212
    1SIL  O00bf 3115   2.734   9.115   0.276
    1SIL  O00bg 3116   2.781   9.303   3.652
    1SIL  O00bh 3117   2.595   9.250   0.095
    1SIL  O00bi 3118   2.840   9.053   3.705
    1SIL  O00bj 3119   3.027   9.000   0.148
    1SIL  O00bk 3120   2.980   9.188   0.329
    1SIL  Si0It 3121   2.588   9.590   3.588
    1SIL  Si0Iu 3122   2.342   9.564   0.212
    1SIL  O00bl 3123   2.488   9.540   0.276
    1SIL  O00bm 3124   2.535   9.729   3.652
    1SIL  O00bn 3125   2.349   9.675   0.095
    1SIL  O00bo 3126   2.595   9.479   3.705
    1SIL  O00bp 3127   2.781   9.426   0.148
    1SIL  O00bq 3128   2.734   9.614   0.329
    1SIL  Si0Iw 3129   8.486   0.226   3.588
    1SIL  Si0Ix 3130   8.240   0.200   0.212
    1SIL  O00br 3131   8.386   0.176   0.276
    1SIL  O00bs 3132   8.433   0.364   3.652
    1SIL  O00bt 3133   8.247   0.311   0.095
    1SIL  O00bu 3134   8.492   0.115   3.705
    1SIL  O00bv 3135   8.679   0.061   0.148
    1SIL  O00bw 3136   8.632   0.250   0.329
    1SIL  Si0Iz 3137   8.240   0.652   3.588
    1SIL  Si0J0 3138   7.994   0.625   0.212
    1SIL  O00bx 3139   8.140   0.602   0.276
    1SIL  O00by 3140   8.188   0.790   3.652
    1SIL  O00bz 3141   8.001   0.737   0.095
    1SIL  O00c0 3142   8.247   0.540   3.705
    1SIL  O00c1 3143   8.433   0.487   0.148
    1SIL  O00c2 3144   8.386   0.675   0.329
    1SIL  Si0J2 3145   7.994   1.077   3.588
    1SIL  Si0J3 3146   7.749   1.051   0.212
    1SIL  O00c3 3147   7.895   1.027   0.276
    1SIL  O00c4 3148   7.942   1.216   3.652
    1SIL  O00c5 3149   7.755   1.162   0.095
    1SIL  O00c6 3150   8.001   0.966   3.705
    1SIL  O00c7 3151   8.188   0.913   0.148
    1SIL  O00c8 3152   8.140   1.101   0.329
    1SIL  Si0J5 3153   7.749   1.503   3.588
    1SIL  Si0J6 3154   7.503   1.477   0.212
    1SIL  O00c9 3155   7.649   1.453   0.276
    1SIL  O00cA 3156   7.696   1.641   3.652
    1SIL  O00cB 3157   7.509   1.588   0.095
    1SIL  O00cC 3158   7.755   1.392   3.705
    1SIL  O00cD 3159   7.942   1.338   0.148
    1SIL  O00cE 3160   7.895   1.527   0.329
    1SIL  Si0J8 3161   7.503   1.929   3.588
    1SIL  Si0J9 3162   7.257   1.902   0.212
    1SIL  O00cF 3163   7.403   1.879   0.276
    1SIL  O00cG 3164   7.450   2.067   3.652
    1SIL  O00cH 3165   7.264   2.014   0.095
    1SIL  O00cI 3166   7.509   1.817   3.705
    1SIL  O00cJ 3167   7.696   1.764   0.148
    1SIL  O00cK 3168   7.649   1.952   0.329
    1SIL  Si0JB 3169   7.257   2.354   3.588
    1SIL  Si0JC 3170   7.011   2.328   0.212
    1SIL  O00cL 3171   7.157   2.304   0.276
    1SIL  O00cM 3172   7.205   2.493   3.652
    1SIL  O00cN 3173   7.018   2.439   0.095
    1SIL  O00cO 3174   7.264   2.243   3.705
    1SIL  O00cP 3175   7.450   2.190   0.148
    1SIL  O00cQ 3176   7.403   2.378   0.329
    1SIL  Si0JE 3177   7.011   2.780   3.588
    1SIL  Si0JF 3178   6.766   2.753   0.212
    1SIL  O00cR 3179   6.912   2.730   0.276
    1SIL  O00cS 3180   6.959   2.918   3.652
    1SIL  O00cT 3181   6.772   2.865   0.095
    1SIL  O00cU 3182   7.018   2.668   3.705
    1SIL  O00cV 3183   7.205   2.615   0.148
    1SIL  O00cW 3184   7.157   2.804   0.329
    1SIL  Si0JH 3185   6.766   3.206   3.588
    1SIL  Si0JI 3186   6.520   3.179   0.212
    1SIL  O00cX 3187   6.666   3.156   0.276
    1SIL  O00cY 3188   6.713   3.344   3.652
    1SIL  O00cZ 3189   6.526   3.291   0.095
    1SIL  O00ca 3190   6.772   3.094   3.705
    1SIL  O00cb 3191   6.959   3.041   0.148
    1SIL  O00cc 3192   6.912   3.229   0.329
    1SIL  Si0JK 3193   6.520   3.631   3.588
    1SIL  Si0JL 3194   6.274   3.605   0.212
    1SIL  O00cd 3195   6.420   3.581   0.276
    1SIL  O00ce 3196   6.467   3.769   3.652
    1SIL  O00cf 3197   6.281   3.716   0.095
    1SIL  O00cg 3198   6.526   3.520   3.705
    1SIL  O00ch 3199   6.713   3.467   0.148
    1SIL  O00ci 3200   6.666   3.655   0.329
    1SIL  Si0JN 3201   6.274   4.057   3.588
    1SIL  Si0JO 3202   6.028   4.030   0.212
    1SIL  O00cj 3203   6.174   4.007   0.276
    1SIL  O00ck 3204   6.222   4.195   3.652
    1SIL  O00cl 3205   6.035   4.142   0.095
    1SIL  O00cm 3206   6.281   3.945   3.705
    1SIL  O00cn 3207   6.467   3.892   0.148
    1SIL  O00co 3208   6.420   4.081   0.329
    1SIL  Si0JQ 3209   6.028   4.483   3.588
    1SIL  Si0JR 3210   5.783   4.456   0.212
    1SIL  O00cp 3211   5.929   4.432   0.276
    1SIL  O00cq 3212   5.976   4.621   3.652
    1SIL  O00cr 3213   5.789   4.568   0.095
    1SIL  O00cs 3214   6.035   4.371   3.705
    1SIL  O00ct 3215   6.222   4.318   0.148
    1SIL  O00cu 3216   6.174   4.506   0.329
    1SIL  Si0JT 3217   5.783   4.908   3.588
    1SIL  Si0JU 3218   5.537   4.882   0.212
    1SIL  O00cv 3219   5.683   4.858   0.276
    1SIL  O00cw 3220   5.730   5.046   3.652
    1SIL  O00cx 3221   5.543   4.993   0.095
    1SIL  O00cy 3222   5.789   4.797   3.705
    1SIL  O00cz 3223   5.976   4.744   0.148
    1SIL  O00d0 3224   5.929   4.932   0.329
    1SIL  Si0JW 3225   5.537   5.334   3.588
    1SIL  Si0JX 3226   5.291   5.307   0.212
    1SIL  O00d1 3227   5.437   5.284   0.276
    1SIL  O00d2 3228   5.484   5.472   3.652
    1SIL  O00d3 3229   5.298   5.419   0.095
    1SIL  O00d4 3230   5.543   5.222   3.705
    1SIL  O00d5 3231   5.730   5.169   0.148
    1SIL  O00d6 3232   5.683   5.357   0.329
    1SIL  Si0JZ 3233   5.291   5.759   3.588
    1SIL  Si0Ja 3234   5.045   5.733   0.212
    1SIL  O00d7 3235   5.191   5.709   0.276
    1SIL  O00d8 3236   5.239   5.898   3.652
    1SIL  O00d9 3237   5.052   5.844   0.095
    1SIL  O00dA 3238   5.298   5.648   3.705
    1SIL  O00dB 3239   5.484   5.595   0.148
    1SIL  O00dC 3240   5.437   5.783   0.329
    1SIL  Si0Jc 3241   5.045   6.185   3.588
    1SIL  Si0Jd 3242   4.800   6.159   0.212
    1SIL  O00dD 3243   4.946   6.135   0.276
    1SIL  O00dE 3244   4.993   6.323   3.652
    1SIL  O00dF 3245   4.806   6.270   0.095
    1SIL  O00dG 3246   5.052   6.074   3.705
    1SIL  O00dH 3247   5.239   6.020   0.148
    1SIL  O00dI 3248   5.191   6.209   0.329
    1SIL  Si0Jf 3249   4.800   6.611   3.588
    1SIL  Si0Jg 3250   4.554   6.584   0.212
    1SIL  O00dJ 3251   4.700   6.561   0.276
    1SIL  O00dK 3252   4.747   6.749   3.652
    1SIL  O00dL 3253   4.560   6.696   0.095
    1SIL  O00dM 3254   4.806   6.499   3.705
    1SIL  O00dN 3255   4.993   6.446   0.148
    1SIL  O00dO 3256   4.946   6.634   0.329
    1SIL  Si0Ji 3257   4.554   7.036   3.588
    1SIL  Si0Jj 3258   4.308   7.010   0.212
    1SIL  O00dP 3259   4.454   6.986   0.276
    1SIL  O00dQ 3260   4.501   7.175   3.652
    1SIL  O00dR 3261   4.315   7.121   0.095
    1SIL  O00dS 3262   4.560   6.925   3.705
    1SIL  O00dT 3263   4.747   6.872   0.148
    1SIL  O00dU 3264   4.700   7.060   0.329
    1SIL  Si0Jl 3265   4.308   7.462   3.588
    1SIL  Si0Jm 3266   4.062   7.436   0.212
    1SIL  O00dV 3267   4.208   7.412   0.276
    1SIL  O00dW 3268   4.256   7.600   3.652
    1SIL  O00dX 3269   4.069   7.547   0.095
    1SIL  O00dY 3270   4.315   7.351   3.705
    1SIL  O00dZ 3271   4.501   7.297   0.148
    1SIL  O00da 3272   4.454   7.486   0.329
    1SIL  Si0Jo 3273   4.062   7.888   3.588
    1SIL  Si0Jp 3274   3.817   7.861   0.212
    1SIL  O00db 3275   3.963   7.838   0.276
    1SIL  O00dc 3276   4.010   8.026   3.652
    1SIL  O00dd 3277   3.823   7.973   0.095
    1SIL  O00de 3278   4.069   7.776   3.705
    1SIL  O00df 3279   4.256   7.723   0.148
    1SIL  O00dg 3280   4.208   7.911   0.329
    1SIL  Si0Jr 3281   3.817   8.313   3.588
    1SIL  Si0Js 3282   3.571   8.287   0.212
    1SIL  O00dh 3283   3.717   8.263   0.276
    1SIL  O00di 3284   3.764   8.452   3.652
    1SIL  O00dj 3285   3.577   8.398   0.095
    1SIL  O00dk 3286   3.823   8.202   3.705
    1SIL  O00dl 3287   4.010   8.149   0.148
    1SIL  O00dm 3288   3.963   8.337   0.329
    1SIL  Si0Ju 3289   3.571   8.739   3.588
    1SIL  Si0Jv 3290   3.325   8.713   0.212
    1SIL  O00dn 3291   3.471   8.689   0.276
    1SIL  O00do 3292   3.518   8.877   3.652
    1SIL  O00dp 3293   3.332   8.824   0.095
    1SIL  O00dq 3294   3.577   8.628   3.705
    1SIL  O00dr 3295   3.764   8.574   0.148
    1SIL  O00ds 3296   3.717   8.763   0.329
    1SIL  Si0Jx 3297   3.325   9.165   3.588
    1SIL  Si0Jy 3298   3.079   9.138   0.212
    1SIL  O00dt 3299   3.225   9.115   0.276
    1SIL  O00du 3300   3.273   9.303   3.652
    1SIL  O00dv 3301   3.086   9.250   0.095
    1SIL  O00dw 3302   3.332   9.053   3.705
    1SIL  O00dx 3303   3.518   9.000   0.148
    1SIL  O00dy 3304   3.471   9.188   0.329
    1SIL  Si0K0 3305   3.079   9.590   3.588
    1SIL  Si0K1 3306   2.834   9.564   0.212
    1SIL  O00dz 3307   2.980   9.540   0.276
    1SIL  O00e0 3308   3.027   9.729   3.652
    1SIL  O00e1 3309   2.840   9.675   0.095
    1SIL  O00e2 3310   3.086   9.479   3.705
    1SIL  O00e3 3311   3.273   9.426   0.148
    1SIL  O00e4 3312   3.225   9.614   0.329
    1SIL  Si0K3 3313   8.977   0.226   3.588
    1SIL  Si0K4 3314   8.732   0.200   0.212
    1SIL  O00e5 3315   8.878   0.176   0.276
    1SIL  O00e6 3316   8.925   0.364   3.652
    1SIL  O00e7 3317   8.738   0.311   0.095
    1SIL  O00e8 3318   8.984   0.115   3.705
    1SIL  O00e9 3319   9.171   0.061   0.148
    1SIL  O00eA 3320   9.123   0.250   0.329
    1SIL  Si0K6 3321   8.732   0.652   3.588
    1SIL  Si0K7 3322   8.486   0.625   0.212
    1SIL  O00eB 3323   8.632   0.602   0.276
    1SIL  O00eC 3324   8.679   0.790   3.652
    1SIL  O00eD 3325   8.492   0.737   0.095
    1SIL  O00eE 3326   8.738   0.540   3.705
    1SIL  O00eF 3327   8.925   0.487   0.148
    1SIL  O00eG 3328   8.878   0.675   0.329
    1SIL  Si0K9 3329   8.486   1.077   3.588
    1SIL  Si0KA 3330   8.240   1.051   0.212
    1SIL  O00eH 3331   8.386   1.027   0.276
    1SIL  O00eI 3332   8.433   1.216   3.652
    1SIL  O00eJ 3333   8.247   1.162   0.095
    1SIL  O00eK 3334   8.492   0.966   3.705
    1SIL  O00eL 3335   8.679   0.913   0.148
    1SIL  O00eM 3336   8.632   1.101   0.329
    1SIL  Si0KC 3337   8.240   1.503   3.588
    1SIL  Si0KD 3338   7.994   1.477   0.212
    1SIL  O00eN 3339   8.140   1.453   0.276
    1SIL  O00eO 3340   8.188   1.641   3.652
    1SIL  O00eP 3341   8.001   1.588   0.095
    1SIL  O00eQ 3342   8.247   1.392   3.705
    1SIL  O00eR 3343   8.433   1.338   0.148
    1SIL  O00eS 3344   8.386   1.527   0.329
    1SIL  Si0KF 3345   7.994   1.929   3.588
    1SIL  Si0KG 3346   7.749   1.902   0.212
    1SIL  O00eT 3347   7.895   1.879   0.276
    1SIL  O00eU 3348   7.942   2.067   3.652
    1SIL  O00eV 3349   7.755   2.014   0.095
    1SIL  O00eW 3350   8.001   1.817   3.705
    1SIL  O00eX 3351   8.188   1.764   0.148
    1SIL  O00eY 3352   8.140   1.952   0.329
    1SIL  Si0KI 3353   7.749   2.354   3.588
    1SIL  Si0KJ 3354   7.503   2.328   0.212
    1SIL  O00eZ 3355   7.649   2.304   0.276
    1SIL  O00ea 3356   7.696   2.493   3.652
    1SIL  O00eb 3357   7.509   2.439   0.095
    1SIL  O00ec 3358   7.755   2.243   3.705
    1SIL  O00ed 3359   7.942   2.190   0.148
    1SIL  O00ee 3360   7.895   2.378   0.329
    1SIL  Si0KL 3361   7.503   2.780   3.588
    1SIL  Si0KM 3362   7.257   2.753   0.212
    1SIL  O00ef 3363   7.403   2.730   0.276
    1SIL  O00eg 3364   7.450   2.918   3.652
    1SIL  O00eh 3365   7.264   2.865   0.095
    1SIL  O00ei 3366   7.509   2.668   3.705
    1SIL  O00ej 3367   7.696   2.615   0.148
    1SIL  O00ek 3368   7.649   2.804   0.329
    1SIL  Si0KO 3369   7.257   3.206   3.588
    1SIL  Si0KP 3370   7.011   3.179   0.212
    1SIL  O00el 3371   7.157   3.156   0.276
    1SIL  O00em 3372   7.205   3.344   3.652
    1SIL  O00en 3373   7.018   3.291   0.095
    1SIL  O00eo 3374   7.264   3.094   3.705
    1SIL  O00ep 3375   7.450   3.041   0.148
    1SIL  O00eq 3376   7.403   3.229   0.329
    1SIL  Si0KR 3377   7.011   3.631   3.588
    1SIL  Si0KS 3378   6.766   3.605   0.212
    1SIL  O00er 3379   6.912   3.581   0.276
    1SIL  O00es 3380   6.959   3.769   3.652
    1SIL  O00et 3381   6.772   3.716   0.095
    1SIL  O00eu 3382   7.018   3.520   3.705
    1SIL  O00ev 3383   7.205   3.467   0.148
    1SIL  O00ew 3384   7.157   3.655   0.329
    1SIL  Si0KU 3385   6.766   4.057   3.588
    1SIL  Si0KV 3386   6.520   4.030   0.212
    1SIL  O00ex 3387   6.666   4.007   0.276
    1SIL  O00ey 3388   6.713   4.195   3.652
    1SIL  O00ez 3389   6.526   4.142   0.095
    1SIL  O00f0 3390   6.772   3.945   3.705
    1SIL  O00f1 3391   6.959   3.892   0.148
    1SIL  O00f2 3392   6.912   4.081   0.329
    1SIL  Si0KX 3393   6.520   4.483   3.588
    1SIL  Si0KY 3394   6.274   4.456   0.212
    1SIL  O00f3 3395   6.420   4.432   0.276
    1SIL  O00f4 3396   6.467   4.621   3.652
    1SIL  O00f5 3397   6.281   4.568   0.095
    1SIL  O00f6 3398   6.526   4.371   3.705
    1SIL  O00f7 3399   6.713   4.318   0.148
    1SIL  O00f8 3400   6.666   4.506   0.329
    1SIL  Si0Ka 3401   6.274   4.908   3.588
    1SIL  Si0Kb 3402   6.028   4.882   0.212
    1SIL  O00f9 3403   6.174   4.858   0.276
    1SIL  O00fA 3404   6.222   5.046   3.652
    1SIL  O00fB 3405   6.035   4.993   0.095
    1SIL  O00fC 3406   6.281   4.797   3.705
    1SIL  O00fD 3407   6.467   4.744   0.148
    1SIL  O00fE 3408   6.420   4.932   0.329
    1SIL  Si0Kd 3409   6.028   5.334   3.588
    1SIL  Si0Ke 3410   5.783   5.307   0.212
    1SIL  O00fF 3411   5.929   5.284   0.276
    1SIL  O00fG 3412   5.976   5.472   3.652
    1SIL  O00fH 3413   5.789   5.419   0.095
    1SIL  O00fI 3414   6.035   5.222   3.705
    1SIL  O00fJ 3415   6.222   5.169   0.148
    1SIL  O00fK 3416   6.174   5.357   0.329
    1SIL  Si0Kg 3417   5.783   5.759   3.588
    1SIL  Si0Kh 3418   5.537   5.733   0.212
    1SIL  O00fL 3419   5.683   5.709   0.276
    1SIL  O00fM 3420   5.730   5.898   3.652
    1SIL  O00fN 3421   5.543   5.844   0.095
    1SIL  O00fO 3422   5.789   5.648   3.705
    1SIL  O00fP 3423   5.976   5.595   0.148
    1SIL  O00fQ 3424   5.929   5.783   0.329
    1SIL  Si0Kj 3425   5.537   6.185   3.588
    1SIL  Si0Kk 3426   5.291   6.159   0.212
    1SIL  O00fR 3427   5.437   6.135   0.276
    1SIL  O00fS 3428   5.484   6.323   3.652
    1SIL  O00fT 3429   5.298   6.270   0.095
    1SIL  O00fU 3430   5.543   6.074   3.705
    1SIL  O00fV 3431   5.730   6.020   0.148
    1SIL  O00fW 3432   5.683   6.209   0.329
    1SIL  Si0Km 3433   5.291   6.611   3.588
    1SIL  Si0Kn 3434   5.045   6.584   0.212
    1SIL  O00fX 3435   5.191   6.561   0.276
    1SIL  O00fY 3436   5.239   6.749   3.652
    1SIL  O00fZ 3437   5.052   6.696   0.095
    1SIL  O00fa 3438   5.298   6.499   3.705
    1SIL  O00fb 3439   5.484   6.446   0.148
    1SIL  O00fc 3440   5.437   6.634   0.329
    1SIL  Si0Kp 3441   5.045   7.036   3.588
    1SIL  Si0Kq 3442   4.800   7.010   0.212
    1SIL  O00fd 3443   4.946   6.986   0.276
    1SIL  O00fe 3444   4.993   7.175   3.652
    1SIL  O00ff 3445   4.806   7.121   0.095
    1SIL  O00fg 3446   5.052   6.925   3.705
    1SIL  O00fh 3447   5.239   6.872   0.148
    1SIL  O00fi 3448   5.191   7.060   0.329
    1SIL  Si0Ks 3449   4.800   7.462   3.588
    1SIL  Si0Kt 3450   4.554   7.436   0.212
    1SIL  O00fj 3451   4.700   7.412   0.276
    1SIL  O00fk 3452   4.747   7.600   3.652
    1SIL  O00fl 3453   4.560   7.547   0.095
    1SIL  O00fm 3454   4.806   7.351   3.705
    1SIL  O00fn 3455   4.993   7.297   0.148
    1SIL  O00fo 3456   4.946   7.486   0.329
    1SIL  Si0Kv 3457   4.554   7.888   3.588
    1SIL  Si0Kw 3458   4.308   7.861   0.212
    1SIL  O00fp 3459   4.454   7.838   0.276
    1SIL  O00fq 3460   4.501   8.026   3.652
    1SIL  O00fr 3461   4.315   7.973   0.095
    1SIL  O00fs 3462   4.560   7.776   3.705
    1SIL  O00ft 3463   4.747   7.723   0.148
    1SIL  O00fu 3464   4.700   7.911   0.329
    1SIL  Si0Ky 3465   4.308   8.313   3.588
    1SIL  Si0Kz 3466   4.062   8.287   0.212
    1SIL  O00fv 3467   4.208   8.263   0.276
    1SIL  O00fw 3468   4.256   8.452   3.652
    1SIL  O00fx 3469   4.069   8.398   0.095
    1SIL  O00fy 3470   4.315   8.202   3.705
    1SIL  O00fz 3471   4.501   8.149   0.148
    1SIL  O00g0 3472   4.454   8.337   0.329
    1SIL  Si0L1 3473   4.062   8.739   3.588
    1SIL  Si0L2 3474   3.817   8.713   0.212
    1SIL  O00g1 3475   3.963   8.689   0.276
    1SIL  O00g2 3476   4.010   8.877   3.652
    1SIL  O00g3 3477   3.823   8.824   0.095
    1SIL  O00g4 3478   4.069   8.628   3.705
    1SIL  O00g5 3479   4.256   8.574   0.148
    1SIL  O00g6 3480   4.208   8.763   0.329
    1SIL  Si0L4 3481   3.817   9.165   3.588
    1SIL  Si0L5 3482   3.571   9.138   0.212
    1SIL  O00g7 3483   3.717   9.115   0.276
    1SIL  O00g8 3484   3.764   9.303   3.652
    1SIL  O00g9 3485   3.577   9.250   0.095
    1SIL  O00gA 3486   3.823   9.053   3.705
    1SIL  O00gB 3487   4.010   9.000   0.148
    1SIL  O00gC 3488   3.963   9.188   0.329
    1SIL  Si0L7 3489   3.571   9.590   3.588
    1SIL  Si0L8 3490   3.325   9.564   0.212
    1SIL  O00gD 3491   3.471   9.540   0.276
    1SIL  O00gE 3492   3.518   9.729   3.652
    1SIL  O00gF 3493   3.332   9.675   0.095
    1SIL  O00gG 3494   3.577   9.479   3.705
    1SIL  O00gH 3495   3.764   9.426   0.148
    1SIL  O00gI 3496   3.717   9.614   0.329
    1SIL  Si0LA 3497   9.469   0.226   3.588
    1SIL  Si0LB 3498   9.223   0.200   0.212
    1SIL  O00gJ 3499   9.369   0.176   0.276
    1SIL  O00gK 3500   9.416   0.364   3.652
    1SIL  O00gL 3501   9.230   0.311   0.095
    1SIL  O00gM 3502   9.475   0.115   3.705
    1SIL  O00gN 3503   9.662   0.061   0.148
    1SIL  O00gO 3504   9.615   0.250   0.329
    1SIL  Si0LD 3505   9.223   0.652   3.588
    1SIL  Si0LE 3506   8.977   0.625   0.212
    1SIL  O00gP 3507   9.123   0.602   0.276
    1SIL  O00gQ 3508   9.171   0.790   3.652
    1SIL  O00gR 3509   8.984   0.737   0.095
    1SIL  O00gS 3510   9.230   0.540   3.705
    1SIL  O00gT 3511   9.416   0.487   0.148
    1SIL  O00gU 3512   9.369   0.675   0.329
    1SIL  Si0LG 3513   8.977   1.077   3.588
    1SIL  Si0LH 3514   8.732   1.051   0.212
    1SIL  O00gV 3515   8.878   1.027   0.276
    1SIL  O00gW 3516   8.925   1.216   3.652
    1SIL  O00gX 3517   8.738   1.162   0.095
    1SIL  O00gY 3518   8.984   0.966   3.705
    1SIL  O00gZ 3519   9.171   0.913   0.148
    1SIL  O00ga 3520   9.123   1.101   0.329
    1SIL  Si0LJ 3521   8.732   1.503   3.588
    1SIL  Si0LK 3522   8.486   1.477   0.212
    1SIL  O00gb 3523   8.632   1.453   0.276
    1SIL  O00gc 3524   8.679   1.641   3.652
    1SIL  O00gd 3525   8.492   1.588   0.095
    1SIL  O00ge 3526   8.738   1.392   3.705
    1SIL  O00gf 3527   8.925   1.338   0.148
    1SIL  O00gg 3528   8.878   1.527   0.329
    1SIL  Si0LM 3529   8.486   1.929   3.588
    1SIL  Si0LN 3530   8.240   1.902   0.212
    1SIL  O00gh 3531   8.386   1.879   0.276
    1SIL  O00gi 3532   8.433   2.067   3.652
    1SIL  O00gj 3533   8.247   2.014   0.095
    1SIL  O00gk 3534   8.492   1.817   3.705
    1SIL  O00gl 3535   8.679   1.764   0.148
    1SIL  O00gm 3536   8.632   1.952   0.329
    1SIL  Si0LP 3537   8.240   2.354   3.588
    1SIL  Si0LQ 3538   7.994   2.328   0.212
    1SIL  O00gn 3539   8.140   2.304   0.276
    1SIL  O00go 3540   8.188   2.493   3.652
    1SIL  O00gp 3541   8.001   2.439   0.095
    1SIL  O00gq 3542   8.247   2.243   3.705
    1SIL  O00gr 3543   8.433   2.190   0.148
    1SIL  O00gs 3544   8.386   2.378   0.329
    1SIL  Si0LS 3545   7.994   2.780   3.588
    1SIL  Si0LT 3546   7.749   2.753   0.212
    1SIL  O00gt 3547   7.895   2.730   0.276
    1SIL  O00gu 3548   7.942   2.918   3.652
    1SIL  O00gv 3549   7.755   2.865   0.095
    1SIL  O00gw 3550   8.001   2.668   3.705
    1SIL  O00gx 3551   8.188   2.615   0.148
    1SIL  O00gy 3552   8.140   2.804   0.329
    1SIL  Si0LV 3553   7.749   3.206   3.588
    1SIL  Si0LW 3554   7.503   3.179   0.212
    1SIL  O00gz 3555   7.649   3.156   0.276
    1SIL  O00h0 3556   7.696   3.344   3.652
    1SIL  O00h1 3557   7.509   3.291   0.095
    1SIL  O00h2 3558   7.755   3.094   3.705
    1SIL  O00h3 3559   7.942   3.041   0.148
    1SIL  O00h4 3560   7.895   3.229   0.329
    1SIL  Si0LY 3561   7.503   3.631   3.588
    1SIL  Si0LZ 3562   7.257   3.605   0.212
    1SIL  O00h5 3563   7.403   3.581   0.276
    1SIL  O00h6 3564   7.450   3.769   3.652
    1SIL  O00h7 3565   7.264   3.716   0.095
    1SIL  O00h8 3566   7.509   3.520   3.705
    1SIL  O00h9 3567   7.696   3.467   0.148
    1SIL  O00hA 3568   7.649   3.655   0.329
    1SIL  Si0Lb 3569   7.257   4.057   3.588
    1SIL  Si0Lc 3570   7.011   4.030   0.212
    1SIL  O00hB 3571   7.157   4.007   0.276
    1SIL  O00hC 3572   7.205   4.195   3.652
    1SIL  O00hD 3573   7.018   4.142   0.095
    1SIL  O00hE 3574   7.264   3.945   3.705
    1SIL  O00hF 3575   7.450   3.892   0.148
    1SIL  O00hG 3576   7.403   4.081   0.329
    1SIL  Si0Le 3577   7.011   4.483   3.588
    1SIL  Si0Lf 3578   6.766   4.456   0.212
    1SIL  O00hH 3579   6.912   4.432   0.276
    1SIL  O00hI 3580   6.959   4.621   3.652
    1SIL  O00hJ 3581   6.772   4.568   0.095
    1SIL  O00hK 3582   7.018   4.371   3.705
    1SIL  O00hL 3583   7.205   4.318   0.148
    1SIL  O00hM 3584   7.157   4.506   0.329
    1SIL  Si0Lh 3585   6.766   4.908   3.588
    1SIL  Si0Li 3586   6.520   4.882   0.212
    1SIL  O00hN 3587   6.666   4.858   0.276
    1SIL  O00hO 3588   6.713   5.046   3.652
    1SIL  O00hP 3589   6.526   4.993   0.095
    1SIL  O00hQ 3590   6.772   4.797   3.705
    1SIL  O00hR 3591   6.959   4.744   0.148
    1SIL  O00hS 3592   6.912   4.932   0.329
    1SIL  Si0Lk 3593   6.520   5.334   3.588
    1SIL  Si0Ll 3594   6.274   5.307   0.212
    1SIL  O00hT 3595   6.420   5.284   0.276
    1SIL  O00hU 3596   6.467   5.472   3.652
    1SIL  O00hV 3597   6.281   5.419   0.095
    1SIL  O00hW 3598   6.526   5.222   3.705
    1SIL  O00hX 3599   6.713   5.169   0.148
    1SIL  O00hY 3600   6.666   5.357   0.329
    1SIL  Si0Ln 3601   6.274   5.759   3.588
    1SIL  Si0Lo 3602   6.028   5.733   0.212
    1SIL  O00hZ 3603   6.174   5.709   0.276
    1SIL  O00ha 3604   6.222   5.898   3.652
    1SIL  O00hb 3605   6.035   5.844   0.095
    1SIL  O00hc 3606   6.281   5.648   3.705
    1SIL  O00hd 3607   6.467   5.595   0.148
    1SIL  O00he 3608   6.420   5.783   0.329
    1SIL  Si0Lq 3609   6.028   6.185   3.588
    1SIL  Si0Lr 3610   5.783   6.159   0.212
    1SIL  O00hf 3611   5.929   6.135   0.276
    1SIL  O00hg 3612   5.976   6.323   3.652
    1SIL  O00hh 3613   5.789   6.270   0.095
    1SIL  O00hi 3614   6.035   6.074   3.705
    1SIL  O00hj 3615   6.222   6.020   0.148
    1SIL  O00hk 3616   6.174   6.209   0.329
    1SIL  Si0Lt 3617   5.783   6.611   3.588
    1SIL  Si0Lu 3618   5.537   6.584   0.212
    1SIL  O00hl 3619   5.683   6.561   0.276
    1SIL  O00hm 3620   5.730   6.749   3.652
    1SIL  O00hn 3621   5.543   6.696   0.095
    1SIL  O00ho 3622   5.789   6.499   3.705
    1SIL  O00hp 3623   5.976   6.446   0.148
    1SIL  O00hq 3624   5.929   6.634   0.329
    1SIL  Si0Lw 3625   5.537   7.036   3.588
    1SIL  Si0Lx 3626   5.291   7.010   0.212
    1SIL  O00hr 3627   5.437   6.986   0.276
    1SIL  O00hs 3628   5.484   7.175   3.652
    1SIL  O00ht 3629   5.298   7.121   0.095
    1SIL  O00hu 3630   5.543   6.925   3.705
    1SIL  O00hv 3631   5.730   6.872   0.148
    1SIL  O00hw 3632   5.683   7.060   0.329
    1SIL  Si0Lz 3633   5.291   7.462   3.588
    1SIL  Si0M0 3634   5.045   7.436   0.212
    1SIL  O00hx 3635   5.191   7.412   0.276
    1SIL  O00hy 3636   5.239   7.600   3.652
    1SIL  O00hz 3637   5.052   7.547   0.095
    1SIL  O00i0 3638   5.298   7.351   3.705
    1SIL  O00i1 3639   5.484   7.297   0.148
    1SIL  O00i2 3640   5.437   7.486   0.329
    1SIL  Si0M2 3641   5.045   7.888   3.588
    1SIL  Si0M3 3642   4.800   7.861   0.212
    1SIL  O00i3 3643   4.946   7.838   0.276
    1SIL  O00i4 3644   4.993   8.026   3.652
    1SIL  O00i5 3645   4.806   7.973   0.095
    1SIL  O00i6 3646   5.052   7.776   3.705
    1SIL  O00i7 3647   5.239   7.723   0.148
    1SIL  O00i8 3648   5.191   7.911   0.329
    1SIL  Si0M5 3649   4.800   8.313   3.588
    1SIL  Si0M6 3650   4.554   8.287   0.212
    1SIL  O00i9 3651   4.700   8.263   0.276
    1SIL  O00iA 3652   4.747   8.452   3.652
    1SIL  O00iB 3653   4.560   8.398   0.095
    1SIL  O00iC 3654   4.806   8.202   3.705
    1SIL  O00iD 3655   4.993   8.149   0.148
    1SIL  O00iE 3656   4.946   8.337   0.329
    1SIL  Si0M8 3657   4.554   8.739   3.588
    1SIL  Si0M9 3658   4.308   8.713   0.212
    1SIL  O00iF 3659   4.454   8.689   0.276
    1SIL  O00iG 3660   4.501   8.877   3.652
    1SIL  O00iH 3661   4.315   8.824   0.095
    1SIL  O00iI 3662   4.560   8.628   3.705
    1SIL  O00iJ 3663   4.747   8.574   0.148
    1SIL  O00iK 3664   4.700   8.763   0.329
    1SIL  Si0MB 3665   4.308   9.165   3.588
    1SIL  Si0MC 3666   4.062   9.138   0.212
    1SIL  O00iL 3667   4.208   9.115   0.276
    1SIL  O00iM 3668   4.256   9.303   3.652
    1SIL  O00iN 3669   4.069   9.250   0.095
    1SIL  O00iO 3670   4.315   9.053   3.705
    1SIL  O00iP 3671   4.501   9.000   0.148
    1SIL  O00iQ 3672   4.454   9.188   0.329
    1SIL  Si0ME 3673   4.062   9.590   3.588
    1SIL  Si0MF 3674   3.817   9.564   0.212
    1SIL  O00iR 3675   3.963   9.540   0.276
    1SIL  O00iS 3676   4.010   9.729   3.652
    1SIL  O00iT 3677   3.823   9.675   0.095
    1SIL  O00iU 3678   4.069   9.479   3.705
    1SIL  O00iV 3679   4.256   9.426   0.148
    1SIL  O00iW 3680   4.208   9.614   0.329
    1SIL  Si0MH 3681   0.131   0.226   0.393
    1SIL  Si0MI 3682   9.715   0.200   0.755
    1SIL  Si0MJ 3683   0.230   0.000   0.574
    1SIL  O00iX 3684   0.031   0.176   0.819
    1SIL  O00iY 3685   0.078   0.364   0.457
    1SIL  O00iZ 3686   9.721   0.311   0.638
    1SIL  O00ia 3687   0.137   0.115   0.510
    1SIL  O00ib 3688   0.324   0.061   0.691
    1SIL  O00ic 3689   0.276   0.250   0.872
    1SIL  Si0MK 3690   9.715   0.652   0.393
    1SIL  Si0ML 3691   9.469   0.625   0.755
    1SIL  Si0MM 3692   9.815   0.426   0.574
    1SIL  O00id 3693   9.615   0.602   0.819
    1SIL  O00ie 3694   9.662   0.790   0.457
    1SIL  O00if 3695   9.475   0.737   0.638
    1SIL  O00ig 3696   9.721   0.540   0.510
    1SIL  O00ih 3697   0.078   0.487   0.691
    1SIL  O00ii 3698   0.031   0.675   0.872
    1SIL  Si0MN 3699   9.469   1.077   0.393
    1SIL  Si0MO 3700   9.223   1.051   0.755
    1SIL  Si0MP 3701   9.569   0.851   0.574
    1SIL  O00ij 3702   9.369   1.027   0.819
    1SIL  O00ik 3703   9.416   1.216   0.457
    1SIL  O00il 3704   9.230   1.162   0.638
    1SIL  O00im 3705   9.475   0.966   0.510
    1SIL  O00in 3706   9.662   0.913   0.691
    1SIL  O00io 3707   9.615   1.101   0.872
    1SIL  Si0MQ 3708   9.223   1.503   0.393
    1SIL  Si0MR 3709   8.977   1.477   0.755
    1SIL  Si0MS 3710   9.323   1.277   0.574
    1SIL  O00ip 3711   9.123   1.453   0.819
    1SIL  O00iq 3712   9.171   1.641   0.457
    1SIL  O00ir 3713   8.984   1.588   0.638
    1SIL  O00is 3714   9.230   1.392   0.510
    1SIL  O00it 3715   9.416   1.338   0.691
    1SIL  O00iu 3716   9.369   1.527   0.872
    1SIL  Si0MT 3717   8.977   1.929   0.393
    1SIL  Si0MU 3718   8.732   1.902   0.755
    1SIL  Si0MV 3719   9.077   1.703   0.574
    1SIL  O00iv 3720   8.878   1.879   0.819
    1SIL  O00iw 3721   8.925   2.067   0.457
    1SIL  O00ix 3722   8.738   2.014   0.638
    1SIL  O00iy 3723   8.984   1.817   0.510
    1SIL  O00iz 3724   9.171   1.764   0.691
    1SIL  O00j0 3725   9.123   1.952   0.872
    1SIL  Si0MW 3726   8.732   2.354   0.393
    1SIL  Si0MX 3727   8.486   2.328   0.755
    1SIL  Si0MY 3728   8.832   2.128   0.574
    1SIL  O00j1 3729   8.632   2.304   0.819
    1SIL  O00j2 3730   8.679   2.493   0.457
    1SIL  O00j3 3731   8.492   2.439   0.638
    1SIL  O00j4 3732   8.738   2.243   0.510
    1SIL  O00j5 3733   8.925   2.190   0.691
    1SIL  O00j6 3734   8.878   2.378   0.872
    1SIL  Si0MZ 3735   8.486   2.780   0.393
    1SIL  Si0Ma 3736   8.240   2.753   0.755
    1SIL  Si0Mb 3737   8.586   2.554   0.574
    1SIL  O00j7 3738   8.386   2.730   0.819
    1SIL  O00j8 3739   8.433   2.918   0.457
    1SIL  O00j9 3740   8.247   2.865   0.638
    1SIL  O00jA 3741   8.492   2.668   0.510
    1SIL  O00jB 3742   8.679   2.615   0.691
    1SIL  O00jC 3743   8.632   2.804   0.872
    1SIL  Si0Mc 3744   8.240   3.206   0.393
    1SIL  Si0Md 3745   7.994   3.179   0.755
    1SIL  Si0Me 3746   8.340   2.980   0.574
    1SIL  O00jD 3747   8.140   3.156   0.819
    1SIL  O00jE 3748   8.188   3.344   0.457
    1SIL  O00jF 3749   8.001   3.291   0.638
    1SIL  O00jG 3750   8.247   3.094   0.510
    1SIL  O00jH 3751   8.433   3.041   0.691
    1SIL  O00jI 3752   8.386   3.229   0.872
    1SIL  Si0Mf 3753   7.994   3.631   0.393
    1SIL  Si0Mg 3754   7.749   3.605   0.755
    1SIL  Si0Mh 3755   8.094   3.405   0.574
    1SIL  O00jJ 3756   7.895   3.581   0.819
    1SIL  O00jK 3757   7.942   3.769   0.457
    1SIL  O00jL 3758   7.755   3.716   0.638
    1SIL  O00jM 3759   8.001   3.520   0.510
    1SIL  O00jN 3760   8.188   3.467   0.691
    1SIL  O00jO 3761   8.140   3.655   0.872
    1SIL  Si0Mi 3762   7.749   4.057   0.393
    1SIL  Si0Mj 3763   7.503   4.030   0.755
    1SIL  Si0Mk 3764   7.849   3.831   0.574
    1SIL  O00jP 3765   7.649   4.007   0.819
    1SIL  O00jQ 3766   7.696   4.195   0.457
    1SIL  O00jR 3767   7.509   4.142   0.638
    1SIL  O00jS 3768   7.755   3.945   0.510
    1SIL  O00jT 3769   7.942   3.892   0.691
    1SIL  O00jU 3770   7.895   4.081   0.872
    1SIL  Si0Ml 3771   7.503   4.483   0.393
    1SIL  Si0Mm 3772   7.257   4.456   0.755
    1SIL  Si0Mn 3773   7.603   4.256   0.574
    1SIL  O00jV 3774   7.403   4.432   0.819
    1SIL  O00jW 3775   7.450   4.621   0.457
    1SIL  O00jX 3776   7.264   4.568   0.638
    1SIL  O00jY 3777   7.509   4.371   0.510
    1SIL  O00jZ 3778   7.696   4.318   0.691
    1SIL  O00ja 3779   7.649   4.506   0.872
    1SIL  Si0Mo 3780   7.257   4.908   0.393
    1SIL  Si0Mp 3781   7.011   4.882   0.755
    1SIL  Si0Mq 3782   7.357   4.682   0.574
    1SIL  O00jb 3783   7.157   4.858   0.819
    1SIL  O00jc 3784   7.205   5.046   0.457
    1SIL  O00jd 3785   7.018   4.993   0.638
    1SIL  O00je 3786   7.264   4.797   0.510
    1SIL  O00jf 3787   7.450   4.744   0.691
    1SIL  O00jg 3788   7.403   4.932   0.872
    1SIL  Si0Mr 3789   7.011   5.334   0.393
    1SIL  Si0Ms 3790   6.766   5.307   0.755
    1SIL  Si0Mt 3791   7.111   5.108   0.574
    1SIL  O00jh 3792   6.912   5.284   0.819
    1SIL  O00ji 3793   6.959   5.472   0.457
    1SIL  O00jj 3794   6.772   5.419   0.638
    1SIL  O00jk 3795   7.018   5.222   0.510
    1SIL  O00jl 3796   7.205   5.169   0.691
    1SIL  O00jm 3797   7.157   5.357   0.872
    1SIL  Si0Mu 3798   6.766   5.759   0.393
    1SIL  Si0Mv 3799   6.520   5.733   0.755
    1SIL  Si0Mw 3800   6.866   5.533   0.574
    1SIL  O00jn 3801   6.666   5.709   0.819
    1SIL  O00jo 3802   6.713   5.898   0.457
    1SIL  O00jp 3803   6.526   5.844   0.638
    1SIL  O00jq 3804   6.772   5.648   0.510
    1SIL  O00jr 3805   6.959   5.595   0.691
    1SIL  O00js 3806   6.912   5.783   0.872
    1SIL  Si0Mx 3807   6.520   6.185   0.393
    1SIL  Si0My 3808   6.274   6.159   0.755
    1SIL  Si0Mz 3809   6.620   5.959   0.574
    1SIL  O00jt 3810   6.420   6.135   0.819
    1SIL  O00ju 3811   6.467   6.323   0.457
    1SIL  O00jv 3812   6.281   6.270   0.638
    1SIL  O00jw 3813   6.526   6.074   0.510
    1SIL  O00jx 3814   6.713   6.020   0.691
    1SIL  O00jy 3815   6.666   6.209   0.872
    1SIL  Si0N0 3816   6.274   6.611   0.393
    1SIL  Si0N1 3817   6.028   6.584   0.755
    1SIL  Si0N2 3818   6.374   6.385   0.574
    1SIL  O00jz 3819   6.174   6.561   0.819
    1SIL  O00k0 3820   6.222   6.749   0.457
    1SIL  O00k1 3821   6.035   6.696   0.638
    1SIL  O00k2 3822   6.281   6.499   0.510
    1SIL  O00k3 3823   6.467   6.446   0.691
    1SIL  O00k4 3824   6.420   6.634   0.872
    1SIL  Si0N3 3825   6.028   7.036   0.393
    1SIL  Si0N4 3826   5.783   7.010   0.755
    1SIL  Si0N5 3827   6.128   6.810   0.574
    1SIL  O00k5 3828   5.929   6.986   0.819
    1SIL  O00k6 3829   5.976   7.175   0.457
    1SIL  O00k7 3830   5.789   7.121   0.638
    1SIL  O00k8 3831   6.035   6.925   0.510
    1SIL  O00k9 3832   6.222   6.872   0.691
    1SIL  O00kA 3833   6.174   7.060   0.872
    1SIL  Si0N6 3834   5.783   7.462   0.393
    1SIL  Si0N7 3835   5.537   7.436   0.755
    1SIL  Si0N8 3836   5.883   7.236   0.574
    1SIL  O00kB 3837   5.683   7.412   0.819
    1SIL  O00kC 3838   5.730   7.600   0.457
    1SIL  O00kD 3839   5.543   7.547   0.638
    1SIL  O00kE 3840   5.789   7.351   0.510
    1SIL  O00kF 3841   5.976   7.297   0.691
    1SIL  O00kG 3842   5.929   7.486   0.872
    1SIL  Si0N9 3843   5.537   7.888   0.393
    1SIL  Si0NA 3844   5.291   7.861   0.755
    1SIL  Si0NB 3845   5.637   7.662   0.574
    1SIL  O00kH 3846   5.437   7.838   0.819
    1SIL  O00kI 3847   5.484   8.026   0.457
    1SIL  O00kJ 3848   5.298   7.973   0.638
    1SIL  O00kK 3849   5.543   7.776   0.510
    1SIL  O00kL 3850   5.730   7.723   0.691
    1SIL  O00kM 3851   5.683   7.911   0.872
    1SIL  Si0NC 3852   5.291   8.313   0.393
    1SIL  Si0ND 3853   5.045   8.287   0.755
    1SIL  Si0NE 3854   5.391   8.087   0.574
    1SIL  O00kN 3855   5.191   8.263   0.819
    1SIL  O00kO 3856   5.239   8.452   0.457
    1SIL  O00kP 3857   5.052   8.398   0.638
    1SIL  O00kQ 3858   5.298   8.202   0.510
    1SIL  O00kR 3859   5.484   8.149   0.691
    1SIL  O00kS 3860   5.437   8.337   0.872
    1SIL  Si0NF 3861   5.045   8.739   0.393
    1SIL  Si0NG 3862   4.800   8.713   0.755
    1SIL  Si0NH 3863   5.145   8.513   0.574
    1SIL  O00kT 3864   4.946   8.689   0.819
    1SIL  O00kU 3865   4.993   8.877   0.457
    1SIL  O00kV 3866   4.806   8.824   0.638
    1SIL  O00kW 3867   5.052   8.628   0.510
    1SIL  O00kX 3868   5.239   8.574   0.691
    1SIL  O00kY 3869   5.191   8.763   0.872
    1SIL  Si0NI 3870   4.800   9.165   0.393
    1SIL  Si0NJ 3871   4.554   9.138   0.755
    1SIL  Si0NK 3872   4.900   8.939   0.574
    1SIL  O00kZ 3873   4.700   9.115   0.819
    1SIL  O00ka 3874   4.747   9.303   0.457
    1SIL  O00kb 3875   4.560   9.250   0.638
    1SIL  O00kc 3876   4.806   9.053   0.510
    1SIL  O00kd 3877   4.993   9.000   0.691
    1SIL  O00ke 3878   4.946   9.188   0.872
    1SIL  Si0NL 3879   4.554   9.590   0.393
    1SIL  Si0NM 3880   4.308   9.564   0.755
    1SIL  Si0NN 3881   4.654   9.364   0.574
    1SIL  O00kf 3882   4.454   9.540   0.819
    1SIL  O00kg 3883   4.501   9.729   0.457
    1SIL  O00kh 3884   4.315   9.675   0.638
    1SIL  O00ki 3885   4.560   9.479   0.510
    1SIL  O00kj 3886   4.747   9.426   0.691
    1SIL  O00kk 3887   4.700   9.614   0.872
    1SIL  Si0NO 3888   0.622   0.226   0.393
    1SIL  Si0NP 3889   0.376   0.200   0.755
    1SIL  Si0NQ 3890   0.722   0.000   0.574
    1SIL  O00kl 3891   0.522   0.176   0.819
    1SIL  O00km 3892   0.569   0.364   0.457
    1SIL  O00kn 3893   0.383   0.311   0.638
    1SIL  O00ko 3894   0.629   0.115   0.510
    1SIL  O00kp 3895   0.815   0.061   0.691
    1SIL  O00kq 3896   0.768   0.250   0.872
    1SIL  Si0NR 3897   0.376   0.652   0.393
    1SIL  Si0NS 3898   0.131   0.625   0.755
    1SIL  Si0NT 3899   0.476   0.426   0.574
    1SIL  O00kr 3900   0.276   0.602   0.819
    1SIL  O00ks 3901   0.324   0.790   0.457
    1SIL  O00kt 3902   0.137   0.737   0.638
    1SIL  O00ku 3903   0.383   0.540   0.510
    1SIL  O00kv 3904   0.569   0.487   0.691
    1SIL  O00kw 3905   0.522   0.675   0.872
    1SIL  Si0NU 3906   0.131   1.077   0.393
    1SIL  Si0NV 3907   9.715   1.051   0.755
    1SIL  Si0NW 3908   0.230   0.851   0.574
    1SIL  O00kx 3909   0.031   1.027   0.819
    1SIL  O00ky 3910   0.078   1.216   0.457
    1SIL  O00kz 3911   9.721   1.162   0.638
    1SIL  O00l0 3912   0.137   0.966   0.510
    1SIL  O00l1 3913   0.324   0.913   0.691
    1SIL  O00l2 3914   0.276   1.101   0.872
    1SIL  Si0NX 3915   9.715   1.503   0.393
    1SIL  Si0NY 3916   9.469   1.477   0.755
    1SIL  Si0NZ 3917   9.815   1.277   0.574
    1SIL  O00l3 3918   9.615   1.453   0.819
    1SIL  O00l4 3919   9.662   1.641   0.457
    1SIL  O00l5 3920   9.475   1.588   0.638
    1SIL  O00l6 3921   9.721   1.392   0.510
    1SIL  O00l7 3922   0.078   1.338   0.691
    1SIL  O00l8 3923   0.031   1.527   0.872
    1SIL  Si0Na 3924   9.469   1.929   0.393
    1SIL  Si0Nb 3925   9.223   1.902   0.755
    1SIL  Si0Nc 3926   9.569   1.703   0.574
    1SIL  O00l9 3927   9.369   1.879   0.819
    1SIL  O00lA 3928   9.416   2.067   0.457
    1SIL  O00lB 3929   9.230   2.014   0.638
    1SIL  O00lC 3930   9.475   1.817   0.510
    1SIL  O00lD 3931   9.662   1.764   0.691
    1SIL  O00lE 3932   9.615   1.952   0.872
    1SIL  Si0Nd 3933   9.223   2.354   0.393
    1SIL  Si0Ne 3934   8.977   2.328   0.755
    1SIL  Si0Nf 3935   9.323   2.128   0.574
    1SIL  O00lF 3936   9.123   2.304   0.819
    1SIL  O00lG 3937   9.171   2.493   0.457
    1SIL  O00lH 3938   8.984   2.439   0.638
    1SIL  O00lI 3939   9.230   2.243   0.510
    1SIL  O00lJ 3940   9.416   2.190   0.691
    1SIL  O00lK 3941   9.369   2.378   0.872
    1SIL  Si0Ng 3942   8.977   2.780   0.393
    1SIL  Si0Nh 3943   8.732   2.753   0.755
    1SIL  Si0Ni 3944   9.077   2.554   0.574
    1SIL  O00lL 3945   8.878   2.730   0.819
    1SIL  O00lM 3946   8.925   2.918   0.457
    1SIL  O00lN 3947   8.738   2.865   0.638
    1SIL  O00lO 3948   8.984   2.668   0.510
    1SIL  O00lP 3949   9.171   2.615   0.691
    1SIL  O00lQ 3950   9.123   2.804   0.872
    1SIL  Si0Nj 3951   8.732   3.206   0.393
    1SIL  Si0Nk 3952   8.486   3.179   0.755
    1SIL  Si0Nl 3953   8.832   2.980   0.574
    1SIL  O00lR 3954   8.632   3.156   0.819
    1SIL  O00lS 3955   8.679   3.344   0.457
    1SIL  O00lT 3956   8.492   3.291   0.638
    1SIL  O00lU 3957   8.738   3.094   0.510
    1SIL  O00lV 3958   8.925   3.041   0.691
    1SIL  O00lW 3959   8.878   3.229   0.872
    1SIL  Si0Nm 3960   8.486   3.631   0.393
    1SIL  Si0Nn 3961   8.240   3.605   0.755
    1SIL  Si0No 3962   8.586   3.405   0.574
    1SIL  O00lX 3963   8.386   3.581   0.819
    1SIL  O00lY 3964   8.433   3.769   0.457
    1SIL  O00lZ 3965   8.247   3.716   0.638
    1SIL  O00la 3966   8.492   3.520   0.510
    1SIL  O00lb 3967   8.679   3.467   0.691
    1SIL  O00lc 3968   8.632   3.655   0.872
    1SIL  Si0Np 3969   8.240   4.057   0.393
    1SIL  Si0Nq 3970   7.994   4.030   0.755
    1SIL  Si0Nr 3971   8.340   3.831   0.574
    1SIL  O00ld 3972   8.140   4.007   0.819
    1SIL  O00le 3973   8.188   4.195   0.457
    1SIL  O00lf 3974   8.001   4.142   0.638
    1SIL  O00lg 3975   8.247   3.945   0.510
    1SIL  O00lh 3976   8.433   3.892   0.691
    1SIL  O00li 3977   8.386   4.081   0.872
    1SIL  Si0Ns 3978   7.994   4.483   0.393
    1SIL  Si0Nt 3979   7.749   4.456   0.755
    1SIL  Si0Nu 3980   8.094   4.256   0.574
    1SIL  O00lj 3981   7.895   4.432   0.819
    1SIL  O00lk 3982   7.942   4.621   0.457
    1SIL  O00ll 3983   7.755   4.568   0.638
    1SIL  O00lm 3984   8.001   4.371   0.510
    1SIL  O00ln 3985   8.188   4.318   0.691
    1SIL  O00lo 3986   8.140   4.506   0.872
    1SIL  Si0Nv 3987   7.749   4.908   0.393
    1SIL  Si0Nw 3988   7.503   4.882   0.755
    1SIL  Si0Nx 3989   7.849   4.682   0.574
    1SIL  O00lp 3990   7.649   4.858   0.819
    1SIL  O00lq 3991   7.696   5.046   0.457
    1SIL  O00lr 3992   7.509   4.993   0.638
    1SIL  O00ls 3993   7.755   4.797   0.510
    1SIL  O00lt 3994   7.942   4.744   0.691
    1SIL  O00lu 3995   7.895   4.932   0.872
    1SIL  Si0Ny 3996   7.503   5.334   0.393
    1SIL  Si0Nz 3997   7.257   5.307   0.755
    1SIL  Si0O0 3998   7.603   5.108   0.574
    1SIL  O00lv 3999   7.403   5.284   0.819
    1SIL  O00lw 4000   7.450   5.472   0.457
    1SIL  O00lx 4001   7.264   5.419   0.638
    1SIL  O00ly 4002   7.509   5.222   0.510
    1SIL  O00lz 4003   7.696   5.169   0.691
    1SIL  O00m0 4004   7.649   5.357   0.872
    1SIL  Si0O1 4005   7.257   5.759   0.393
    1SIL  Si0O2 4006   7.011   5.733   0.755
    1SIL  Si0O3 4007   7.357   5.533   0.574
    1SIL  O00m1 4008   7.157   5.709   0.819
    1SIL  O00m2 4009   7.205   5.898   0.457
    1SIL  O00m3 4010   7.018   5.844   0.638
    1SIL  O00m4 4011   7.264   5.648   0.510
    1SIL  O00m5 4012   7.450   5.595   0.691
    1SIL  O00m6 4013   7.403   5.783   0.872
    1SIL  Si0O4 4014   7.011   6.185   0.393
    1SIL  Si0O5 4015   6.766   6.159   0.755
    1SIL  Si0O6 4016   7.111   5.959   0.574
    1SIL  O00m7 4017   6.912   6.135   0.819
    1SIL  O00m8 4018   6.959   6.323   0.457
    1SIL  O00m9 4019   6.772   6.270   0.638
    1SIL  O00mA 4020   7.018   6.074   0.510
    1SIL  O00mB 4021   7.205   6.020   0.691
    1SIL  O00mC 4022   7.157   6.209   0.872
    1SIL  Si0O7 4023   6.766   6.611   0.393
    1SIL  Si0O8 4024   6.520   6.584   0.755
    1SIL  Si0O9 4025   6.866   6.385   0.574
    1SIL  O00mD 4026   6.666   6.561   0.819
    1SIL  O00mE 4027   6.713   6.749   0.457
    1SIL  O00mF 4028   6.526   6.696   0.638
    1SIL  O00mG 4029   6.772   6.499   0.510
    1SIL  O00mH 4030   6.959   6.446   0.691
    1SIL  O00mI 4031   6.912   6.634   0.872
    1SIL  Si0OA 4032   6.520   7.036   0.393
    1SIL  Si0OB 4033   6.274   7.010   0.755
    1SIL  Si0OC 4034   6.620   6.810   0.574
    1SIL  O00mJ 4035   6.420   6.986   0.819
    1SIL  O00mK 4036   6.467   7.175   0.457
    1SIL  O00mL 4037   6.281   7.121   0.638
    1SIL  O00mM 4038   6.526   6.925   0.510
    1SIL  O00mN 4039   6.713   6.872   0.691
    1SIL  O00mO 4040   6.666   7.060   0.872
    1SIL  Si0OD 4041   6.274   7.462   0.393
    1SIL  Si0OE 4042   6.028   7.436   0.755
    1SIL  Si0OF 4043   6.374   7.236   0.574
    1SIL  O00mP 4044   6.174   7.412   0.819
    1SIL  O00mQ 4045   6.222   7.600   0.457
    1SIL  O00mR 4046   6.035   7.547   0.638
    1SIL  O00mS 4047   6.281   7.351   0.510
    1SIL  O00mT 4048   6.467   7.297   0.691
    1SIL  O00mU 4049   6.420   7.486   0.872
    1SIL  Si0OG 4050   6.028   7.888   0.393
    1SIL  Si0OH 4051   5.783   7.861   0.755
    1SIL  Si0OI 4052   6.128   7.662   0.574
    1SIL  O00mV 4053   5.929   7.838   0.819
    1SIL  O00mW 4054   5.976   8.026   0.457
    1SIL  O00mX 4055   5.789   7.973   0.638
    1SIL  O00mY 4056   6.035   7.776   0.510
    1SIL  O00mZ 4057   6.222   7.723   0.691
    1SIL  O00ma 4058   6.174   7.911   0.872
    1SIL  Si0OJ 4059   5.783   8.313   0.393
    1SIL  Si0OK 4060   5.537   8.287   0.755
    1SIL  Si0OL 4061   5.883   8.087   0.574
    1SIL  O00mb 4062   5.683   8.263   0.819
    1SIL  O00mc 4063   5.730   8.452   0.457
    1SIL  O00md 4064   5.543   8.398   0.638
    1SIL  O00me 4065   5.789   8.202   0.510
    1SIL  O00mf 4066   5.976   8.149   0.691
    1SIL  O00mg 4067   5.929   8.337   0.872
    1SIL  Si0OM 4068   5.537   8.739   0.393
    1SIL  Si0ON 4069   5.291   8.713   0.755
    1SIL  Si0OO 4070   5.637   8.513   0.574
    1SIL  O00mh 4071   5.437   8.689   0.819
    1SIL  O00mi 4072   5.484   8.877   0.457
    1SIL  O00mj 4073   5.298   8.824   0.638
    1SIL  O00mk 4074   5.543   8.628   0.510
    1SIL  O00ml 4075   5.730   8.574   0.691
    1SIL  O00mm 4076   5.683   8.763   0.872
    1SIL  Si0OP 4077   5.291   9.165   0.393
    1SIL  Si0OQ 4078   5.045   9.138   0.755
    1SIL  Si0OR 4079   5.391   8.939   0.574
    1SIL  O00mn 4080   5.191   9.115   0.819
    1SIL  O00mo 4081   5.239   9.303   0.457
    1SIL  O00mp 4082   5.052   9.250   0.638
    1SIL  O00mq 4083   5.298   9.053   0.510
    1SIL  O00mr 4084   5.484   9.000   0.691
    1SIL  O00ms 4085   5.437   9.188   0.872
    1SIL  Si0OS 4086   5.045   9.590   0.393
    1SIL  Si0OT 4087   4.800   9.564   0.755
    1SIL  Si0OU 4088   5.145   9.364   0.574
    1SIL  O00mt 4089   4.946   9.540   0.819
    1SIL  O00mu 4090   4.993   9.729   0.457
    1SIL  O00mv 4091   4.806   9.675   0.638
    1SIL  O00mw 4092   5.052   9.479   0.510
    1SIL  O00mx 4093   5.239   9.426   0.691
    1SIL  O00my 4094   5.191   9.614   0.872
    1SIL  Si0OV 4095   1.114   0.226   0.393
    1SIL  Si0OW 4096   0.868   0.200   0.755
    1SIL  Si0OX 4097   1.213   0.000   0.574
    1SIL  O00mz 4098   1.014   0.176   0.819
    1SIL  O00n0 4099   1.061   0.364   0.457
    1SIL  O00n1 4100   0.874   0.311   0.638
    1SIL  O00n2 4101   1.120   0.115   0.510
    1SIL  O00n3 4102   1.307   0.061   0.691
    1SIL  O00n4 4103   1.259   0.250   0.872
    1SIL  Si0OY 4104   0.868   0.652   0.393
    1SIL  Si0OZ 4105   0.622   0.625   0.755
    1SIL  Si0Oa 4106   0.968   0.426   0.574
    1SIL  O00n5 4107   0.768   0.602   0.819
    1SIL  O00n6 4108   0.815   0.790   0.457
    1SIL  O00n7 4109   0.629   0.737   0.638
    1SIL  O00n8 4110   0.874   0.540   0.510
    1SIL  O00n9 4111   1.061   0.487   0.691
    1SIL  O00nA 4112   1.014   0.675   0.872
    1SIL  Si0Ob 4113   0.622   1.077   0.393
    1SIL  Si0Oc 4114   0.376   1.051   0.755
    1SIL  Si0Od 4115   0.722   0.851   0.574
    1SIL  O00nB 4116   0.522   1.027   0.819
    1SIL  O00nC 4117   0.569   1.216   0.457
    1SIL  O00nD 4118   0.383   1.162   0.638
    1SIL  O00nE 4119   0.629   0.966   0.510
    1SIL  O00nF 4120   0.815   0.913   0.691
    1SIL  O00nG 4121   0.768   1.101   0.872
    1SIL  Si0Oe 4122   0.376   1.503   0.393
    1SIL  Si0Of 4123   0.131   1.477   0.755
    1SIL  Si0Og 4124   0.476   1.277   0.574
    1SIL  O00nH 4125   0.276   1.453   0.819
    1SIL  O00nI 4126   0.324   1.641   0.457
    1SIL  O00nJ 4127   0.137   1.588   0.638
    1SIL  O00nK 4128   0.383   1.392   0.510
    1SIL  O00nL 4129   0.569   1.338   0.691
    1SIL  O00nM 4130   0.522   1.527   0.872
    1SIL  Si0Oh 4131   0.131   1.929   0.393
    1SIL  Si0Oi 4132   9.715   1.902   0.755
    1SIL  Si0Oj 4133   0.230   1.703   0.574
    1SIL  O00nN 4134   0.031   1.879   0.819
    1SIL  O00nO 4135   0.078   2.067   0.457
    1SIL  O00nP 4136   9.721   2.014   0.638
    1SIL  O00nQ 4137   0.137   1.817   0.510
    1SIL  O00nR 4138   0.324   1.764   0.691
    1SIL  O00nS 4139   0.276   1.952   0.872
    1SIL  Si0Ok 4140   9.715   2.354   0.393
    1SIL  Si0Ol 4141   9.469   2.328   0.755
    1SIL  Si0Om 4142   9.815   2.128   0.574
    1SIL  O00nT 4143   9.615   2.304   0.819
    1SIL  O00nU 4144   9.662   2.493   0.457
    1SIL  O00nV 4145   9.475   2.439   0.638
    1SIL  O00nW 4146   9.721   2.243   0.510
    1SIL  O00nX 4147   0.078   2.190   0.691
    1SIL  O00nY 4148   0.031   2.378   0.872
    1SIL  Si0On 4149   9.469   2.780   0.393
    1SIL  Si0Oo 4150   9.223   2.753   0.755
    1SIL  Si0Op 4151   9.569   2.554   0.574
    1SIL  O00nZ 4152   9.369   2.730   0.819
    1SIL  O00na 4153   9.416   2.918   0.457
    1SIL  O00nb 4154   9.230   2.865   0.638
    1SIL  O00nc 4155   9.475   2.668   0.510
    1SIL  O00nd 4156   9.662   2.615   0.691
    1SIL  O00ne 4157   9.615   2.804   0.872
    1SIL  Si0Oq 4158   9.223   3.206   0.393
    1SIL  Si0Or 4159   8.977   3.179   0.755
    1SIL  Si0Os 4160   9.323   2.980   0.574
    1SIL  O00nf 4161   9.123   3.156   0.819
    1SIL  O00ng 4162   9.171   3.344   0.457
    1SIL  O00nh 4163   8.984   3.291   0.638
    1SIL  O00ni 4164   9.230   3.094   0.510
    1SIL  O00nj 4165   9.416   3.041   0.691
    1SIL  O00nk 4166   9.369   3.229   0.872
    1SIL  Si0Ot 4167   8.977   3.631   0.393
    1SIL  Si0Ou 4168   8.732   3.605   0.755
    1SIL  Si0Ov 4169   9.077   3.405   0.574
    1SIL  O00nl 4170   8.878   3.581   0.819
    1SIL  O00nm 4171   8.925   3.769   0.457
    1SIL  O00nn 4172   8.738   3.716   0.638
    1SIL  O00no 4173   8.984   3.520   0.510
    1SIL  O00np 4174   9.171   3.467   0.691
    1SIL  O00nq 4175   9.123   3.655   0.872
    1SIL  Si0Ow 4176   8.732   4.057   0.393
    1SIL  Si0Ox 4177   8.486   4.030   0.755
    1SIL  Si0Oy 4178   8.832   3.831   0.574
    1SIL  O00nr 4179   8.632   4.007   0.819
    1SIL  O00ns 4180   8.679   4.195   0.457
    1SIL  O00nt 4181   8.492   4.142   0.638
    1SIL  O00nu 4182   8.738   3.945   0.510
    1SIL  O00nv 4183   8.925   3.892   0.691
    1SIL  O00nw 4184   8.878   4.081   0.872
    1SIL  Si0Oz 4185   8.486   4.483   0.393
    1SIL  Si0P0 4186   8.240   4.456   0.755
    1SIL  Si0P1 4187   8.586   4.256   0.574
    1SIL  O00nx 4188   8.386   4.432   0.819
    1SIL  O00ny 4189   8.433   4.621   0.457
    1SIL  O00nz 4190   8.247   4.568   0.638
    1SIL  O00o0 4191   8.492   4.371   0.510
    1SIL  O00o1 4192   8.679   4.318   0.691
    1SIL  O00o2 4193   8.632   4.506   0.872
    1SIL  Si0P2 4194   8.240   4.908   0.393
    1SIL  Si0P3 4195   7.994   4.882   0.755
    1SIL  Si0P4 4196   8.340   4.682   0.574
    1SIL  O00o3 4197   8.140   4.858   0.819
    1SIL  O00o4 4198   8.188   5.046   0.457
    1SIL  O00o5 4199   8.001   4.993   0.638
    1SIL  O00o6 4200   8.247   4.797   0.510
    1SIL  O00o7 4201   8.433   4.744   0.691
    1SIL  O00o8 4202   8.386   4.932   0.872
    1SIL  Si0P5 4203   7.994   5.334   0.393
    1SIL  Si0P6 4204   7.749   5.307   0.755
    1SIL  Si0P7 4205   8.094   5.108   0.574
    1SIL  O00o9 4206   7.895   5.284   0.819
    1SIL  O00oA 4207   7.942   5.472   0.457
    1SIL  O00oB 4208   7.755   5.419   0.638
    1SIL  O00oC 4209   8.001   5.222   0.510
    1SIL  O00oD 4210   8.188   5.169   0.691
    1SIL  O00oE 4211   8.140   5.357   0.872
    1SIL  Si0P8 4212   7.749   5.759   0.393
    1SIL  Si0P9 4213   7.503   5.733   0.755
    1SIL  Si0PA 4214   7.849   5.533   0.574
    1SIL  O00oF 4215   7.649   5.709   0.819
    1SIL  O00oG 4216   7.696   5.898   0.457
    1SIL  O00oH 4217   7.509   5.844   0.638
    1SIL  O00oI 4218   7.755   5.648   0.510
    1SIL  O00oJ 4219   7.942   5.595   0.691
    1SIL  O00oK 4220   7.895   5.783   0.872
    1SIL  Si0PB 4221   7.503   6.185   0.393
    1SIL  Si0PC 4222   7.257   6.159   0.755
    1SIL  Si0PD 4223   7.603   5.959   0.574
    1SIL  O00oL 4224   7.403   6.135   0.819
    1SIL  O00oM 4225   7.450   6.323   0.457
    1SIL  O00oN 4226   7.264   6.270   0.638
    1SIL  O00oO 4227   7.509   6.074   0.510
    1SIL  O00oP 4228   7.696   6.020   0.691
    1SIL  O00oQ 4229   7.649   6.209   0.872
    1SIL  Si0PE 4230   7.257   6.611   0.393
    1SIL  Si0PF 4231   7.011   6.584   0.755
    1SIL  Si0PG 4232   7.357   6.385   0.574
    1SIL  O00oR 4233   7.157   6.561   0.819
    1SIL  O00oS 4234   7.205   6.749   0.457
    1SIL  O00oT 4235   7.018   6.696   0.638
    1SIL  O00oU 4236   7.264   6.499   0.510
    1SIL  O00oV 4237   7.450   6.446   0.691
    1SIL  O00oW 4238   7.403   6.634   0.872
    1SIL  Si0PH 4239   7.011   7.036   0.393
    1SIL  Si0PI 4240   6.766   7.010   0.755
    1SIL  Si0PJ 4241   7.111   6.810   0.574
    1SIL  O00oX 4242   6.912   6.986   0.819
    1SIL  O00oY 4243   6.959   7.175   0.457
    1SIL  O00oZ 4244   6.772   7.121   0.638
    1SIL  O00oa 4245   7.018   6.925   0.510
    1SIL  O00ob 4246   7.205   6.872   0.691
    1SIL  O00oc 4247   7.157   7.060   0.872
    1SIL  Si0PK 4248   6.766   7.462   0.393
    1SIL  Si0PL 4249   6.520   7.436   0.755
    1SIL  Si0PM 4250   6.866   7.236   0.574
    1SIL  O00od 4251   6.666   7.412   0.819
    1SIL  O00oe 4252   6.713   7.600   0.457
    1SIL  O00of 4253   6.526   7.547   0.638
    1SIL  O00og 4254   6.772   7.351   0.510
    1SIL  O00oh 4255   6.959   7.297   0.691
    1SIL  O00oi 4256   6.912   7.486   0.872
    1SIL  Si0PN 4257   6.520   7.888   0.393
    1SIL  Si0PO 4258   6.274   7.861   0.755
    1SIL  Si0PP 4259   6.620   7.662   0.574
    1SIL  O00oj 4260   6.420   7.838   0.819
    1SIL  O00ok 4261   6.467   8.026   0.457
    1SIL  O00ol 4262   6.281   7.973   0.638
    1SIL  O00om 4263   6.526   7.776   0.510
    1SIL  O00on 4264   6.713   7.723   0.691
    1SIL  O00oo 4265   6.666   7.911   0.872
    1SIL  Si0PQ 4266   6.274   8.313   0.393
    1SIL  Si0PR 4267   6.028   8.287   0.755
    1SIL  Si0PS 4268   6.374   8.087   0.574
    1SIL  O00op 4269   6.174   8.263   0.819
    1SIL  O00oq 4270   6.222   8.452   0.457
    1SIL  O00or 4271   6.035   8.398   0.638
    1SIL  O00os 4272   6.281   8.202   0.510
    1SIL  O00ot 4273   6.467   8.149   0.691
    1SIL  O00ou 4274   6.420   8.337   0.872
    1SIL  Si0PT 4275   6.028   8.739   0.393
    1SIL  Si0PU 4276   5.783   8.713   0.755
    1SIL  Si0PV 4277   6.128   8.513   0.574
    1SIL  O00ov 4278   5.929   8.689   0.819
    1SIL  O00ow 4279   5.976   8.877   0.457
    1SIL  O00ox 4280   5.789   8.824   0.638
    1SIL  O00oy 4281   6.035   8.628   0.510
    1SIL  O00oz 4282   6.222   8.574   0.691
    1SIL  O00p0 4283   6.174   8.763   0.872
    1SIL  Si0PW 4284   5.783   9.165   0.393
    1SIL  Si0PX 4285   5.537   9.138   0.755
    1SIL  Si0PY 4286   5.883   8.939   0.574
    1SIL  O00p1 4287   5.683   9.115   0.819
    1SIL  O00p2 4288   5.730   9.303   0.457
    1SIL  O00p3 4289   5.543   9.250   0.638
    1SIL  O00p4 4290   5.789   9.053   0.510
    1SIL  O00p5 4291   5.976   9.000   0.691
    1SIL  O00p6 4292   5.929   9.188   0.872
    1SIL  Si0PZ 4293   5.537   9.590   0.393
    1SIL  Si0Pa 4294   5.291   9.564   0.755
    1SIL  Si0Pb 4295   5.637   9.364   0.574
    1SIL  O00p7 4296   5.437   9.540   0.819
    1SIL  O00p8 4297   5.484   9.729   0.457
    1SIL  O00p9 4298   5.298   9.675   0.638
    1SIL  O00pA 4299   5.543   9.479   0.510
    1SIL  O00pB 4300   5.730   9.426   0.691
    1SIL  O00pC 4301   5.683   9.614   0.872
    1SIL  Si0Pc 4302   1.605   0.226   0.393
    1SIL  Si0Pd 4303   1.359   0.200   0.755
    1SIL  Si0Pe 4304   1.705   0.000   0.574
    1SIL  O00pD 4305   1.505   0.176   0.819
    1SIL  O00pE 4306   1.552   0.364   0.457
    1SIL  O00pF 4307   1.366   0.311   0.638
    1SIL  O00pG 4308   1.612   0.115   0.510
    1SIL  O00pH 4309   1.798   0.061   0.691
    1SIL  O00pI 4310   1.751   0.250   0.872
    1SIL  Si0Pf 4311   1.359   0.652   0.393
    1SIL  Si0Pg 4312   1.114   0.625   0.755
    1SIL  Si0Ph 4313   1.459   0.426   0.574
    1SIL  O00pJ 4314   1.259   0.602   0.819
    1SIL  O00pK 4315   1.307   0.790   0.457
    1SIL  O00pL 4316   1.120   0.737   0.638
    1SIL  O00pM 4317   1.366   0.540   0.510
    1SIL  O00pN 4318   1.552   0.487   0.691
    1SIL  O00pO 4319   1.505   0.675   0.872
    1SIL  Si0Pi 4320   1.114   1.077   0.393
    1SIL  Si0Pj 4321   0.868   1.051   0.755
    1SIL  Si0Pk 4322   1.213   0.851   0.574
    1SIL  O00pP 4323   1.014   1.027   0.819
    1SIL  O00pQ 4324   1.061   1.216   0.457
    1SIL  O00pR 4325   0.874   1.162   0.638
    1SIL  O00pS 4326   1.120   0.966   0.510
    1SIL  O00pT 4327   1.307   0.913   0.691
    1SIL  O00pU 4328   1.259   1.101   0.872
    1SIL  Si0Pl 4329   0.868   1.503   0.393
    1SIL  Si0Pm 4330   0.622   1.477   0.755
    1SIL  Si0Pn 4331   0.968   1.277   0.574
    1SIL  O00pV 4332   0.768   1.453   0.819
    1SIL  O00pW 4333   0.815   1.641   0.457
    1SIL  O00pX 4334   0.629   1.588   0.638
    1SIL  O00pY 4335   0.874   1.392   0.510
    1SIL  O00pZ 4336   1.061   1.338   0.691
    1SIL  O00pa 4337   1.014   1.527   0.872
    1SIL  Si0Po 4338   0.622   1.929   0.393
    1SIL  Si0Pp 4339   0.376   1.902   0.755
    1SIL  Si0Pq 4340   0.722   1.703   0.574
    1SIL  O00pb 4341   0.522   1.879   0.819
    1SIL  O00pc 4342   0.569   2.067   0.457
    1SIL  O00pd 4343   0.383   2.014   0.638
    1SIL  O00pe 4344   0.629   1.817   0.510
    1SIL  O00pf 4345   0.815   1.764   0.691
    1SIL  O00pg 4346   0.768   1.952   0.872
    1SIL  Si0Pr 4347   0.376   2.354   0.393
    1SIL  Si0Ps 4348   0.131   2.328   0.755
    1SIL  Si0Pt 4349   0.476   2.128   0.574
    1SIL  O00ph 4350   0.276   2.304   0.819
    1SIL  O00pi 4351   0.324   2.493   0.457
    1SIL  O00pj 4352   0.137   2.439   0.638
    1SIL  O00pk 4353   0.383   2.243   0.510
    1SIL  O00pl 4354   0.569   2.190   0.691
    1SIL  O00pm 4355   0.522   2.378   0.872
    1SIL  Si0Pu 4356   0.131   2.780   0.393
    1SIL  Si0Pv 4357   9.715   2.753   0.755
    1SIL  Si0Pw 4358   0.230   2.554   0.574
    1SIL  O00pn 4359   0.031   2.730   0.819
    1SIL  O00po 4360   0.078   2.918   0.457
    1SIL  O00pp 4361   9.721   2.865   0.638
    1SIL  O00pq 4362   0.137   2.668   0.510
    1SIL  O00pr 4363   0.324   2.615   0.691
    1SIL  O00ps 4364   0.276   2.804   0.872
    1SIL  Si0Px 4365   9.715   3.206   0.393
    1SIL  Si0Py 4366   9.469   3.179   0.755
    1SIL  Si0Pz 4367   9.815   2.980   0.574
    1SIL  O00pt 4368   9.615   3.156   0.819
    1SIL  O00pu 4369   9.662   3.344   0.457
    1SIL  O00pv 4370   9.475   3.291   0.638
    1SIL  O00pw 4371   9.721   3.094   0.510
    1SIL  O00px 4372   0.078   3.041   0.691
    1SIL  O00py 4373   0.031   3.229   0.872
    1SIL  Si0Q0 4374   9.469   3.631   0.393
    1SIL  Si0Q1 4375   9.223   3.605   0.755
    1SIL  Si0Q2 4376   9.569   3.405   0.574
    1SIL  O00pz 4377   9.369   3.581   0.819
    1SIL  O00q0 4378   9.416   3.769   0.457
    1SIL  O00q1 4379   9.230   3.716   0.638
    1SIL  O00q2 4380   9.475   3.520   0.510
    1SIL  O00q3 4381   9.662   3.467   0.691
    1SIL  O00q4 4382   9.615   3.655   0.872
    1SIL  Si0Q3 4383   9.223   4.057   0.393
    1SIL  Si0Q4 4384   8.977   4.030   0.755
    1SIL  Si0Q5 4385   9.323   3.831   0.574
    1SIL  O00q5 4386   9.123   4.007   0.819
    1SIL  O00q6 4387   9.171   4.195   0.457
    1SIL  O00q7 4388   8.984   4.142   0.638
    1SIL  O00q8 4389   9.230   3.945   0.510
    1SIL  O00q9 4390   9.416   3.892   0.691
    1SIL  O00qA 4391   9.369   4.081   0.872
    1SIL  Si0Q6 4392   8.977   4.483   0.393
    1SIL  Si0Q7 4393   8.732   4.456   0.755
    1SIL  Si0Q8 4394   9.077   4.256   0.574
    1SIL  O00qB 4395   8.878   4.432   0.819
    1SIL  O00qC 4396   8.925   4.621   0.457
    1SIL  O00qD 4397   8.738   4.568   0.638
    1SIL  O00qE 4398   8.984   4.371   0.510
    1SIL  O00qF 4399   9.171   4.318   0.691
    1SIL  O00qG 4400   9.123   4.506   0.872
    1SIL  Si0Q9 4401   8.732   4.908   0.393
    1SIL  Si0QA 4402   8.486   4.882   0.755
    1SIL  Si0QB 4403   8.832   4.682   0.574
    1SIL  O00qH 4404   8.632   4.858   0.819
    1SIL  O00qI 4405   8.679   5.046   0.457
    1SIL  O00qJ 4406   8.492   4.993   0.638
    1SIL  O00qK 4407   8.738   4.797   0.510
    1SIL  O00qL 4408   8.925   4.744   0.691
    1SIL  O00qM 4409   8.878   4.932   0.872
    1SIL  Si0QC 4410   8.486   5.334   0.393
    1SIL  Si0QD 4411   8.240   5.307   0.755
    1SIL  Si0QE 4412   8.586   5.108   0.574
    1SIL  O00qN 4413   8.386   5.284   0.819
    1SIL  O00qO 4414   8.433   5.472   0.457
    1SIL  O00qP 4415   8.247   5.419   0.638
    1SIL  O00qQ 4416   8.492   5.222   0.510
    1SIL  O00qR 4417   8.679   5.169   0.691
    1SIL  O00qS 4418   8.632   5.357   0.872
    1SIL  Si0QF 4419   8.240   5.759   0.393
    1SIL  Si0QG 4420   7.994   5.733   0.755
    1SIL  Si0QH 4421   8.340   5.533   0.574
    1SIL  O00qT 4422   8.140   5.709   0.819
    1SIL  O00qU 4423   8.188   5.898   0.457
    1SIL  O00qV 4424   8.001   5.844   0.638
    1SIL  O00qW 4425   8.247   5.648   0.510
    1SIL  O00qX 4426   8.433   5.595   0.691
    1SIL  O00qY 4427   8.386   5.783   0.872
    1SIL  Si0QI 4428   7.994   6.185   0.393
    1SIL  Si0QJ 4429   7.749   6.159   0.755
    1SIL  Si0QK 4430   8.094   5.959   0.574
    1SIL  O00qZ 4431   7.895   6.135   0.819
    1SIL  O00qa 4432   7.942   6.323   0.457
    1SIL  O00qb 4433   7.755   6.270   0.638
    1SIL  O00qc 4434   8.001   6.074   0.510
    1SIL  O00qd 4435   8.188   6.020   0.691
    1SIL  O00qe 4436   8.140   6.209   0.872
    1SIL  Si0QL 4437   7.749   6.611   0.393
    1SIL  Si0QM 4438   7.503   6.584   0.755
    1SIL  Si0QN 4439   7.849   6.385   0.574
    1SIL  O00qf 4440   7.649   6.561   0.819
    1SIL  O00qg 4441   7.696   6.749   0.457
    1SIL  O00qh 4442   7.509   6.696   0.638
    1SIL  O00qi 4443   7.755   6.499   0.510
    1SIL  O00qj 4444   7.942   6.446   0.691
    1SIL  O00qk 4445   7.895   6.634   0.872
    1SIL  Si0QO 4446   7.503   7.036   0.393
    1SIL  Si0QP 4447   7.257   7.010   0.755
    1SIL  Si0QQ 4448   7.603   6.810   0.574
    1SIL  O00ql 4449   7.403   6.986   0.819
    1SIL  O00qm 4450   7.450   7.175   0.457
    1SIL  O00qn 4451   7.264   7.121   0.638
    1SIL  O00qo 4452   7.509   6.925   0.510
    1SIL  O00qp 4453   7.696   6.872   0.691
    1SIL  O00qq 4454   7.649   7.060   0.872
    1SIL  Si0QR 4455   7.257   7.462   0.393
    1SIL  Si0QS 4456   7.011   7.436   0.755
    1SIL  Si0QT 4457   7.357   7.236   0.574
    1SIL  O00qr 4458   7.157   7.412   0.819
    1SIL  O00qs 4459   7.205   7.600   0.457
    1SIL  O00qt 4460   7.018   7.547   0.638
    1SIL  O00qu 4461   7.264   7.351   0.510
    1SIL  O00qv 4462   7.450   7.297   0.691
    1SIL  O00qw 4463   7.403   7.486   0.872
    1SIL  Si0QU 4464   7.011   7.888   0.393
    1SIL  Si0QV 4465   6.766   7.861   0.755
    1SIL  Si0QW 4466   7.111   7.662   0.574
    1SIL  O00qx 4467   6.912   7.838   0.819
    1SIL  O00qy 4468   6.959   8.026   0.457
    1SIL  O00qz 4469   6.772   7.973   0.638
    1SIL  O00r0 4470   7.018   7.776   0.510
    1SIL  O00r1 4471   7.205   7.723   0.691
    1SIL  O00r2 4472   7.157   7.911   0.872
    1SIL  Si0QX 4473   6.766   8.313   0.393
    1SIL  Si0QY 4474   6.520   8.287   0.755
    1SIL  Si0QZ 4475   6.866   8.087   0.574
    1SIL  O00r3 4476   6.666   8.263   0.819
    1SIL  O00r4 4477   6.713   8.452   0.457
    1SIL  O00r5 4478   6.526   8.398   0.638
    1SIL  O00r6 4479   6.772   8.202   0.510
    1SIL  O00r7 4480   6.959   8.149   0.691
    1SIL  O00r8 4481   6.912   8.337   0.872
    1SIL  Si0Qa 4482   6.520   8.739   0.393
    1SIL  Si0Qb 4483   6.274   8.713   0.755
    1SIL  Si0Qc 4484   6.620   8.513   0.574
    1SIL  O00r9 4485   6.420   8.689   0.819
    1SIL  O00rA 4486   6.467   8.877   0.457
    1SIL  O00rB 4487   6.281   8.824   0.638
    1SIL  O00rC 4488   6.526   8.628   0.510
    1SIL  O00rD 4489   6.713   8.574   0.691
    1SIL  O00rE 4490   6.666   8.763   0.872
    1SIL  Si0Qd 4491   6.274   9.165   0.393
    1SIL  Si0Qe 4492   6.028   9.138   0.755
    1SIL  Si0Qf 4493   6.374   8.939   0.574
    1SIL  O00rF 4494   6.174   9.115   0.819
    1SIL  O00rG 4495   6.222   9.303   0.457
    1SIL  O00rH 4496   6.035   9.250   0.638
    1SIL  O00rI 4497   6.281   9.053   0.510
    1SIL  O00rJ 4498   6.467   9.000   0.691
    1SIL  O00rK 4499   6.420   9.188   0.872
    1SIL  Si0Qg 4500   6.028   9.590   0.393
    1SIL  Si0Qh 4501   5.783   9.564   0.755
    1SIL  Si0Qi 4502   6.128   9.364   0.574
    1SIL  O00rL 4503   5.929   9.540   0.819
    1SIL  O00rM 4504   5.976   9.729   0.457
    1SIL  O00rN 4505   5.789   9.675   0.638
    1SIL  O00rO 4506   6.035   9.479   0.510
    1SIL  O00rP 4507   6.222   9.426   0.691
    1SIL  O00rQ 4508   6.174   9.614   0.872
    1SIL  Si0Qj 4509   2.097   0.226   0.393
    1SIL  Si0Qk 4510   1.851   0.200   0.755
    1SIL  Si0Ql 4511   2.196   0.000   0.574
    1SIL  O00rR 4512   1.997   0.176   0.819
    1SIL  O00rS 4513   2.044   0.364   0.457
    1SIL  O00rT 4514   1.857   0.311   0.638
    1SIL  O00rU 4515   2.103   0.115   0.510
    1SIL  O00rV 4516   2.290   0.061   0.691
    1SIL  O00rW 4517   2.242   0.250   0.872
    1SIL  Si0Qm 4518   1.851   0.652   0.393
    1SIL  Si0Qn 4519   1.605   0.625   0.755
    1SIL  Si0Qo 4520   1.951   0.426   0.574
    1SIL  O00rX 4521   1.751   0.602   0.819
    1SIL  O00rY 4522   1.798   0.790   0.457
    1SIL  O00rZ 4523   1.612   0.737   0.638
    1SIL  O00ra 4524   1.857   0.540   0.510
    1SIL  O00rb 4525   2.044   0.487   0.691
    1SIL  O00rc 4526   1.997   0.675   0.872
    1SIL  Si0Qp 4527   1.605   1.077   0.393
    1SIL  Si0Qq 4528   1.359   1.051   0.755
    1SIL  Si0Qr 4529   1.705   0.851   0.574
    1SIL  O00rd 4530   1.505   1.027   0.819
    1SIL  O00re 4531   1.552   1.216   0.457
    1SIL  O00rf 4532   1.366   1.162   0.638
    1SIL  O00rg 4533   1.612   0.966   0.510
    1SIL  O00rh 4534   1.798   0.913   0.691
    1SIL  O00ri 4535   1.751   1.101   0.872
    1SIL  Si0Qs 4536   1.359   1.503   0.393
    1SIL  Si0Qt 4537   1.114   1.477   0.755
    1SIL  Si0Qu 4538   1.459   1.277   0.574
    1SIL  O00rj 4539   1.259   1.453   0.819
    1SIL  O00rk 4540   1.307   1.641   0.457
    1SIL  O00rl 4541   1.120   1.588   0.638
    1SIL  O00rm 4542   1.366   1.392   0.510
    1SIL  O00rn 4543   1.552   1.338   0.691
    1SIL  O00ro 4544   1.505   1.527   0.872
    1SIL  Si0Qv 4545   1.114   1.929   0.393
    1SIL  Si0Qw 4546   0.868   1.902   0.755
    1SIL  Si0Qx 4547   1.213   1.703   0.574
    1SIL  O00rp 4548   1.014   1.879   0.819
    1SIL  O00rq 4549   1.061   2.067   0.457
    1SIL  O00rr 4550   0.874   2.014   0.638
    1SIL  O00rs 4551   1.120   1.817   0.510
    1SIL  O00rt 4552   1.307   1.764   0.691
    1SIL  O00ru 4553   1.259   1.952   0.872
    1SIL  Si0Qy 4554   0.868   2.354   0.393
    1SIL  Si0Qz 4555   0.622   2.328   0.755
    1SIL  Si0R0 4556   0.968   2.128   0.574
    1SIL  O00rv 4557   0.768   2.304   0.819
    1SIL  O00rw 4558   0.815   2.493   0.457
    1SIL  O00rx 4559   0.629   2.439   0.638
    1SIL  O00ry 4560   0.874   2.243   0.510
    1SIL  O00rz 4561   1.061   2.190   0.691
    1SIL  O00s0 4562   1.014   2.378   0.872
    1SIL  Si0R1 4563   0.622   2.780   0.393
    1SIL  Si0R2 4564   0.376   2.753   0.755
    1SIL  Si0R3 4565   0.722   2.554   0.574
    1SIL  O00s1 4566   0.522   2.730   0.819
    1SIL  O00s2 4567   0.569   2.918   0.457
    1SIL  O00s3 4568   0.383   2.865   0.638
    1SIL  O00s4 4569   0.629   2.668   0.510
    1SIL  O00s5 4570   0.815   2.615   0.691
    1SIL  O00s6 4571   0.768   2.804   0.872
    1SIL  Si0R4 4572   0.376   3.206   0.393
    1SIL  Si0R5 4573   0.131   3.179   0.755
    1SIL  Si0R6 4574   0.476   2.980   0.574
    1SIL  O00s7 4575   0.276   3.156   0.819
    1SIL  O00s8 4576   0.324   3.344   0.457
    1SIL  O00s9 4577   0.137   3.291   0.638
    1SIL  O00sA 4578   0.383   3.094   0.510
    1SIL  O00sB 4579   0.569   3.041   0.691
    1SIL  O00sC 4580   0.522   3.229   0.872
    1SIL  Si0R7 4581   0.131   3.631   0.393
    1SIL  Si0R8 4582   9.715   3.605   0.755
    1SIL  Si0R9 4583   0.230   3.405   0.574
    1SIL  O00sD 4584   0.031   3.581   0.819
    1SIL  O00sE 4585   0.078   3.769   0.457
    1SIL  O00sF 4586   9.721   3.716   0.638
    1SIL  O00sG 4587   0.137   3.520   0.510
    1SIL  O00sH 4588   0.324   3.467   0.691
    1SIL  O00sI 4589   0.276   3.655   0.872
    1SIL  Si0RA 4590   9.715   4.057   0.393
    1SIL  Si0RB 4591   9.469   4.030   0.755
    1SIL  Si0RC 4592   9.815   3.831   0.574
    1SIL  O00sJ 4593   9.615   4.007   0.819
    1SIL  O00sK 4594   9.662   4.195   0.457
    1SIL  O00sL 4595   9.475   4.142   0.638
    1SIL  O00sM 4596   9.721   3.945   0.510
    1SIL  O00sN 4597   0.078   3.892   0.691
    1SIL  O00sO 4598   0.031   4.081   0.872
    1SIL  Si0RD 4599   9.469   4.483   0.393
    1SIL  Si0RE 4600   9.223   4.456   0.755
    1SIL  Si0RF 4601   9.569   4.256   0.574
    1SIL  O00sP 4602   9.369   4.432   0.819
    1SIL  O00sQ 4603   9.416   4.621   0.457
    1SIL  O00sR 4604   9.230   4.568   0.638
    1SIL  O00sS 4605   9.475   4.371   0.510
    1SIL  O00sT 4606   9.662   4.318   0.691
    1SIL  O00sU 4607   9.615   4.506   0.872
    1SIL  Si0RG 4608   9.223   4.908   0.393
    1SIL  Si0RH 4609   8.977   4.882   0.755
    1SIL  Si0RI 4610   9.323   4.682   0.574
    1SIL  O00sV 4611   9.123   4.858   0.819
    1SIL  O00sW 4612   9.171   5.046   0.457
    1SIL  O00sX 4613   8.984   4.993   0.638
    1SIL  O00sY 4614   9.230   4.797   0.510
    1SIL  O00sZ 4615   9.416   4.744   0.691
    1SIL  O00sa 4616   9.369   4.932   0.872
    1SIL  Si0RJ 4617   8.977   5.334   0.393
    1SIL  Si0RK 4618   8.732   5.307   0.755
    1SIL  Si0RL 4619   9.077   5.108   0.574
    1SIL  O00sb 4620   8.878   5.284   0.819
    1SIL  O00sc 4621   8.925   5.472   0.457
    1SIL  O00sd 4622   8.738   5.419   0.638
    1SIL  O00se 4623   8.984   5.222   0.510
    1SIL  O00sf 4624   9.171   5.169   0.691
    1SIL  O00sg 4625   9.123   5.357   0.872
    1SIL  Si0RM 4626   8.732   5.759   0.393
    1SIL  Si0RN 4627   8.486   5.733   0.755
    1SIL  Si0RO 4628   8.832   5.533   0.574
    1SIL  O00sh 4629   8.632   5.709   0.819
    1SIL  O00si 4630   8.679   5.898   0.457
    1SIL  O00sj 4631   8.492   5.844   0.638
    1SIL  O00sk 4632   8.738   5.648   0.510
    1SIL  O00sl 4633   8.925   5.595   0.691
    1SIL  O00sm 4634   8.878   5.783   0.872
    1SIL  Si0RP 4635   8.486   6.185   0.393
    1SIL  Si0RQ 4636   8.240   6.159   0.755
    1SIL  Si0RR 4637   8.586   5.959   0.574
    1SIL  O00sn 4638   8.386   6.135   0.819
    1SIL  O00so 4639   8.433   6.323   0.457
    1SIL  O00sp 4640   8.247   6.270   0.638
    1SIL  O00sq 4641   8.492   6.074   0.510
    1SIL  O00sr 4642   8.679   6.020   0.691
    1SIL  O00ss 4643   8.632   6.209   0.872
    1SIL  Si0RS 4644   8.240   6.611   0.393
    1SIL  Si0RT 4645   7.994   6.584   0.755
    1SIL  Si0RU 4646   8.340   6.385   0.574
    1SIL  O00st 4647   8.140   6.561   0.819
    1SIL  O00su 4648   8.188   6.749   0.457
    1SIL  O00sv 4649   8.001   6.696   0.638
    1SIL  O00sw 4650   8.247   6.499   0.510
    1SIL  O00sx 4651   8.433   6.446   0.691
    1SIL  O00sy 4652   8.386   6.634   0.872
    1SIL  Si0RV 4653   7.994   7.036   0.393
    1SIL  Si0RW 4654   7.749   7.010   0.755
    1SIL  Si0RX 4655   8.094   6.810   0.574
    1SIL  O00sz 4656   7.895   6.986   0.819
    1SIL  O00t0 4657   7.942   7.175   0.457
    1SIL  O00t1 4658   7.755   7.121   0.638
    1SIL  O00t2 4659   8.001   6.925   0.510
    1SIL  O00t3 4660   8.188   6.872   0.691
    1SIL  O00t4 4661   8.140   7.060   0.872
    1SIL  Si0RY 4662   7.749   7.462   0.393
    1SIL  Si0RZ 4663   7.503   7.436   0.755
    1SIL  Si0Ra 4664   7.849   7.236   0.574
    1SIL  O00t5 4665   7.649   7.412   0.819
    1SIL  O00t6 4666   7.696   7.600   0.457
    1SIL  O00t7 4667   7.509   7.547   0.638
    1SIL  O00t8 4668   7.755   7.351   0.510
    1SIL  O00t9 4669   7.942   7.297   0.691
    1SIL  O00tA 4670   7.895   7.486   0.872
    1SIL  Si0Rb 4671   7.503   7.888   0.393
    1SIL  Si0Rc 4672   7.257   7.861   0.755
    1SIL  Si0Rd 4673   7.603   7.662   0.574
    1SIL  O00tB 4674   7.403   7.838   0.819
    1SIL  O00tC 4675   7.450   8.026   0.457
    1SIL  O00tD 4676   7.264   7.973   0.638
    1SIL  O00tE 4677   7.509   7.776   0.510
    1SIL  O00tF 4678   7.696   7.723   0.691
    1SIL  O00tG 4679   7.649   7.911   0.872
    1SIL  Si0Re 4680   7.257   8.313   0.393
    1SIL  Si0Rf 4681   7.011   8.287   0.755
    1SIL  Si0Rg 4682   7.357   8.087   0.574
    1SIL  O00tH 4683   7.157   8.263   0.819
    1SIL  O00tI 4684   7.205   8.452   0.457
    1SIL  O00tJ 4685   7.018   8.398   0.638
    1SIL  O00tK 4686   7.264   8.202   0.510
    1SIL  O00tL 4687   7.450   8.149   0.691
    1SIL  O00tM 4688   7.403   8.337   0.872
    1SIL  Si0Rh 4689   7.011   8.739   0.393
    1SIL  Si0Ri 4690   6.766   8.713   0.755
    1SIL  Si0Rj 4691   7.111   8.513   0.574
    1SIL  O00tN 4692   6.912   8.689   0.819
    1SIL  O00tO 4693   6.959   8.877   0.457
    1SIL  O00tP 4694   6.772   8.824   0.638
    1SIL  O00tQ 4695   7.018   8.628   0.510
    1SIL  O00tR 4696   7.205   8.574   0.691
    1SIL  O00tS 4697   7.157   8.763   0.872
    1SIL  Si0Rk 4698   6.766   9.165   0.393
    1SIL  Si0Rl 4699   6.520   9.138   0.755
    1SIL  Si0Rm 4700   6.866   8.939   0.574
    1SIL  O00tT 4701   6.666   9.115   0.819
    1SIL  O00tU 4702   6.713   9.303   0.457
    1SIL  O00tV 4703   6.526   9.250   0.638
    1SIL  O00tW 4704   6.772   9.053   0.510
    1SIL  O00tX 4705   6.959   9.000   0.691
    1SIL  O00tY 4706   6.912   9.188   0.872
    1SIL  Si0Rn 4707   6.520   9.590   0.393
    1SIL  Si0Ro 4708   6.274   9.564   0.755
    1SIL  Si0Rp 4709   6.620   9.364   0.574
    1SIL  O00tZ 4710   6.420   9.540   0.819
    1SIL  O00ta 4711   6.467   9.729   0.457
    1SIL  O00tb 4712   6.281   9.675   0.638
    1SIL  O00tc 4713   6.526   9.479   0.510
    1SIL  O00td 4714   6.713   9.426   0.691
    1SIL  O00te 4715   6.666   9.614   0.872
    1SIL  Si0Rq 4716   2.588   0.226   0.393
    1SIL  Si0Rr 4717   2.342   0.200   0.755
    1SIL  Si0Rs 4718   2.688   0.000   0.574
    1SIL  O00tf 4719   2.488   0.176   0.819
    1SIL  O00tg 4720   2.535   0.364   0.457
    1SIL  O00th 4721   2.349   0.311   0.638
    1SIL  O00ti 4722   2.595   0.115   0.510
    1SIL  O00tj 4723   2.781   0.061   0.691
    1SIL  O00tk 4724   2.734   0.250   0.872
    1SIL  Si0Rt 4725   2.342   0.652   0.393
    1SIL  Si0Ru 4726   2.097   0.625   0.755
    1SIL  Si0Rv 4727   2.442   0.426   0.574
    1SIL  O00tl 4728   2.242   0.602   0.819
    1SIL  O00tm 4729   2.290   0.790   0.457
    1SIL  O00tn 4730   2.103   0.737   0.638
    1SIL  O00to 4731   2.349   0.540   0.510
    1SIL  O00tp 4732   2.535   0.487   0.691
    1SIL  O00tq 4733   2.488   0.675   0.872
    1SIL  Si0Rw 4734   2.097   1.077   0.393
    1SIL  Si0Rx 4735   1.851   1.051   0.755
    1SIL  Si0Ry 4736   2.196   0.851   0.574
    1SIL  O00tr 4737   1.997   1.027   0.819
    1SIL  O00ts 4738   2.044   1.216   0.457
    1SIL  O00tt 4739   1.857   1.162   0.638
    1SIL  O00tu 4740   2.103   0.966   0.510
    1SIL  O00tv 4741   2.290   0.913   0.691
    1SIL  O00tw 4742   2.242   1.101   0.872
    1SIL  Si0Rz 4743   1.851   1.503   0.393
    1SIL  Si0S0 4744   1.605   1.477   0.755
    1SIL  Si0S1 4745   1.951   1.277   0.574
    1SIL  O00tx 4746   1.751   1.453   0.819
    1SIL  O00ty 4747   1.798   1.641   0.457
    1SIL  O00tz 4748   1.612   1.588   0.638
    1SIL  O00u0 4749   1.857   1.392   0.510
    1SIL  O00u1 4750   2.044   1.338   0.691
    1SIL  O00u2 4751   1.997   1.527   0.872
    1SIL  Si0S2 4752   1.605   1.929   0.393
    1SIL  Si0S3 4753   1.359   1.902   0.755
    1SIL  Si0S4 4754   1.705   1.703   0.574
    1SIL  O00u3 4755   1.505   1.879   0.819
    1SIL  O00u4 4756   1.552   2.067   0.457
    1SIL  O00u5 4757   1.366   2.014   0.638
    1SIL  O00u6 4758   1.612   1.817   0.510
    1SIL  O00u7 4759   1.798   1.764   0.691
    1SIL  O00u8 4760   1.751   1.952   0.872
    1SIL  Si0S5 4761   1.359   2.354   0.393
    1SIL  Si0S6 4762   1.114   2.328   0.755
    1SIL  Si0S7 4763   1.459   2.128   0.574
    1SIL  O00u9 4764   1.259   2.304   0.819
    1SIL  O00uA 4765   1.307   2.493   0.457
    1SIL  O00uB 4766   1.120   2.439   0.638
    1SIL  O00uC 4767   1.366   2.243   0.510
    1SIL  O00uD 4768   1.552   2.190   0.691
    1SIL  O00uE 4769   1.505   2.378   0.872
    1SIL  Si0S8 4770   1.114   2.780   0.393
    1SIL  Si0S9 4771   0.868   2.753   0.755
    1SIL  Si0SA 4772   1.213   2.554   0.574
    1SIL  O00uF 4773   1.014   2.730   0.819
    1SIL  O00uG 4774   1.061   2.918   0.457
    1SIL  O00uH 4775   0.874   2.865   0.638
    1SIL  O00uI 4776   1.120   2.668   0.510
    1SIL  O00uJ 4777   1.307   2.615   0.691
    1SIL  O00uK 4778   1.259   2.804   0.872
    1SIL  Si0SB 4779   0.868   3.206   0.393
    1SIL  Si0SC 4780   0.622   3.179   0.755
    1SIL  Si0SD 4781   0.968   2.980   0.574
    1SIL  O00uL 4782   0.768   3.156   0.819
    1SIL  O00uM 4783   0.815   3.344   0.457
    1SIL  O00uN 4784   0.629   3.291   0.638
    1SIL  O00uO 4785   0.874   3.094   0.510
    1SIL  O00uP 4786   1.061   3.041   0.691
    1SIL  O00uQ 4787   1.014   3.229   0.872
    1SIL  Si0SE 4788   0.622   3.631   0.393
    1SIL  Si0SF 4789   0.376   3.605   0.755
    1SIL  Si0SG 4790   0.722   3.405   0.574
    1SIL  O00uR 4791   0.522   3.581   0.819
    1SIL  O00uS 4792   0.569   3.769   0.457
    1SIL  O00uT 4793   0.383   3.716   0.638
    1SIL  O00uU 4794   0.629   3.520   0.510
    1SIL  O00uV 4795   0.815   3.467   0.691
    1SIL  O00uW 4796   0.768   3.655   0.872
    1SIL  Si0SH 4797   0.376   4.057   0.393
    1SIL  Si0SI 4798   0.131   4.030   0.755
    1SIL  Si0SJ 4799   0.476   3.831   0.574
    1SIL  O00uX 4800   0.276   4.007   0.819
    1SIL  O00uY 4801   0.324   4.195   0.457
    1SIL  O00uZ 4802   0.137   4.142   0.638
    1SIL  O00ua 4803   0.383   3.945   0.510
    1SIL  O00ub 4804   0.569   3.892   0.691
    1SIL  O00uc 4805   0.522   4.081   0.872
    1SIL  Si0SK 4806   0.131   4.483   0.393
    1SIL  Si0SL 4807   9.715   4.456   0.755
    1SIL  Si0SM 4808   0.230   4.256   0.574
    1SIL  O00ud 4809   0.031   4.432   0.819
    1SIL  O00ue 4810   0.078   4.621   0.457
    1SIL  O00uf 4811   9.721   4.568   0.638
    1SIL  O00ug 4812   0.137   4.371   0.510
    1SIL  O00uh 4813   0.324   4.318   0.691
    1SIL  O00ui 4814   0.276   4.506   0.872
    1SIL  Si0SN 4815   9.715   4.908   0.393
    1SIL  Si0SO 4816   9.469   4.882   0.755
    1SIL  Si0SP 4817   9.815   4.682   0.574
    1SIL  O00uj 4818   9.615   4.858   0.819
    1SIL  O00uk 4819   9.662   5.046   0.457
    1SIL  O00ul 4820   9.475   4.993   0.638
    1SIL  O00um 4821   9.721   4.797   0.510
    1SIL  O00un 4822   0.078   4.744   0.691
    1SIL  O00uo 4823   0.031   4.932   0.872
    1SIL  Si0SQ 4824   9.469   5.334   0.393
    1SIL  Si0SR 4825   9.223   5.307   0.755
    1SIL  Si0SS 4826   9.569   5.108   0.574
    1SIL  O00up 4827   9.369   5.284   0.819
    1SIL  O00uq 4828   9.416   5.472   0.457
    1SIL  O00ur 4829   9.230   5.419   0.638
    1SIL  O00us 4830   9.475   5.222   0.510
    1SIL  O00ut 4831   9.662   5.169   0.691
    1SIL  O00uu 4832   9.615   5.357   0.872
    1SIL  Si0ST 4833   9.223   5.759   0.393
    1SIL  Si0SU 4834   8.977   5.733   0.755
    1SIL  Si0SV 4835   9.323   5.533   0.574
    1SIL  O00uv 4836   9.123   5.709   0.819
    1SIL  O00uw 4837   9.171   5.898   0.457
    1SIL  O00ux 4838   8.984   5.844   0.638
    1SIL  O00uy 4839   9.230   5.648   0.510
    1SIL  O00uz 4840   9.416   5.595   0.691
    1SIL  O00v0 4841   9.369   5.783   0.872
    1SIL  Si0SW 4842   8.977   6.185   0.393
    1SIL  Si0SX 4843   8.732   6.159   0.755
    1SIL  Si0SY 4844   9.077   5.959   0.574
    1SIL  O00v1 4845   8.878   6.135   0.819
    1SIL  O00v2 4846   8.925   6.323   0.457
    1SIL  O00v3 4847   8.738   6.270   0.638
    1SIL  O00v4 4848   8.984   6.074   0.510
    1SIL  O00v5 4849   9.171   6.020   0.691
    1SIL  O00v6 4850   9.123   6.209   0.872
    1SIL  Si0SZ 4851   8.732   6.611   0.393
    1SIL  Si0Sa 4852   8.486   6.584   0.755
    1SIL  Si0Sb 4853   8.832   6.385   0.574
    1SIL  O00v7 4854   8.632   6.561   0.819
    1SIL  O00v8 4855   8.679   6.749   0.457
    1SIL  O00v9 4856   8.492   6.696   0.638
    1SIL  O00vA 4857   8.738   6.499   0.510
    1SIL  O00vB 4858   8.925   6.446   0.691
    1SIL  O00vC 4859   8.878   6.634   0.872
    1SIL  Si0Sc 4860   8.486   7.036   0.393
    1SIL  Si0Sd 4861   8.240   7.010   0.755
    1SIL  Si0Se 4862   8.586   6.810   0.574
    1SIL  O00vD 4863   8.386   6.986   0.819
    1SIL  O00vE 4864   8.433   7.175   0.457
    1SIL  O00vF 4865   8.247   7.121   0.638
    1SIL  O00vG 4866   8.492   6.925   0.510
    1SIL  O00vH 4867   8.679   6.872   0.691
    1SIL  O00vI 4868   8.632   7.060   0.872
    1SIL  Si0Sf 4869   8.240   7.462   0.393
    1SIL  Si0Sg 4870   7.994   7.436   0.755
    1SIL  Si0Sh 4871   8.340   7.236   0.574
    1SIL  O00vJ 4872   8.140   7.412   0.819
    1SIL  O00vK 4873   8.188   7.600   0.457
    1SIL  O00vL 4874   8.001   7.547   0.638
    1SIL  O00vM 4875   8.247   7.351   0.510
    1SIL  O00vN 4876   8.433   7.297   0.691
    1SIL  O00vO 4877   8.386   7.486   0.872
    1SIL  Si0Si 4878   7.994   7.888   0.393
    1SIL  Si0Sj 4879   7.749   7.861   0.755
    1SIL  Si0Sk 4880   8.094   7.662   0.574
    1SIL  O00vP 4881   7.895   7.838   0.819
    1SIL  O00vQ 4882   7.942   8.026   0.457
    1SIL  O00vR 4883   7.755   7.973   0.638
    1SIL  O00vS 4884   8.001   7.776   0.510
    1SIL  O00vT 4885   8.188   7.723   0.691
    1SIL  O00vU 4886   8.140   7.911   0.872
    1SIL  Si0Sl 4887   7.749   8.313   0.393
    1SIL  Si0Sm 4888   7.503   8.287   0.755
    1SIL  Si0Sn 4889   7.849   8.087   0.574
    1SIL  O00vV 4890   7.649   8.263   0.819
    1SIL  O00vW 4891   7.696   8.452   0.457
    1SIL  O00vX 4892   7.509   8.398   0.638
    1SIL  O00vY 4893   7.755   8.202   0.510
    1SIL  O00vZ 4894   7.942   8.149   0.691
    1SIL  O00va 4895   7.895   8.337   0.872
    1SIL  Si0So 4896   7.503   8.739   0.393
    1SIL  Si0Sp 4897   7.257   8.713   0.755
    1SIL  Si0Sq 4898   7.603   8.513   0.574
    1SIL  O00vb 4899   7.403   8.689   0.819
    1SIL  O00vc 4900   7.450   8.877   0.457
    1SIL  O00vd 4901   7.264   8.824   0.638
    1SIL  O00ve 4902   7.509   8.628   0.510
    1SIL  O00vf 4903   7.696   8.574   0.691
    1SIL  O00vg 4904   7.649   8.763   0.872
    1SIL  Si0Sr 4905   7.257   9.165   0.393
    1SIL  Si0Ss 4906   7.011   9.138   0.755
    1SIL  Si0St 4907   7.357   8.939   0.574
    1SIL  O00vh 4908   7.157   9.115   0.819
    1SIL  O00vi 4909   7.205   9.303   0.457
    1SIL  O00vj 4910   7.018   9.250   0.638
    1SIL  O00vk 4911   7.264   9.053   0.510
    1SIL  O00vl 4912   7.450   9.000   0.691
    1SIL  O00vm 4913   7.403   9.188   0.872
    1SIL  Si0Su 4914   7.011   9.590   0.393
    1SIL  Si0Sv 4915   6.766   9.564   0.755
    1SIL  Si0Sw 4916   7.111   9.364   0.574
    1SIL  O00vn 4917   6.912   9.540   0.819
    1SIL  O00vo 4918   6.959   9.729   0.457
    1SIL  O00vp 4919   6.772   9.675   0.638
    1SIL  O00vq 4920   7.018   9.479   0.510
    1SIL  O00vr 4921   7.205   9.426   0.691
    1SIL  O00vs 4922   7.157   9.614   0.872
    1SIL  Si0Sx 4923   3.079   0.226   0.393
    1SIL  Si0Sy 4924   2.834   0.200   0.755
    1SIL  Si0Sz 4925   3.179   0.000   0.574
    1SIL  O00vt 4926   2.980   0.176   0.819
    1SIL  O00vu 4927   3.027   0.364   0.457
    1SIL  O00vv 4928   2.840   0.311   0.638
    1SIL  O00vw 4929   3.086   0.115   0.510
    1SIL  O00vx 4930   3.273   0.061   0.691
    1SIL  O00vy 4931   3.225   0.250   0.872
    1SIL  Si0T0 4932   2.834   0.652   0.393
    1SIL  Si0T1 4933   2.588   0.625   0.755
    1SIL  Si0T2 4934   2.934   0.426   0.574
    1SIL  O00vz 4935   2.734   0.602   0.819
    1SIL  O00w0 4936   2.781   0.790   0.457
    1SIL  O00w1 4937   2.595   0.737   0.638
    1SIL  O00w2 4938   2.840   0.540   0.510
    1SIL  O00w3 4939   3.027   0.487   0.691
    1SIL  O00w4 4940   2.980   0.675   0.872
    1SIL  Si0T3 4941   2.588   1.077   0.393
    1SIL  Si0T4 4942   2.342   1.051   0.755
    1SIL  Si0T5 4943   2.688   0.851   0.574
    1SIL  O00w5 4944   2.488   1.027   0.819
    1SIL  O00w6 4945   2.535   1.216   0.457
    1SIL  O00w7 4946   2.349   1.162   0.638
    1SIL  O00w8 4947   2.595   0.966   0.510
    1SIL  O00w9 4948   2.781   0.913   0.691
    1SIL  O00wA 4949   2.734   1.101   0.872
    1SIL  Si0T6 4950   2.342   1.503   0.393
    1SIL  Si0T7 4951   2.097   1.477   0.755
    1SIL  Si0T8 4952   2.442   1.277   0.574
    1SIL  O00wB 4953   2.242   1.453   0.819
    1SIL  O00wC 4954   2.290   1.641   0.457
    1SIL  O00wD 4955   2.103   1.588   0.638
    1SIL  O00wE 4956   2.349   1.392   0.510
    1SIL  O00wF 4957   2.535   1.338   0.691
    1SIL  O00wG 4958   2.488   1.527   0.872
    1SIL  Si0T9 4959   2.097   1.929   0.393
    1SIL  Si0TA 4960   1.851   1.902   0.755
    1SIL  Si0TB 4961   2.196   1.703   0.574
    1SIL  O00wH 4962   1.997   1.879   0.819
    1SIL  O00wI 4963   2.044   2.067   0.457
    1SIL  O00wJ 4964   1.857   2.014   0.638
    1SIL  O00wK 4965   2.103   1.817   0.510
    1SIL  O00wL 4966   2.290   1.764   0.691
    1SIL  O00wM 4967   2.242   1.952   0.872
    1SIL  Si0TC 4968   1.851   2.354   0.393
    1SIL  Si0TD 4969   1.605   2.328   0.755
    1SIL  Si0TE 4970   1.951   2.128   0.574
    1SIL  O00wN 4971   1.751   2.304   0.819
    1SIL  O00wO 4972   1.798   2.493   0.457
    1SIL  O00wP 4973   1.612   2.439   0.638
    1SIL  O00wQ 4974   1.857   2.243   0.510
    1SIL  O00wR 4975   2.044   2.190   0.691
    1SIL  O00wS 4976   1.997   2.378   0.872
    1SIL  Si0TF 4977   1.605   2.780   0.393
    1SIL  Si0TG 4978   1.359   2.753   0.755
    1SIL  Si0TH 4979   1.705   2.554   0.574
    1SIL  O00wT 4980   1.505   2.730   0.819
    1SIL  O00wU 4981   1.552   2.918   0.457
    1SIL  O00wV 4982   1.366   2.865   0.638
    1SIL  O00wW 4983   1.612   2.668   0.510
    1SIL  O00wX 4984   1.798   2.615   0.691
    1SIL  O00wY 4985   1.751   2.804   0.872
    1SIL  Si0TI 4986   1.359   3.206   0.393
    1SIL  Si0TJ 4987   1.114   3.179   0.755
    1SIL  Si0TK 4988   1.459   2.980   0.574
    1SIL  O00wZ 4989   1.259   3.156   0.819
    1SIL  O00wa 4990   1.307   3.344   0.457
    1SIL  O00wb 4991   1.120   3.291   0.638
    1SIL  O00wc 4992   1.366   3.094   0.510
    1SIL  O00wd 4993   1.552   3.041   0.691
    1SIL  O00we 4994   1.505   3.229   0.872
    1SIL  Si0TL 4995   1.114   3.631   0.393
    1SIL  Si0TM 4996   0.868   3.605   0.755
    1SIL  Si0TN 4997   1.213   3.405   0.574
    1SIL  O00wf 4998   1.014   3.581   0.819
    1SIL  O00wg 4999   1.061   3.769   0.457
    1SIL  O00wh 5000   0.874   3.716   0.638
    1SIL  O00wi 5001   1.120   3.520   0.510
    1SIL  O00wj 5002   1.307   3.467   0.691
    1SIL  O00wk 5003   1.259   3.655   0.872
    1SIL  Si0TO 5004   0.868   4.057   0.393
    1SIL  Si0TP 5005   0.622   4.030   0.755
    1SIL  Si0TQ 5006   0.968   3.831   0.574
    1SIL  O00wl 5007   0.768   4.007   0.819
    1SIL  O00wm 5008   0.815   4.195   0.457
    1SIL  O00wn 5009   0.629   4.142   0.638
    1SIL  O00wo 5010   0.874   3.945   0.510
    1SIL  O00wp 5011   1.061   3.892   0.691
    1SIL  O00wq 5012   1.014   4.081   0.872
    1SIL  Si0TR 5013   0.622   4.483   0.393
    1SIL  Si0TS 5014   0.376   4.456   0.755
    1SIL  Si0TT 5015   0.722   4.256   0.574
    1SIL  O00wr 5016   0.522   4.432   0.819
    1SIL  O00ws 5017   0.569   4.621   0.457
    1SIL  O00wt 5018   0.383   4.568   0.638
    1SIL  O00wu 5019   0.629   4.371   0.510
    1SIL  O00wv 5020   0.815   4.318   0.691
    1SIL  O00ww 5021   0.768   4.506   0.872
    1SIL  Si0TU 5022   0.376   4.908   0.393
    1SIL  Si0TV 5023   0.131   4.882   0.755
    1SIL  Si0TW 5024   0.476   4.682   0.574
    1SIL  O00wx 5025   0.276   4.858   0.819
    1SIL  O00wy 5026   0.324   5.046   0.457
    1SIL  O00wz 5027   0.137   4.993   0.638
    1SIL  O00x0 5028   0.383   4.797   0.510
    1SIL  O00x1 5029   0.569   4.744   0.691
    1SIL  O00x2 5030   0.522   4.932   0.872
    1SIL  Si0TX 5031   0.131   5.334   0.393
    1SIL  Si0TY 5032   9.715   5.307   0.755
    1SIL  Si0TZ 5033   0.230   5.108   0.574
    1SIL  O00x3 5034   0.031   5.284   0.819
    1SIL  O00x4 5035   0.078   5.472   0.457
    1SIL  O00x5 5036   9.721   5.419   0.638
    1SIL  O00x6 5037   0.137   5.222   0.510
    1SIL  O00x7 5038   0.324   5.169   0.691
    1SIL  O00x8 5039   0.276   5.357   0.872
    1SIL  Si0Ta 5040   9.715   5.759   0.393
    1SIL  Si0Tb 5041   9.469   5.733   0.755
    1SIL  Si0Tc 5042   9.815   5.533   0.574
    1SIL  O00x9 5043   9.615   5.709   0.819
    1SIL  O00xA 5044   9.662   5.898   0.457
    1SIL  O00xB 5045   9.475   5.844   0.638
    1SIL  O00xC 5046   9.721   5.648   0.510
    1SIL  O00xD 5047   0.078   5.595   0.691
    1SIL  O00xE 5048   0.031   5.783   0.872
    1SIL  Si0Td 5049   9.469   6.185   0.393
    1SIL  Si0Te 5050   9.223   6.159   0.755
    1SIL  Si0Tf 5051   9.569   5.959   0.574
    1SIL  O00xF 5052   9.369   6.135   0.819
    1SIL  O00xG 5053   9.416   6.323   0.457
    1SIL  O00xH 5054   9.230   6.270   0.638
    1SIL  O00xI 5055   9.475   6.074   0.510
    1SIL  O00xJ 5056   9.662   6.020   0.691
    1SIL  O00xK 5057   9.615   6.209   0.872
    1SIL  Si0Tg 5058   9.223   6.611   0.393
    1SIL  Si0Th 5059   8.977   6.584   0.755
    1SIL  Si0Ti 5060   9.323   6.385   0.574
    1SIL  O00xL 5061   9.123   6.561   0.819
    1SIL  O00xM 5062   9.171   6.749   0.457
    1SIL  O00xN 5063   8.984   6.696   0.638
    1SIL  O00xO 5064   9.230   6.499   0.510
    1SIL  O00xP 5065   9.416   6.446   0.691
    1SIL  O00xQ 5066   9.369   6.634   0.872
    1SIL  Si0Tj 5067   8.977   7.036   0.393
    1SIL  Si0Tk 5068   8.732   7.010   0.755
    1SIL  Si0Tl 5069   9.077   6.810   0.574
    1SIL  O00xR 5070   8.878   6.986   0.819
    1SIL  O00xS 5071   8.925   7.175   0.457
    1SIL  O00xT 5072   8.738   7.121   0.638
    1SIL  O00xU 5073   8.984   6.925   0.510
    1SIL  O00xV 5074   9.171   6.872   0.691
    1SIL  O00xW 5075   9.123   7.060   0.872
    1SIL  Si0Tm 5076   8.732   7.462   0.393
    1SIL  Si0Tn 5077   8.486   7.436   0.755
    1SIL  Si0To 5078   8.832   7.236   0.574
    1SIL  O00xX 5079   8.632   7.412   0.819
    1SIL  O00xY 5080   8.679   7.600   0.457
    1SIL  O00xZ 5081   8.492   7.547   0.638
    1SIL  O00xa 5082   8.738   7.351   0.510
    1SIL  O00xb 5083   8.925   7.297   0.691
    1SIL  O00xc 5084   8.878   7.486   0.872
    1SIL  Si0Tp 5085   8.486   7.888   0.393
    1SIL  Si0Tq 5086   8.240   7.861   0.755
    1SIL  Si0Tr 5087   8.586   7.662   0.574
    1SIL  O00xd 5088   8.386   7.838   0.819
    1SIL  O00xe 5089   8.433   8.026   0.457
    1SIL  O00xf 5090   8.247   7.973   0.638
    1SIL  O00xg 5091   8.492   7.776   0.510
    1SIL  O00xh 5092   8.679   7.723   0.691
    1SIL  O00xi 5093   8.632   7.911   0.872
    1SIL  Si0Ts 5094   8.240   8.313   0.393
    1SIL  Si0Tt 5095   7.994   8.287   0.755
    1SIL  Si0Tu 5096   8.340   8.087   0.574
    1SIL  O00xj 5097   8.140   8.263   0.819
    1SIL  O00xk 5098   8.188   8.452   0.457
    1SIL  O00xl 5099   8.001   8.398   0.638
    1SIL  O00xm 5100   8.247   8.202   0.510
    1SIL  O00xn 5101   8.433   8.149   0.691
    1SIL  O00xo 5102   8.386   8.337   0.872
    1SIL  Si0Tv 5103   7.994   8.739   0.393
    1SIL  Si0Tw 5104   7.749   8.713   0.755
    1SIL  Si0Tx 5105   8.094   8.513   0.574
    1SIL  O00xp 5106   7.895   8.689   0.819
    1SIL  O00xq 5107   7.942   8.877   0.457
    1SIL  O00xr 5108   7.755   8.824   0.638
    1SIL  O00xs 5109   8.001   8.628   0.510
    1SIL  O00xt 5110   8.188   8.574   0.691
    1SIL  O00xu 5111   8.140   8.763   0.872
    1SIL  Si0Ty 5112   7.749   9.165   0.393
    1SIL  Si0Tz 5113   7.503   9.138   0.755
    1SIL  Si0U0 5114   7.849   8.939   0.574
    1SIL  O00xv 5115   7.649   9.115   0.819
    1SIL  O00xw 5116   7.696   9.303   0.457
    1SIL  O00xx 5117   7.509   9.250   0.638
    1SIL  O00xy 5118   7.755   9.053   0.510
    1SIL  O00xz 5119   7.942   9.000   0.691
    1SIL  O00y0 5120   7.895   9.188   0.872
    1SIL  Si0U1 5121   7.503   9.590   0.393
    1SIL  Si0U2 5122   7.257   9.564   0.755
    1SIL  Si0U3 5123   7.603   9.364   0.574
    1SIL  O00y1 5124   7.403   9.540   0.819
    1SIL  O00y2 5125   7.450   9.729   0.457
    1SIL  O00y3 5126   7.264   9.675   0.638
    1SIL  O00y4 5127   7.509   9.479   0.510
    1SIL  O00y5 5128   7.696   9.426   0.691
    1SIL  O00y6 5129   7.649   9.614   0.872
    1SIL  Si0U4 5130   3.571   0.226   0.393
    1SIL  Si0U5 5131   3.325   0.200   0.755
    1SIL  Si0U6 5132   3.671   0.000   0.574
    1SIL  O00y7 5133   3.471   0.176   0.819
    1SIL  O00y8 5134   3.518   0.364   0.457
    1SIL  O00y9 5135   3.332   0.311   0.638
    1SIL  O00yA 5136   3.577   0.115   0.510
    1SIL  O00yB 5137   3.764   0.061   0.691
    1SIL  O00yC 5138   3.717   0.250   0.872
    1SIL  Si0U7 5139   3.325   0.652   0.393
    1SIL  Si0U8 5140   3.079   0.625   0.755
    1SIL  Si0U9 5141   3.425   0.426   0.574
    1SIL  O00yD 5142   3.225   0.602   0.819
    1SIL  O00yE 5143   3.273   0.790   0.457
    1SIL  O00yF 5144   3.086   0.737   0.638
    1SIL  O00yG 5145   3.332   0.540   0.510
    1SIL  O00yH 5146   3.518   0.487   0.691
    1SIL  O00yI 5147   3.471   0.675   0.872
    1SIL  Si0UA 5148   3.079   1.077   0.393
    1SIL  Si0UB 5149   2.834   1.051   0.755
    1SIL  Si0UC 5150   3.179   0.851   0.574
    1SIL  O00yJ 5151   2.980   1.027   0.819
    1SIL  O00yK 5152   3.027   1.216   0.457
    1SIL  O00yL 5153   2.840   1.162   0.638
    1SIL  O00yM 5154   3.086   0.966   0.510
    1SIL  O00yN 5155   3.273   0.913   0.691
    1SIL  O00yO 5156   3.225   1.101   0.872
    1SIL  Si0UD 5157   2.834   1.503   0.393
    1SIL  Si0UE 5158   2.588   1.477   0.755
    1SIL  Si0UF 5159   2.934   1.277   0.574
    1SIL  O00yP 5160   2.734   1.453   0.819
    1SIL  O00yQ 5161   2.781   1.641   0.457
    1SIL  O00yR 5162   2.595   1.588   0.638
    1SIL  O00yS 5163   2.840   1.392   0.510
    1SIL  O00yT 5164   3.027   1.338   0.691
    1SIL  O00yU 5165   2.980   1.527   0.872
    1SIL  Si0UG 5166   2.588   1.929   0.393
    1SIL  Si0UH 5167   2.342   1.902   0.755
    1SIL  Si0UI 5168   2.688   1.703   0.574
    1SIL  O00yV 5169   2.488   1.879   0.819
    1SIL  O00yW 5170   2.535   2.067   0.457
    1SIL  O00yX 5171   2.349   2.014   0.638
    1SIL  O00yY 5172   2.595   1.817   0.510
    1SIL  O00yZ 5173   2.781   1.764   0.691
    1SIL  O00ya 5174   2.734   1.952   0.872
    1SIL  Si0UJ 5175   2.342   2.354   0.393
    1SIL  Si0UK 5176   2.097   2.328   0.755
    1SIL  Si0UL 5177   2.442   2.128   0.574
    1SIL  O00yb 5178   2.242   2.304   0.819
    1SIL  O00yc 5179   2.290   2.493   0.457
    1SIL  O00yd 5180   2.103   2.439   0.638
    1SIL  O00ye 5181   2.349   2.243   0.510
    1SIL  O00yf 5182   2.535   2.190   0.691
    1SIL  O00yg 5183   2.488   2.378   0.872
    1SIL  Si0UM 5184   2.097   2.780   0.393
    1SIL  Si0UN 5185   1.851   2.753   0.755
    1SIL  Si0UO 5186   2.196   2.554   0.574
    1SIL  O00yh 5187   1.997   2.730   0.819
    1SIL  O00yi 5188   2.044   2.918   0.457
    1SIL  O00yj 5189   1.857   2.865   0.638
    1SIL  O00yk 5190   2.103   2.668   0.510
    1SIL  O00yl 5191   2.290   2.615   0.691
    1SIL  O00ym 5192   2.242   2.804   0.872
    1SIL  Si0UP 5193   1.851   3.206   0.393
    1SIL  Si0UQ 5194   1.605   3.179   0.755
    1SIL  Si0UR 5195   1.951   2.980   0.574
    1SIL  O00yn 5196   1.751   3.156   0.819
    1SIL  O00yo 5197   1.798   3.344   0.457
    1SIL  O00yp 5198   1.612   3.291   0.638
    1SIL  O00yq 5199   1.857   3.094   0.510
    1SIL  O00yr 5200   2.044   3.041   0.691
    1SIL  O00ys 5201   1.997   3.229   0.872
    1SIL  Si0US 5202   1.605   3.631   0.393
    1SIL  Si0UT 5203   1.359   3.605   0.755
    1SIL  Si0UU 5204   1.705   3.405   0.574
    1SIL  O00yt 5205   1.505   3.581   0.819
    1SIL  O00yu 5206   1.552   3.769   0.457
    1SIL  O00yv 5207   1.366   3.716   0.638
    1SIL  O00yw 5208   1.612   3.520   0.510
    1SIL  O00yx 5209   1.798   3.467   0.691
    1SIL  O00yy 5210   1.751   3.655   0.872
    1SIL  Si0UV 5211   1.359   4.057   0.393
    1SIL  Si0UW 5212   1.114   4.030   0.755
    1SIL  Si0UX 5213   1.459   3.831   0.574
    1SIL  O00yz 5214   1.259   4.007   0.819
    1SIL  O00z0 5215   1.307   4.195   0.457
    1SIL  O00z1 5216   1.120   4.142   0.638
    1SIL  O00z2 5217   1.366   3.945   0.510
    1SIL  O00z3 5218   1.552   3.892   0.691
    1SIL  O00z4 5219   1.505   4.081   0.872
    1SIL  Si0UY 5220   1.114   4.483   0.393
    1SIL  Si0UZ 5221   0.868   4.456   0.755
    1SIL  Si0Ua 5222   1.213   4.256   0.574
    1SIL  O00z5 5223   1.014   4.432   0.819
    1SIL  O00z6 5224   1.061   4.621   0.457
    1SIL  O00z7 5225   0.874   4.568   0.638
    1SIL  O00z8 5226   1.120   4.371   0.510
    1SIL  O00z9 5227   1.307   4.318   0.691
    1SIL  O00zA 5228   1.259   4.506   0.872
    1SIL  Si0Ub 5229   0.868   4.908   0.393
    1SIL  Si0Uc 5230   0.622   4.882   0.755
    1SIL  Si0Ud 5231   0.968   4.682   0.574
    1SIL  O00zB 5232   0.768   4.858   0.819
    1SIL  O00zC 5233   0.815   5.046   0.457
    1SIL  O00zD 5234   0.629   4.993   0.638
    1SIL  O00zE 5235   0.874   4.797   0.510
    1SIL  O00zF 5236   1.061   4.744   0.691
    1SIL  O00zG 5237   1.014   4.932   0.872
    1SIL  Si0Ue 5238   0.622   5.334   0.393
    1SIL  Si0Uf 5239   0.376   5.307   0.755
    1SIL  Si0Ug 5240   0.722   5.108   0.574
    1SIL  O00zH 5241   0.522   5.284   0.819
    1SIL  O00zI 5242   0.569   5.472   0.457
    1SIL  O00zJ 5243   0.383   5.419   0.638
    1SIL  O00zK 5244   0.629   5.222   0.510
    1SIL  O00zL 5245   0.815   5.169   0.691
    1SIL  O00zM 5246   0.768   5.357   0.872
    1SIL  Si0Uh 5247   0.376   5.759   0.393
    1SIL  Si0Ui 5248   0.131   5.733   0.755
    1SIL  Si0Uj 5249   0.476   5.533   0.574
    1SIL  O00zN 5250   0.276   5.709   0.819
    1SIL  O00zO 5251   0.324   5.898   0.457
    1SIL  O00zP 5252   0.137   5.844   0.638
    1SIL  O00zQ 5253   0.383   5.648   0.510
    1SIL  O00zR 5254   0.569   5.595   0.691
    1SIL  O00zS 5255   0.522   5.783   0.872
    1SIL  Si0Uk 5256   0.131   6.185   0.393
    1SIL  Si0Ul 5257   9.715   6.159   0.755
    1SIL  Si0Um 5258   0.230   5.959   0.574
    1SIL  O00zT 5259   0.031   6.135   0.819
    1SIL  O00zU 5260   0.078   6.323   0.457
    1SIL  O00zV 5261   9.721   6.270   0.638
    1SIL  O00zW 5262   0.137   6.074   0.510
    1SIL  O00zX 5263   0.324   6.020   0.691
    1SIL  O00zY 5264   0.276   6.209   0.872
    1SIL  Si0Un 5265   9.715   6.611   0.393
    1SIL  Si0Uo 5266   9.469   6.584   0.755
    1SIL  Si0Up 5267   9.815   6.385   0.574
    1SIL  O00zZ 5268   9.615   6.561   0.819
    1SIL  O00za 5269   9.662   6.749   0.457
    1SIL  O00zb 5270   9.475   6.696   0.638
    1SIL  O00zc 5271   9.721   6.499   0.510
    1SIL  O00zd 5272   0.078   6.446   0.691
    1SIL  O00ze 5273   0.031   6.634   0.872
    1SIL  Si0Uq 5274   9.469   7.036   0.393
    1SIL  Si0Ur 5275   9.223   7.010   0.755
    1SIL  Si0Us 5276   9.569   6.810   0.574
    1SIL  O00zf 5277   9.369   6.986   0.819
    1SIL  O00zg 5278   9.416   7.175   0.457
    1SIL  O00zh 5279   9.230   7.121   0.638
    1SIL  O00zi 5280   9.475   6.925   0.510
    1SIL  O00zj 5281   9.662   6.872   0.691
    1SIL  O00zk 5282   9.615   7.060   0.872
    1SIL  Si0Ut 5283   9.223   7.462   0.393
    1SIL  Si0Uu 5284   8.977   7.436   0.755
    1SIL  Si0Uv 5285   9.323   7.236   0.574
    1SIL  O00zl 5286   9.123   7.412   0.819
    1SIL  O00zm 5287   9.171   7.600   0.457
    1SIL  O00zn 5288   8.984   7.547   0.638
    1SIL  O00zo 5289   9.230   7.351   0.510
    1SIL  O00zp 5290   9.416   7.297   0.691
    1SIL  O00zq 5291   9.369   7.486   0.872
    1SIL  Si0Uw 5292   8.977   7.888   0.393
    1SIL  Si0Ux 5293   8.732   7.861   0.755
    1SIL  Si0Uy 5294   9.077   7.662   0.574
    1SIL  O00zr 5295   8.878   7.838   0.819
    1SIL  O00zs 5296   8.925   8.026   0.457
    1SIL  O00zt 5297   8.738   7.973   0.638
    1SIL  O00zu 5298   8.984   7.776   0.510
    1SIL  O00zv 5299   9.171   7.723   0.691
    1SIL  O00zw 5300   9.123   7.911   0.872
    1SIL  Si0Uz 5301   8.732   8.313   0.393
    1SIL  Si0V0 5302   8.486   8.287   0.755
    1SIL  Si0V1 5303   8.832   8.087   0.574
    1SIL  O00zx 5304   8.632   8.263   0.819
    1SIL  O00zy 5305   8.679   8.452   0.457
    1SIL  O00zz 5306   8.492   8.398   0.638
    1SIL  O0100 5307   8.738   8.202   0.510
    1SIL  O0101 5308   8.925   8.149   0.691
    1SIL  O0102 5309   8.878   8.337   0.872
    1SIL  Si0V2 5310   8.486   8.739   0.393
    1SIL  Si0V3 5311   8.240   8.713   0.755
    1SIL  Si0V4 5312   8.586   8.513   0.574
    1SIL  O0103 5313   8.386   8.689   0.819
    1SIL  O0104 5314   8.433   8.877   0.457
    1SIL  O0105 5315   8.247   8.824   0.638
    1SIL  O0106 5316   8.492   8.628   0.510
    1SIL  O0107 5317   8.679   8.574   0.691
    1SIL  O0108 5318   8.632   8.763   0.872
    1SIL  Si0V5 5319   8.240   9.165   0.393
    1SIL  Si0V6 5320   7.994   9.138   0.755
    1SIL  Si0V7 5321   8.340   8.939   0.574
    1SIL  O0109 5322   8.140   9.115   0.819
    1SIL  O010A 5323   8.188   9.303   0.457
    1SIL  O010B 5324   8.001   9.250   0.638
    1SIL  O010C 5325   8.247   9.053   0.510
    1SIL  O010D 5326   8.433   9.000   0.691
    1SIL  O010E 5327   8.386   9.188   0.872
    1SIL  Si0V8 5328   7.994   9.590   0.393
    1SIL  Si0V9 5329   7.749   9.564   0.755
    1SIL  Si0VA 5330   8.094   9.364   0.574
    1SIL  O010F 5331   7.895   9.540   0.819
    1SIL  O010G 5332   7.942   9.729   0.457
    1SIL  O010H 5333   7.755   9.675   0.638
    1SIL  O010I 5334   8.001   9.479   0.510
    1SIL  O010J 5335   8.188   9.426   0.691
    1SIL  O010K 5336   8.140   9.614   0.872
    1SIL  Si0VB 5337   4.062   0.226   0.393
    1SIL  Si0VC 5338   3.817   0.200   0.755
    1SIL  Si0VD 5339   4.162   0.000   0.574
    1SIL  O010L 5340   3.963   0.176   0.819
    1SIL  O010M 5341   4.010   0.364   0.457
    1SIL  O010N 5342   3.823   0.311   0.638
    1SIL  O010O 5343   4.069   0.115   0.510
    1SIL  O010P 5344   4.256   0.061   0.691
    1SIL  O010Q 5345   4.208   0.250   0.872
    1SIL  Si0VE 5346   3.817   0.652   0.393
    1SIL  Si0VF 5347   3.571   0.625   0.755
    1SIL  Si0VG 5348   3.917   0.426   0.574
    1SIL  O010R 5349   3.717   0.602   0.819
    1SIL  O010S 5350   3.764   0.790   0.457
    1SIL  O010T 5351   3.577   0.737   0.638
    1SIL  O010U 5352   3.823   0.540   0.510
    1SIL  O010V 5353   4.010   0.487   0.691
    1SIL  O010W 5354   3.963   0.675   0.872
    1SIL  Si0VH 5355   3.571   1.077   0.393
    1SIL  Si0VI 5356   3.325   1.051   0.755
    1SIL  Si0VJ 5357   3.671   0.851   0.574
    1SIL  O010X 5358   3.471   1.027   0.819
    1SIL  O010Y 5359   3.518   1.216   0.457
    1SIL  O010Z 5360   3.332   1.162   0.638
    1SIL  O010a 5361   3.577   0.966   0.510
    1SIL  O010b 5362   3.764   0.913   0.691
    1SIL  O010c 5363   3.717   1.101   0.872
    1SIL  Si0VK 5364   3.325   1.503   0.393
    1SIL  Si0VL 5365   3.079   1.477   0.755
    1SIL  Si0VM 5366   3.425   1.277   0.574
    1SIL  O010d 5367   3.225   1.453   0.819
    1SIL  O010e 5368   3.273   1.641   0.457
    1SIL  O010f 5369   3.086   1.588   0.638
    1SIL  O010g 5370   3.332   1.392   0.510
    1SIL  O010h 5371   3.518   1.338   0.691
    1SIL  O010i 5372   3.471   1.527   0.872
    1SIL  Si0VN 5373   3.079   1.929   0.393
    1SIL  Si0VO 5374   2.834   1.902   0.755
    1SIL  Si0VP 5375   3.179   1.703   0.574
    1SIL  O010j 5376   2.980   1.879   0.819
    1SIL  O010k 5377   3.027   2.067   0.457
    1SIL  O010l 5378   2.840   2.014   0.638
    1SIL  O010m 5379   3.086   1.817   0.510
    1SIL  O010n 5380   3.273   1.764   0.691
    1SIL  O010o 5381   3.225   1.952   0.872
    1SIL  Si0VQ 5382   2.834   2.354   0.393
    1SIL  Si0VR 5383   2.588   2.328   0.755
    1SIL  Si0VS 5384   2.934   2.128   0.574
    1SIL  O010p 5385   2.734   2.304   0.819
    1SIL  O010q 5386   2.781   2.493   0.457
    1SIL  O010r 5387   2.595   2.439   0.638
    1SIL  O010s 5388   2.840   2.243   0.510
    1SIL  O010t 5389   3.027   2.190   0.691
    1SIL  O010u 5390   2.980   2.378   0.872
    1SIL  Si0VT 5391   2.588   2.780   0.393
    1SIL  Si0VU 5392   2.342   2.753   0.755
    1SIL  Si0VV 5393   2.688   2.554   0.574
    1SIL  O010v 5394   2.488   2.730   0.819
    1SIL  O010w 5395   2.535   2.918   0.457
    1SIL  O010x 5396   2.349   2.865   0.638
    1SIL  O010y 5397   2.595   2.668   0.510
    1SIL  O010z 5398   2.781   2.615   0.691
    1SIL  O0110 5399   2.734   2.804   0.872
    1SIL  Si0VW 5400   2.342   3.206   0.393
    1SIL  Si0VX 5401   2.097   3.179   0.755
    1SIL  Si0VY 5402   2.442   2.980   0.574
    1SIL  O0111 5403   2.242   3.156   0.819
    1SIL  O0112 5404   2.290   3.344   0.457
    1SIL  O0113 5405   2.103   3.291   0.638
    1SIL  O0114 5406   2.349   3.094   0.510
    1SIL  O0115 5407   2.535   3.041   0.691
    1SIL  O0116 5408   2.488   3.229   0.872
    1SIL  Si0VZ 5409   2.097   3.631   0.393
    1SIL  Si0Va 5410   1.851   3.605   0.755
    1SIL  Si0Vb 5411   2.196   3.405   0.574
    1SIL  O0117 5412   1.997   3.581   0.819
    1SIL  O0118 5413   2.044   3.769   0.457
    1SIL  O0119 5414   1.857   3.716   0.638
    1SIL  O011A 5415   2.103   3.520   0.510
    1SIL  O011B 5416   2.290   3.467   0.691
    1SIL  O011C 5417   2.242   3.655   0.872
    1SIL  Si0Vc 5418   1.851   4.057   0.393
    1SIL  Si0Vd 5419   1.605   4.030   0.755
    1SIL  Si0Ve 5420   1.951   3.831   0.574
    1SIL  O011D 5421   1.751   4.007   0.819
    1SIL  O011E 5422   1.798   4.195   0.457
    1SIL  O011F 5423   1.612   4.142   0.638
    1SIL  O011G 5424   1.857   3.945   0.510
    1SIL  O011H 5425   2.044   3.892   0.691
    1SIL  O011I 5426   1.997   4.081   0.872
    1SIL  Si0Vf 5427   1.605   4.483   0.393
    1SIL  Si0Vg 5428   1.359   4.456   0.755
    1SIL  Si0Vh 5429   1.705   4.256   0.574
    1SIL  O011J 5430   1.505   4.432   0.819
    1SIL  O011K 5431   1.552   4.621   0.457
    1SIL  O011L 5432   1.366   4.568   0.638
    1SIL  O011M 5433   1.612   4.371   0.510
    1SIL  O011N 5434   1.798   4.318   0.691
    1SIL  O011O 5435   1.751   4.506   0.872
    1SIL  Si0Vi 5436   1.359   4.908   0.393
    1SIL  Si0Vj 5437   1.114   4.882   0.755
    1SIL  Si0Vk 5438   1.459   4.682   0.574
    1SIL  O011P 5439   1.259   4.858   0.819
    1SIL  O011Q 5440   1.307   5.046   0.457
    1SIL  O011R 5441   1.120   4.993   0.638
    1SIL  O011S 5442   1.366   4.797   0.510
    1SIL  O011T 5443   1.552   4.744   0.691
    1SIL  O011U 5444   1.505   4.932   0.872
    1SIL  Si0Vl 5445   1.114   5.334   0.393
    1SIL  Si0Vm 5446   0.868   5.307   0.755
    1SIL  Si0Vn 5447   1.213   5.108   0.574
    1SIL  O011V 5448   1.014   5.284   0.819
    1SIL  O011W 5449   1.061   5.472   0.457
    1SIL  O011X 5450   0.874   5.419   0.638
    1SIL  O011Y 5451   1.120   5.222   0.510
    1SIL  O011Z 5452   1.307   5.169   0.691
    1SIL  O011a 5453   1.259   5.357   0.872
    1SIL  Si0Vo 5454   0.868   5.759   0.393
    1SIL  Si0Vp 5455   0.622   5.733   0.755
    1SIL  Si0Vq 5456   0.968   5.533   0.574
    1SIL  O011b 5457   0.768   5.709   0.819
    1SIL  O011c 5458   0.815   5.898   0.457
    1SIL  O011d 5459   0.629   5.844   0.638
    1SIL  O011e 5460   0.874   5.648   0.510
    1SIL  O011f 5461   1.061   5.595   0.691
    1SIL  O011g 5462   1.014   5.783   0.872
    1SIL  Si0Vr 5463   0.622   6.185   0.393
    1SIL  Si0Vs 5464   0.376   6.159   0.755
    1SIL  Si0Vt 5465   0.722   5.959   0.574
    1SIL  O011h 5466   0.522   6.135   0.819
    1SIL  O011i 5467   0.569   6.323   0.457
    1SIL  O011j 5468   0.383   6.270   0.638
    1SIL  O011k 5469   0.629   6.074   0.510
    1SIL  O011l 5470   0.815   6.020   0.691
    1SIL  O011m 5471   0.768   6.209   0.872
    1SIL  Si0Vu 5472   0.376   6.611   0.393
    1SIL  Si0Vv 5473   0.131   6.584   0.755
    1SIL  Si0Vw 5474   0.476   6.385   0.574
    1SIL  O011n 5475   0.276   6.561   0.819
    1SIL  O011o 5476   0.324   6.749   0.457
    1SIL  O011p 5477   0.137   6.696   0.638
    1SIL  O011q 5478   0.383   6.499   0.510
    1SIL  O011r 5479   0.569   6.446   0.691
    1SIL  O011s 5480   0.522   6.634   0.872
    1SIL  Si0Vx 5481   0.131   7.036   0.393
    1SIL  Si0Vy 5482   9.715   7.010   0.755
    1SIL  Si0Vz 5483   0.230   6.810   0.574
    1SIL  O011t 5484   0.031   6.986   0.819
    1SIL  O011u 5485   0.078   7.175   0.457
    1SIL  O011v 5486   9.721   7.121   0.638
    1SIL  O011w 5487   0.137   6.925   0.510
    1SIL  O011x 5488   0.324   6.872   0.691
    1SIL  O011y 5489   0.276   7.060   0.872
    1SIL  Si0W0 5490   9.715   7.462   0.393
    1SIL  Si0W1 5491   9.469   7.436   0.755
    1SIL  Si0W2 5492   9.815   7.236   0.574
    1SIL  O011z 5493   9.615   7.412   0.819
    1SIL  O0120 5494   9.662   7.600   0.457
    1SIL  O0121 5495   9.475   7.547   0.638
    1SIL  O0122 5496   9.721   7.351   0.510
    1SIL  O0123 5497   0.078   7.297   0.691
    1SIL  O0124 5498   0.031   7.486   0.872
    1SIL  Si0W3 5499   9.469   7.888   0.393
    1SIL  Si0W4 5500   9.223   7.861   0.755
    1SIL  Si0W5 5501   9.569   7.662   0.574
    1SIL  O0125 5502   9.369   7.838   0.819
    1SIL  O0126 5503   9.416   8.026   0.457
    1SIL  O0127 5504   9.230   7.973   0.638
    1SIL  O0128 5505   9.475   7.776   0.510
    1SIL  O0129 5506   9.662   7.723   0.691
    1SIL  O012A 5507   9.615   7.911   0.872
    1SIL  Si0W6 5508   9.223   8.313   0.393
    1SIL  Si0W7 5509   8.977   8.287   0.755
    1SIL  Si0W8 5510   9.323   8.087   0.574
    1SIL  O012B 5511   9.123   8.263   0.819
    1SIL  O012C 5512   9.171   8.452   0.457
    1SIL  O012D 5513   8.984   8.398   0.638
    1SIL  O012E 5514   9.230   8.202   0.510
    1SIL  O012F 5515   9.416   8.149   0.691
    1SIL  O012G 5516   9.369   8.337   0.872
    1SIL  Si0W9 5517   8.977   8.739   0.393
    1SIL  Si0WA 5518   8.732   8.713   0.755
    1SIL  Si0WB 5519   9.077   8.513   0.574
    1SIL  O012H 5520   8.878   8.689   0.819
    1SIL  O012I 5521   8.925   8.877   0.457
    1SIL  O012J 5522   8.738   8.824   0.638
    1SIL  O012K 5523   8.984   8.628   0.510
    1SIL  O012L 5524   9.171   8.574   0.691
    1SIL  O012M 5525   9.123   8.763   0.872
    1SIL  Si0WC 5526   8.732   9.165   0.393
    1SIL  Si0WD 5527   8.486   9.138   0.755
    1SIL  Si0WE 5528   8.832   8.939   0.574
    1SIL  O012N 5529   8.632   9.115   0.819
    1SIL  O012O 5530   8.679   9.303   0.457
    1SIL  O012P 5531   8.492   9.250   0.638
    1SIL  O012Q 5532   8.738   9.053   0.510
    1SIL  O012R 5533   8.925   9.000   0.691
    1SIL  O012S 5534   8.878   9.188   0.872
    1SIL  Si0WF 5535   8.486   9.590   0.393
    1SIL  Si0WG 5536   8.240   9.564   0.755
    1SIL  Si0WH 5537   8.586   9.364   0.574
    1SIL  O012T 5538   8.386   9.540   0.819
    1SIL  O012U 5539   8.433   9.729   0.457
    1SIL  O012V 5540   8.247   9.675   0.638
    1SIL  O012W 5541   8.492   9.479   0.510
    1SIL  O012X 5542   8.679   9.426   0.691
    1SIL  O012Y 5543   8.632   9.614   0.872
    1SIL  Si0WI 5544   4.554   0.226   0.393
    1SIL  Si0WJ 5545   4.308   0.200   0.755
    1SIL  Si0WK 5546   4.654   0.000   0.574
    1SIL  O012Z 5547   4.454   0.176   0.819
    1SIL  O012a 5548   4.501   0.364   0.457
    1SIL  O012b 5549   4.315   0.311   0.638
    1SIL  O012c 5550   4.560   0.115   0.510
    1SIL  O012d 5551   4.747   0.061   0.691
    1SIL  O012e 5552   4.700   0.250   0.872
    1SIL  Si0WL 5553   4.308   0.652   0.393
    1SIL  Si0WM 5554   4.062   0.625   0.755
    1SIL  Si0WN 5555   4.408   0.426   0.574
    1SIL  O012f 5556   4.208   0.602   0.819
    1SIL  O012g 5557   4.256   0.790   0.457
    1SIL  O012h 5558   4.069   0.737   0.638
    1SIL  O012i 5559   4.315   0.540   0.510
    1SIL  O012j 5560   4.501   0.487   0.691
    1SIL  O012k 5561   4.454   0.675   0.872
    1SIL  Si0WO 5562   4.062   1.077   0.393
    1SIL  Si0WP 5563   3.817   1.051   0.755
    1SIL  Si0WQ 5564   4.162   0.851   0.574
    1SIL  O012l 5565   3.963   1.027   0.819
    1SIL  O012m 5566   4.010   1.216   0.457
    1SIL  O012n 5567   3.823   1.162   0.638
    1SIL  O012o 5568   4.069   0.966   0.510
    1SIL  O012p 5569   4.256   0.913   0.691
    1SIL  O012q 5570   4.208   1.101   0.872
    1SIL  Si0WR 5571   3.817   1.503   0.393
    1SIL  Si0WS 5572   3.571   1.477   0.755
    1SIL  Si0WT 5573   3.917   1.277   0.574
    1SIL  O012r 5574   3.717   1.453   0.819
    1SIL  O012s 5575   3.764   1.641   0.457
    1SIL  O012t 5576   3.577   1.588   0.638
    1SIL  O012u 5577   3.823   1.392   0.510
    1SIL  O012v 5578   4.010   1.338   0.691
    1SIL  O012w 5579   3.963   1.527   0.872
    1SIL  Si0WU 5580   3.571   1.929   0.393
    1SIL  Si0WV 5581   3.325   1.902   0.755
    1SIL  Si0WW 5582   3.671   1.703   0.574
    1SIL  O012x 5583   3.471   1.879   0.819
    1SIL  O012y 5584   3.518   2.067   0.457
    1SIL  O012z 5585   3.332   2.014   0.638
    1SIL  O0130 5586   3.577   1.817   0.510
    1SIL  O0131 5587   3.764   1.764   0.691
    1SIL  O0132 5588   3.717   1.952   0.872
    1SIL  Si0WX 5589   3.325   2.354   0.393
    1SIL  Si0WY 5590   3.079   2.328   0.755
    1SIL  Si0WZ 5591   3.425   2.128   0.574
    1SIL  O0133 5592   3.225   2.304   0.819
    1SIL  O0134 5593   3.273   2.493   0.457
    1SIL  O0135 5594   3.086   2.439   0.638
    1SIL  O0136 5595   3.332   2.243   0.510
    1SIL  O0137 5596   3.518   2.190   0.691
    1SIL  O0138 5597   3.471   2.378   0.872
    1SIL  Si0Wa 5598   3.079   2.780   0.393
    1SIL  Si0Wb 5599   2.834   2.753   0.755
    1SIL  Si0Wc 5600   3.179   2.554   0.574
    1SIL  O0139 5601   2.980   2.730   0.819
    1SIL  O013A 5602   3.027   2.918   0.457
    1SIL  O013B 5603   2.840   2.865   0.638
    1SIL  O013C 5604   3.086   2.668   0.510
    1SIL  O013D 5605   3.273   2.615   0.691
    1SIL  O013E 5606   3.225   2.804   0.872
    1SIL  Si0Wd 5607   2.834   3.206   0.393
    1SIL  Si0We 5608   2.588   3.179   0.755
    1SIL  Si0Wf 5609   2.934   2.980   0.574
    1SIL  O013F 5610   2.734   3.156   0.819
    1SIL  O013G 5611   2.781   3.344   0.457
    1SIL  O013H 5612   2.595   3.291   0.638
    1SIL  O013I 5613   2.840   3.094   0.510
    1SIL  O013J 5614   3.027   3.041   0.691
    1SIL  O013K 5615   2.980   3.229   0.872
    1SIL  Si0Wg 5616   2.588   3.631   0.393
    1SIL  Si0Wh 5617   2.342   3.605   0.755
    1SIL  Si0Wi 5618   2.688   3.405   0.574
    1SIL  O013L 5619   2.488   3.581   0.819
    1SIL  O013M 5620   2.535   3.769   0.457
    1SIL  O013N 5621   2.349   3.716   0.638
    1SIL  O013O 5622   2.595   3.520   0.510
    1SIL  O013P 5623   2.781   3.467   0.691
    1SIL  O013Q 5624   2.734   3.655   0.872
    1SIL  Si0Wj 5625   2.342   4.057   0.393
    1SIL  Si0Wk 5626   2.097   4.030   0.755
    1SIL  Si0Wl 5627   2.442   3.831   0.574
    1SIL  O013R 5628   2.242   4.007   0.819
    1SIL  O013S 5629   2.290   4.195   0.457
    1SIL  O013T 5630   2.103   4.142   0.638
    1SIL  O013U 5631   2.349   3.945   0.510
    1SIL  O013V 5632   2.535   3.892   0.691
    1SIL  O013W 5633   2.488   4.081   0.872
    1SIL  Si0Wm 5634   2.097   4.483   0.393
    1SIL  Si0Wn 5635   1.851   4.456   0.755
    1SIL  Si0Wo 5636   2.196   4.256   0.574
    1SIL  O013X 5637   1.997   4.432   0.819
    1SIL  O013Y 5638   2.044   4.621   0.457
    1SIL  O013Z 5639   1.857   4.568   0.638
    1SIL  O013a 5640   2.103   4.371   0.510
    1SIL  O013b 5641   2.290   4.318   0.691
    1SIL  O013c 5642   2.242   4.506   0.872
    1SIL  Si0Wp 5643   1.851   4.908   0.393
    1SIL  Si0Wq 5644   1.605   4.882   0.755
    1SIL  Si0Wr 5645   1.951   4.682   0.574
    1SIL  O013d 5646   1.751   4.858   0.819
    1SIL  O013e 5647   1.798   5.046   0.457
    1SIL  O013f 5648   1.612   4.993   0.638
    1SIL  O013g 5649   1.857   4.797   0.510
    1SIL  O013h 5650   2.044   4.744   0.691
    1SIL  O013i 5651   1.997   4.932   0.872
    1SIL  Si0Ws 5652   1.605   5.334   0.393
    1SIL  Si0Wt 5653   1.359   5.307   0.755
    1SIL  Si0Wu 5654   1.705   5.108   0.574
    1SIL  O013j 5655   1.505   5.284   0.819
    1SIL  O013k 5656   1.552   5.472   0.457
    1SIL  O013l 5657   1.366   5.419   0.638
    1SIL  O013m 5658   1.612   5.222   0.510
    1SIL  O013n 5659   1.798   5.169   0.691
    1SIL  O013o 5660   1.751   5.357   0.872
    1SIL  Si0Wv 5661   1.359   5.759   0.393
    1SIL  Si0Ww 5662   1.114   5.733   0.755
    1SIL  Si0Wx 5663   1.459   5.533   0.574
    1SIL  O013p 5664   1.259   5.709   0.819
    1SIL  O013q 5665   1.307   5.898   0.457
    1SIL  O013r 5666   1.120   5.844   0.638
    1SIL  O013s 5667   1.366   5.648   0.510
    1SIL  O013t 5668   1.552   5.595   0.691
    1SIL  O013u 5669   1.505   5.783   0.872
    1SIL  Si0Wy 5670   1.114   6.185   0.393
    1SIL  Si0Wz 5671   0.868   6.159   0.755
    1SIL  Si0X0 5672   1.213   5.959   0.574
    1SIL  O013v 5673   1.014   6.135   0.819
    1SIL  O013w 5674   1.061   6.323   0.457
    1SIL  O013x 5675   0.874   6.270   0.638
    1SIL  O013y 5676   1.120   6.074   0.510
    1SIL  O013z 5677   1.307   6.020   0.691
    1SIL  O0140 5678   1.259   6.209   0.872
    1SIL  Si0X1 5679   0.868   6.611   0.393
    1SIL  Si0X2 5680   0.622   6.584   0.755
    1SIL  Si0X3 5681   0.968   6.385   0.574
    1SIL  O0141 5682   0.768   6.561   0.819
    1SIL  O0142 5683   0.815   6.749   0.457
    1SIL  O0143 5684   0.629   6.696   0.638
    1SIL  O0144 5685   0.874   6.499   0.510
    1SIL  O0145 5686   1.061   6.446   0.691
    1SIL  O0146 5687   1.014   6.634   0.872
    1SIL  Si0X4 5688   0.622   7.036   0.393
    1SIL  Si0X5 5689   0.376   7.010   0.755
    1SIL  Si0X6 5690   0.722   6.810   0.574
    1SIL  O0147 5691   0.522   6.986   0.819
    1SIL  O0148 5692   0.569   7.175   0.457
    1SIL  O0149 5693   0.383   7.121   0.638
    1SIL  O014A 5694   0.629   6.925   0.510
    1SIL  O014B 5695   0.815   6.872   0.691
    1SIL  O014C 5696   0.768   7.060   0.872
    1SIL  Si0X7 5697   0.376   7.462   0.393
    1SIL  Si0X8 5698   0.131   7.436   0.755
    1SIL  Si0X9 5699   0.476   7.236   0.574
    1SIL  O014D 5700   0.276   7.412   0.819
    1SIL  O014E 5701   0.324   7.600   0.457
    1SIL  O014F 5702   0.137   7.547   0.638
    1SIL  O014G 5703   0.383   7.351   0.510
    1SIL  O014H 5704   0.569   7.297   0.691
    1SIL  O014I 5705   0.522   7.486   0.872
    1SIL  Si0XA 5706   0.131   7.888   0.393
    1SIL  Si0XB 5707   9.715   7.861   0.755
    1SIL  Si0XC 5708   0.230   7.662   0.574
    1SIL  O014J 5709   0.031   7.838   0.819
    1SIL  O014K 5710   0.078   8.026   0.457
    1SIL  O014L 5711   9.721   7.973   0.638
    1SIL  O014M 5712   0.137   7.776   0.510
    1SIL  O014N 5713   0.324   7.723   0.691
    1SIL  O014O 5714   0.276   7.911   0.872
    1SIL  Si0XD 5715   9.715   8.313   0.393
    1SIL  Si0XE 5716   9.469   8.287   0.755
    1SIL  Si0XF 5717   9.815   8.087   0.574
    1SIL  O014P 5718   9.615   8.263   0.819
    1SIL  O014Q 5719   9.662   8.452   0.457
    1SIL  O014R 5720   9.475   8.398   0.638
    1SIL  O014S 5721   9.721   8.202   0.510
    1SIL  O014T 5722   0.078   8.149   0.691
    1SIL  O014U 5723   0.031   8.337   0.872
    1SIL  Si0XG 5724   9.469   8.739   0.393
    1SIL  Si0XH 5725   9.223   8.713   0.755
    1SIL  Si0XI 5726   9.569   8.513   0.574
    1SIL  O014V 5727   9.369   8.689   0.819
    1SIL  O014W 5728   9.416   8.877   0.457
    1SIL  O014X 5729   9.230   8.824   0.638
    1SIL  O014Y 5730   9.475   8.628   0.510
    1SIL  O014Z 5731   9.662   8.574   0.691
    1SIL  O014a 5732   9.615   8.763   0.872
    1SIL  Si0XJ 5733   9.223   9.165   0.393
    1SIL  Si0XK 5734   8.977   9.138   0.755
    1SIL  Si0XL 5735   9.323   8.939   0.574
    1SIL  O014b 5736   9.123   9.115   0.819
    1SIL  O014c 5737   9.171   9.303   0.457
    1SIL  O014d 5738   8.984   9.250   0.638
    1SIL  O014e 5739   9.230   9.053   0.510
    1SIL  O014f 5740   9.416   9.000   0.691
    1SIL  O014g 5741   9.369   9.188   0.872
    1SIL  Si0XM 5742   8.977   9.590   0.393
    1SIL  Si0XN 5743   8.732   9.564   0.755
    1SIL  Si0XO 5744   9.077   9.364   0.574
    1SIL  O014h 5745   8.878   9.540   0.819
    1SIL  O014i 5746   8.925   9.729   0.457
    1SIL  O014j 5747   8.738   9.675   0.638
    1SIL  O014k 5748   8.984   9.479   0.510
    1SIL  O014l 5749   9.171   9.426   0.691
    1SIL  O014m 5750   9.123   9.614   0.872
    1SIL  Si0XP 5751   5.045   0.226   0.393
    1SIL  Si0XQ 5752   4.800   0.200   0.755
    1SIL  Si0XR 5753   5.145   0.000   0.574
    1SIL  O014n 5754   4.946   0.176   0.819
    1SIL  O014o 5755   4.993   0.364   0.457
    1SIL  O014p 5756   4.806   0.311   0.638
    1SIL  O014q 5757   5.052   0.115   0.510
    1SIL  O014r 5758   5.239   0.061   0.691
    1SIL  O014s 5759   5.191   0.250   0.872
    1SIL  Si0XS 5760   4.800   0.652   0.393
    1SIL  Si0XT 5761   4.554   0.625   0.755
    1SIL  Si0XU 5762   4.900   0.426   0.574
    1SIL  O014t 5763   4.700   0.602   0.819
    1SIL  O014u 5764   4.747   0.790   0.457
    1SIL  O014v 5765   4.560   0.737   0.638
    1SIL  O014w 5766   4.806   0.540   0.510
    1SIL  O014x 5767   4.993   0.487   0.691
    1SIL  O014y 5768   4.946   0.675   0.872
    1SIL  Si0XV 5769   4.554   1.077   0.393
    1SIL  Si0XW 5770   4.308   1.051   0.755
    1SIL  Si0XX 5771   4.654   0.851   0.574
    1SIL  O014z 5772   4.454   1.027   0.819
    1SIL  O0150 5773   4.501   1.216   0.457
    1SIL  O0151 5774   4.315   1.162   0.638
    1SIL  O0152 5775   4.560   0.966   0.510
    1SIL  O0153 5776   4.747   0.913   0.691
    1SIL  O0154 5777   4.700   1.101   0.872
    1SIL  Si0XY 5778   4.308   1.503   0.393
    1SIL  Si0XZ 5779   4.062   1.477   0.755
    1SIL  Si0Xa 5780   4.408   1.277   0.574
    1SIL  O0155 5781   4.208   1.453   0.819
    1SIL  O0156 5782   4.256   1.641   0.457
    1SIL  O0157 5783   4.069   1.588   0.638
    1SIL  O0158 5784   4.315   1.392   0.510
    1SIL  O0159 5785   4.501   1.338   0.691
    1SIL  O015A 5786   4.454   1.527   0.872
    1SIL  Si0Xb 5787   4.062   1.929   0.393
    1SIL  Si0Xc 5788   3.817   1.902   0.755
    1SIL  Si0Xd 5789   4.162   1.703   0.574
    1SIL  O015B 5790   3.963   1.879   0.819
    1SIL  O015C 5791   4.010   2.067   0.457
    1SIL  O015D 5792   3.823   2.014   0.638
    1SIL  O015E 5793   4.069   1.817   0.510
    1SIL  O015F 5794   4.256   1.764   0.691
    1SIL  O015G 5795   4.208   1.952   0.872
    1SIL  Si0Xe 5796   3.817   2.354   0.393
    1SIL  Si0Xf 5797   3.571   2.328   0.755
    1SIL  Si0Xg 5798   3.917   2.128   0.574
    1SIL  O015H 5799   3.717   2.304   0.819
    1SIL  O015I 5800   3.764   2.493   0.457
    1SIL  O015J 5801   3.577   2.439   0.638
    1SIL  O015K 5802   3.823   2.243   0.510
    1SIL  O015L 5803   4.010   2.190   0.691
    1SIL  O015M 5804   3.963   2.378   0.872
    1SIL  Si0Xh 5805   3.571   2.780   0.393
    1SIL  Si0Xi 5806   3.325   2.753   0.755
    1SIL  Si0Xj 5807   3.671   2.554   0.574
    1SIL  O015N 5808   3.471   2.730   0.819
    1SIL  O015O 5809   3.518   2.918   0.457
    1SIL  O015P 5810   3.332   2.865   0.638
    1SIL  O015Q 5811   3.577   2.668   0.510
    1SIL  O015R 5812   3.764   2.615   0.691
    1SIL  O015S 5813   3.717   2.804   0.872
    1SIL  Si0Xk 5814   3.325   3.206   0.393
    1SIL  Si0Xl 5815   3.079   3.179   0.755
    1SIL  Si0Xm 5816   3.425   2.980   0.574
    1SIL  O015T 5817   3.225   3.156   0.819
    1SIL  O015U 5818   3.273   3.344   0.457
    1SIL  O015V 5819   3.086   3.291   0.638
    1SIL  O015W 5820   3.332   3.094   0.510
    1SIL  O015X 5821   3.518   3.041   0.691
    1SIL  O015Y 5822   3.471   3.229   0.872
    1SIL  Si0Xn 5823   3.079   3.631   0.393
    1SIL  Si0Xo 5824   2.834   3.605   0.755
    1SIL  Si0Xp 5825   3.179   3.405   0.574
    1SIL  O015Z 5826   2.980   3.581   0.819
    1SIL  O015a 5827   3.027   3.769   0.457
    1SIL  O015b 5828   2.840   3.716   0.638
    1SIL  O015c 5829   3.086   3.520   0.510
    1SIL  O015d 5830   3.273   3.467   0.691
    1SIL  O015e 5831   3.225   3.655   0.872
    1SIL  Si0Xq 5832   2.834   4.057   0.393
    1SIL  Si0Xr 5833   2.588   4.030   0.755
    1SIL  Si0Xs 5834   2.934   3.831   0.574
    1SIL  O015f 5835   2.734   4.007   0.819
    1SIL  O015g 5836   2.781   4.195   0.457
    1SIL  O015h 5837   2.595   4.142   0.638
    1SIL  O015i 5838   2.840   3.945   0.510
    1SIL  O015j 5839   3.027   3.892   0.691
    1SIL  O015k 5840   2.980   4.081   0.872
    1SIL  Si0Xt 5841   2.588   4.483   0.393
    1SIL  Si0Xu 5842   2.342   4.456   0.755
    1SIL  Si0Xv 5843   2.688   4.256   0.574
    1SIL  O015l 5844   2.488   4.432   0.819
    1SIL  O015m 5845   2.535   4.621   0.457
    1SIL  O015n 5846   2.349   4.568   0.638
    1SIL  O015o 5847   2.595   4.371   0.510
    1SIL  O015p 5848   2.781   4.318   0.691
    1SIL  O015q 5849   2.734   4.506   0.872
    1SIL  Si0Xw 5850   2.342   4.908   0.393
    1SIL  Si0Xx 5851   2.097   4.882   0.755
    1SIL  Si0Xy 5852   2.442   4.682   0.574
    1SIL  O015r 5853   2.242   4.858   0.819
    1SIL  O015s 5854   2.290   5.046   0.457
    1SIL  O015t 5855   2.103   4.993   0.638
    1SIL  O015u 5856   2.349   4.797   0.510
    1SIL  O015v 5857   2.535   4.744   0.691
    1SIL  O015w 5858   2.488   4.932   0.872
    1SIL  Si0Xz 5859   2.097   5.334   0.393
    1SIL  Si0Y0 5860   1.851   5.307   0.755
    1SIL  Si0Y1 5861   2.196   5.108   0.574
    1SIL  O015x 5862   1.997   5.284   0.819
    1SIL  O015y 5863   2.044   5.472   0.457
    1SIL  O015z 5864   1.857   5.419   0.638
    1SIL  O0160 5865   2.103   5.222   0.510
    1SIL  O0161 5866   2.290   5.169   0.691
    1SIL  O0162 5867   2.242   5.357   0.872
    1SIL  Si0Y2 5868   1.851   5.759   0.393
    1SIL  Si0Y3 5869   1.605   5.733   0.755
    1SIL  Si0Y4 5870   1.951   5.533   0.574
    1SIL  O0163 5871   1.751   5.709   0.819
    1SIL  O0164 5872   1.798   5.898   0.457
    1SIL  O0165 5873   1.612   5.844   0.638
    1SIL  O0166 5874   1.857   5.648   0.510
    1SIL  O0167 5875   2.044   5.595   0.691
    1SIL  O0168 5876   1.997   5.783   0.872
    1SIL  Si0Y5 5877   1.605   6.185   0.393
    1SIL  Si0Y6 5878   1.359   6.159   0.755
    1SIL  Si0Y7 5879   1.705   5.959   0.574
    1SIL  O0169 5880   1.505   6.135   0.819
    1SIL  O016A 5881   1.552   6.323   0.457
    1SIL  O016B 5882   1.366   6.270   0.638
    1SIL  O016C 5883   1.612   6.074   0.510
    1SIL  O016D 5884   1.798   6.020   0.691
    1SIL  O016E 5885   1.751   6.209   0.872
    1SIL  Si0Y8 5886   1.359   6.611   0.393
    1SIL  Si0Y9 5887   1.114   6.584   0.755
    1SIL  Si0YA 5888   1.459   6.385   0.574
    1SIL  O016F 5889   1.259   6.561   0.819
    1SIL  O016G 5890   1.307   6.749   0.457
    1SIL  O016H 5891   1.120   6.696   0.638
    1SIL  O016I 5892   1.366   6.499   0.510
    1SIL  O016J 5893   1.552   6.446   0.691
    1SIL  O016K 5894   1.505   6.634   0.872
    1SIL  Si0YB 5895   1.114   7.036   0.393
    1SIL  Si0YC 5896   0.868   7.010   0.755
    1SIL  Si0YD 5897   1.213   6.810   0.574
    1SIL  O016L 5898   1.014   6.986   0.819
    1SIL  O016M 5899   1.061   7.175   0.457
    1SIL  O016N 5900   0.874   7.121   0.638
    1SIL  O016O 5901   1.120   6.925   0.510
    1SIL  O016P 5902   1.307   6.872   0.691
    1SIL  O016Q 5903   1.259   7.060   0.872
    1SIL  Si0YE 5904   0.868   7.462   0.393
    1SIL  Si0YF 5905   0.622   7.436   0.755
    1SIL  Si0YG 5906   0.968   7.236   0.574
    1SIL  O016R 5907   0.768   7.412   0.819
    1SIL  O016S 5908   0.815   7.600   0.457
    1SIL  O016T 5909   0.629   7.547   0.638
    1SIL  O016U 5910   0.874   7.351   0.510
    1SIL  O016V 5911   1.061   7.297   0.691
    1SIL  O016W 5912   1.014   7.486   0.872
    1SIL  Si0YH 5913   0.622   7.888   0.393
    1SIL  Si0YI 5914   0.376   7.861   0.755
    1SIL  Si0YJ 5915   0.722   7.662   0.574
    1SIL  O016X 5916   0.522   7.838   0.819
    1SIL  O016Y 5917   0.569   8.026   0.457
    1SIL  O016Z 5918   0.383   7.973   0.638
    1SIL  O016a 5919   0.629   7.776   0.510
    1SIL  O016b 5920   0.815   7.723   0.691
    1SIL  O016c 5921   0.768   7.911   0.872
    1SIL  Si0YK 5922   0.376   8.313   0.393
    1SIL  Si0YL 5923   0.131   8.287   0.755
    1SIL  Si0YM 5924   0.476   8.087   0.574
    1SIL  O016d 5925   0.276   8.263   0.819
    1SIL  O016e 5926   0.324   8.452   0.457
    1SIL  O016f 5927   0.137   8.398   0.638
    1SIL  O016g 5928   0.383   8.202   0.510
    1SIL  O016h 5929   0.569   8.149   0.691
    1SIL  O016i 5930   0.522   8.337   0.872
    1SIL  Si0YN 5931   0.131   8.739   0.393
    1SIL  Si0YO 5932   9.715   8.713   0.755
    1SIL  Si0YP 5933   0.230   8.513   0.574
    1SIL  O016j 5934   0.031   8.689   0.819
    1SIL  O016k 5935   0.078   8.877   0.457
    1SIL  O016l 5936   9.721   8.824   0.638
    1SIL  O016m 5937   0.137   8.628   0.510
    1SIL  O016n 5938   0.324   8.574   0.691
    1SIL  O016o 5939   0.276   8.763   0.872
    1SIL  Si0YQ 5940   9.715   9.165   0.393
    1SIL  Si0YR 5941   9.469   9.138   0.755
    1SIL  Si0YS 5942   9.815   8.939   0.574
    1SIL  O016p 5943   9.615   9.115   0.819
    1SIL  O016q 5944   9.662   9.303   0.457
    1SIL  O016r 5945   9.475   9.250   0.638
    1SIL  O016s 5946   9.721   9.053   0.510
    1SIL  O016t 5947   0.078   9.000   0.691
    1SIL  O016u 5948   0.031   9.188   0.872
    1SIL  Si0YT 5949   9.469   9.590   0.393
    1SIL  Si0YU 5950   9.223   9.564   0.755
    1SIL  Si0YV 5951   9.569   9.364   0.574
    1SIL  O016v 5952   9.369   9.540   0.819
    1SIL  O016w 5953   9.416   9.729   0.457
    1SIL  O016x 5954   9.230   9.675   0.638
    1SIL  O016y 5955   9.475   9.479   0.510
    1SIL  O016z 5956   9.662   9.426   0.691
    1SIL  O0170 5957   9.615   9.614   0.872
    1SIL  Si0YW 5958   5.537   0.226   0.393
    1SIL  Si0YX 5959   5.291   0.200   0.755
    1SIL  Si0YY 5960   5.637   0.000   0.574
    1SIL  O0171 5961   5.437   0.176   0.819
    1SIL  O0172 5962   5.484   0.364   0.457
    1SIL  O0173 5963   5.298   0.311   0.638
    1SIL  O0174 5964   5.543   0.115   0.510
    1SIL  O0175 5965   5.730   0.061   0.691
    1SIL  O0176 5966   5.683   0.250   0.872
    1SIL  Si0YZ 5967   5.291   0.652   0.393
    1SIL  Si0Ya 5968   5.045   0.625   0.755
    1SIL  Si0Yb 5969   5.391   0.426   0.574
    1SIL  O0177 5970   5.191   0.602   0.819
    1SIL  O0178 5971   5.239   0.790   0.457
    1SIL  O0179 5972   5.052   0.737   0.638
    1SIL  O017A 5973   5.298   0.540   0.510
    1SIL  O017B 5974   5.484   0.487   0.691
    1SIL  O017C 5975   5.437   0.675   0.872
    1SIL  Si0Yc 5976   5.045   1.077   0.393
    1SIL  Si0Yd 5977   4.800   1.051   0.755
    1SIL  Si0Ye 5978   5.145   0.851   0.574
    1SIL  O017D 5979   4.946   1.027   0.819
    1SIL  O017E 5980   4.993   1.216   0.457
    1SIL  O017F 5981   4.806   1.162   0.638
    1SIL  O017G 5982   5.052   0.966   0.510
    1SIL  O017H 5983   5.239   0.913   0.691
    1SIL  O017I 5984   5.191   1.101   0.872
    1SIL  Si0Yf 5985   4.800   1.503   0.393
    1SIL  Si0Yg 5986   4.554   1.477   0.755
    1SIL  Si0Yh 5987   4.900   1.277   0.574
    1SIL  O017J 5988   4.700   1.453   0.819
    1SIL  O017K 5989   4.747   1.641   0.457
    1SIL  O017L 5990   4.560   1.588   0.638
    1SIL  O017M 5991   4.806   1.392   0.510
    1SIL  O017N 5992   4.993   1.338   0.691
    1SIL  O017O 5993   4.946   1.527   0.872
    1SIL  Si0Yi 5994   4.554   1.929   0.393
    1SIL  Si0Yj 5995   4.308   1.902   0.755
    1SIL  Si0Yk 5996   4.654   1.703   0.574
    1SIL  O017P 5997   4.454   1.879   0.819
    1SIL  O017Q 5998   4.501   2.067   0.457
    1SIL  O017R 5999   4.315   2.014   0.638
    1SIL  O017S 6000   4.560   1.817   0.510
    1SIL  O017T 6001   4.747   1.764   0.691
    1SIL  O017U 6002   4.700   1.952   0.872
    1SIL  Si0Yl 6003   4.308   2.354   0.393
    1SIL  Si0Ym 6004   4.062   2.328   0.755
    1SIL  Si0Yn 6005   4.408   2.128   0.574
    1SIL  O017V 6006   4.208   2.304   0.819
    1SIL  O017W 6007   4.256   2.493   0.457
    1SIL  O017X 6008   4.069   2.439   0.638
    1SIL  O017Y 6009   4.315   2.243   0.510
    1SIL  O017Z 6010   4.501   2.190   0.691
    1SIL  O017a 6011   4.454   2.378   0.872
    1SIL  Si0Yo 6012   4.062   2.780   0.393
    1SIL  Si0Yp 6013   3.817   2.753   0.755
    1SIL  Si0Yq 6014   4.162   2.554   0.574
    1SIL  O017b 6015   3.963   2.730   0.819
    1SIL  O017c 6016   4.010   2.918   0.457
    1SIL  O017d 6017   3.823   2.865   0.638
    1SIL  O017e 6018   4.069   2.668   0.510
    1SIL  O017f 6019   4.256   2.615   0.691
    1SIL  O017g 6020   4.208   2.804   0.872
    1SIL  Si0Yr 6021   3.817   3.206   0.393
    1SIL  Si0Ys 6022   3.571   3.179   0.755
    1SIL  Si0Yt 6023   3.917   2.980   0.574
    1SIL  O017h 6024   3.717   3.156   0.819
    1SIL  O017i 6025   3.764   3.344   0.457
    1SIL  O017j 6026   3.577   3.291   0.638
    1SIL  O017k 6027   3.823   3.094   0.510
    1SIL  O017l 6028   4.010   3.041   0.691
    1SIL  O017m 6029   3.963   3.229   0.872
    1SIL  Si0Yu 6030   3.571   3.631   0.393
    1SIL  Si0Yv 6031   3.325   3.605   0.755
    1SIL  Si0Yw 6032   3.671   3.405   0.574
    1SIL  O017n 6033   3.471   3.581   0.819
    1SIL  O017o 6034   3.518   3.769   0.457
    1SIL  O017p 6035   3.332   3.716   0.638
    1SIL  O017q 6036   3.577   3.520   0.510
    1SIL  O017r 6037   3.764   3.467   0.691
    1SIL  O017s 6038   3.717   3.655   0.872
    1SIL  Si0Yx 6039   3.325   4.057   0.393
    1SIL  Si0Yy 6040   3.079   4.030   0.755
    1SIL  Si0Yz 6041   3.425   3.831   0.574
    1SIL  O017t 6042   3.225   4.007   0.819
    1SIL  O017u 6043   3.273   4.195   0.457
    1SIL  O017v 6044   3.086   4.142   0.638
    1SIL  O017w 6045   3.332   3.945   0.510
    1SIL  O017x 6046   3.518   3.892   0.691
    1SIL  O017y 6047   3.471   4.081   0.872
    1SIL  Si0Z0 6048   3.079   4.483   0.393
    1SIL  Si0Z1 6049   2.834   4.456   0.755
    1SIL  Si0Z2 6050   3.179   4.256   0.574
    1SIL  O017z 6051   2.980   4.432   0.819
    1SIL  O0180 6052   3.027   4.621   0.457
    1SIL  O0181 6053   2.840   4.568   0.638
    1SIL  O0182 6054   3.086   4.371   0.510
    1SIL  O0183 6055   3.273   4.318   0.691
    1SIL  O0184 6056   3.225   4.506   0.872
    1SIL  Si0Z3 6057   2.834   4.908   0.393
    1SIL  Si0Z4 6058   2.588   4.882   0.755
    1SIL  Si0Z5 6059   2.934   4.682   0.574
    1SIL  O0185 6060   2.734   4.858   0.819
    1SIL  O0186 6061   2.781   5.046   0.457
    1SIL  O0187 6062   2.595   4.993   0.638
    1SIL  O0188 6063   2.840   4.797   0.510
    1SIL  O0189 6064   3.027   4.744   0.691
    1SIL  O018A 6065   2.980   4.932   0.872
    1SIL  Si0Z6 6066   2.588   5.334   0.393
    1SIL  Si0Z7 6067   2.342   5.307   0.755
    1SIL  Si0Z8 6068   2.688   5.108   0.574
    1SIL  O018B 6069   2.488   5.284   0.819
    1SIL  O018C 6070   2.535   5.472   0.457
    1SIL  O018D 6071   2.349   5.419   0.638
    1SIL  O018E 6072   2.595   5.222   0.510
    1SIL  O018F 6073   2.781   5.169   0.691
    1SIL  O018G 6074   2.734   5.357   0.872
    1SIL  Si0Z9 6075   2.342   5.759   0.393
    1SIL  Si0ZA 6076   2.097   5.733   0.755
    1SIL  Si0ZB 6077   2.442   5.533   0.574
    1SIL  O018H 6078   2.242   5.709   0.819
    1SIL  O018I 6079   2.290   5.898   0.457
    1SIL  O018J 6080   2.103   5.844   0.638
    1SIL  O018K 6081   2.349   5.648   0.510
    1SIL  O018L 6082   2.535   5.595   0.691
    1SIL  O018M 6083   2.488   5.783   0.872
    1SIL  Si0ZC 6084   2.097   6.185   0.393
    1SIL  Si0ZD 6085   1.851   6.159   0.755
    1SIL  Si0ZE 6086   2.196   5.959   0.574
    1SIL  O018N 6087   1.997   6.135   0.819
    1SIL  O018O 6088   2.044   6.323   0.457
    1SIL  O018P 6089   1.857   6.270   0.638
    1SIL  O018Q 6090   2.103   6.074   0.510
    1SIL  O018R 6091   2.290   6.020   0.691
    1SIL  O018S 6092   2.242   6.209   0.872
    1SIL  Si0ZF 6093   1.851   6.611   0.393
    1SIL  Si0ZG 6094   1.605   6.584   0.755
    1SIL  Si0ZH 6095   1.951   6.385   0.574
    1SIL  O018T 6096   1.751   6.561   0.819
    1SIL  O018U 6097   1.798   6.749   0.457
    1SIL  O018V 6098   1.612   6.696   0.638
    1SIL  O018W 6099   1.857   6.499   0.510
    1SIL  O018X 6100   2.044   6.446   0.691
    1SIL  O018Y 6101   1.997   6.634   0.872
    1SIL  Si0ZI 6102   1.605   7.036   0.393
    1SIL  Si0ZJ 6103   1.359   7.010   0.755
    1SIL  Si0ZK 6104   1.705   6.810   0.574
    1SIL  O018Z 6105   1.505   6.986   0.819
    1SIL  O018a 6106   1.552   7.175   0.457
    1SIL  O018b 6107   1.366   7.121   0.638
    1SIL  O018c 6108   1.612   6.925   0.510
    1SIL  O018d 6109   1.798   6.872   0.691
    1SIL  O018e 6110   1.751   7.060   0.872
    1SIL  Si0ZL 6111   1.359   7.462   0.393
    1SIL  Si0ZM 6112   1.114   7.436   0.755
    1SIL  Si0ZN 6113   1.459   7.236   0.574
    1SIL  O018f 6114   1.259   7.412   0.819
    1SIL  O018g 6115   1.307   7.600   0.457
    1SIL  O018h 6116   1.120   7.547   0.638
    1SIL  O018i 6117   1.366   7.351   0.510
    1SIL  O018j 6118   1.552   7.297   0.691
    1SIL  O018k 6119   1.505   7.486   0.872
    1SIL  Si0ZO 6120   1.114   7.888   0.393
    1SIL  Si0ZP 6121   0.868   7.861   0.755
    1SIL  Si0ZQ 6122   1.213   7.662   0.574
    1SIL  O018l 6123   1.014   7.838   0.819
    1SIL  O018m 6124   1.061   8.026   0.457
    1SIL  O018n 6125   0.874   7.973   0.638
    1SIL  O018o 6126   1.120   7.776   0.510
    1SIL  O018p 6127   1.307   7.723   0.691
    1SIL  O018q 6128   1.259   7.911   0.872
    1SIL  Si0ZR 6129   0.868   8.313   0.393
    1SIL  Si0ZS 6130   0.622   8.287   0.755
    1SIL  Si0ZT 6131   0.968   8.087   0.574
    1SIL  O018r 6132   0.768   8.263   0.819
    1SIL  O018s 6133   0.815   8.452   0.457
    1SIL  O018t 6134   0.629   8.398   0.638
    1SIL  O018u 6135   0.874   8.202   0.510
    1SIL  O018v 6136   1.061   8.149   0.691
    1SIL  O018w 6137   1.014   8.337   0.872
    1SIL  Si0ZU 6138   0.622   8.739   0.393
    1SIL  Si0ZV 6139   0.376   8.713   0.755
    1SIL  Si0ZW 6140   0.722   8.513   0.574
    1SIL  O018x 6141   0.522   8.689   0.819
    1SIL  O018y 6142   0.569   8.877   0.457
    1SIL  O018z 6143   0.383   8.824   0.638
    1SIL  O0190 6144   0.629   8.628   0.510
    1SIL  O0191 6145   0.815   8.574   0.691
    1SIL  O0192 6146   0.768   8.763   0.872
    1SIL  Si0ZX 6147   0.376   9.165   0.393
    1SIL  Si0ZY 6148   0.131   9.138   0.755
    1SIL  Si0ZZ 6149   0.476   8.939   0.574
    1SIL  O0193 6150   0.276   9.115   0.819
    1SIL  O0194 6151   0.324   9.303   0.457
    1SIL  O0195 6152   0.137   9.250   0.638
    1SIL  O0196 6153   0.383   9.053   0.510
    1SIL  O0197 6154   0.569   9.000   0.691
    1SIL  O0198 6155   0.522   9.188   0.872
    1SIL  Si0Za 6156   0.131   9.590   0.393
    1SIL  Si0Zb 6157   9.715   9.564   0.755
    1SIL  Si0Zc 6158   0.230   9.364   0.574
    1SIL  O0199 6159   0.031   9.540   0.819
    1SIL  O019A 6160   0.078   9.729   0.457
    1SIL  O019B 6161   9.721   9.675   0.638
    1SIL  O019C 6162   0.137   9.479   0.510
    1SIL  O019D 6163   0.324   9.426   0.691
    1SIL  O019E 6164   0.276   9.614   0.872
    1SIL  Si0Zd 6165   6.028   0.226   0.393
    1SIL  Si0Ze 6166   5.783   0.200   0.755
    1SIL  Si0Zf 6167   6.128   0.000   0.574
    1SIL  O019F 6168   5.929   0.176   0.819
    1SIL  O019G 6169   5.976   0.364   0.457
    1SIL  O019H 6170   5.789   0.311   0.638
    1SIL  O019I 6171   6.035   0.115   0.510
    1SIL  O019J 6172   6.222   0.061   0.691
    1SIL  O019K 6173   6.174   0.250   0.872
    1SIL  Si0Zg 6174   5.783   0.652   0.393
    1SIL  Si0Zh 6175   5.537   0.625   0.755
    1SIL  Si0Zi 6176   5.883   0.426   0.574
    1SIL  O019L 6177   5.683   0.602   0.819
    1SIL  O019M 6178   5.730   0.790   0.457
    1SIL  O019N 6179   5.543   0.737   0.638
    1SIL  O019O 6180   5.789   0.540   0.510
    1SIL  O019P 6181   5.976   0.487   0.691
    1SIL  O019Q 6182   5.929   0.675   0.872
    1SIL  Si0Zj 6183   5.537   1.077   0.393
    1SIL  Si0Zk 6184   5.291   1.051   0.755
    1SIL  Si0Zl 6185   5.637   0.851   0.574
    1SIL  O019R 6186   5.437   1.027   0.819
    1SIL  O019S 6187   5.484   1.216   0.457
    1SIL  O019T 6188   5.298   1.162   0.638
    1SIL  O019U 6189   5.543   0.966   0.510
    1SIL  O019V 6190   5.730   0.913   0.691
    1SIL  O019W 6191   5.683   1.101   0.872
    1SIL  Si0Zm 6192   5.291   1.503   0.393
    1SIL  Si0Zn 6193   5.045   1.477   0.755
    1SIL  Si0Zo 6194   5.391   1.277   0.574
    1SIL  O019X 6195   5.191   1.453   0.819
    1SIL  O019Y 6196   5.239   1.641   0.457
    1SIL  O019Z 6197   5.052   1.588   0.638
    1SIL  O019a 6198   5.298   1.392   0.510
    1SIL  O019b 6199   5.484   1.338   0.691
    1SIL  O019c 6200   5.437   1.527   0.872
    1SIL  Si0Zp 6201   5.045   1.929   0.393
    1SIL  Si0Zq 6202   4.800   1.902   0.755
    1SIL  Si0Zr 6203   5.145   1.703   0.574
    1SIL  O019d 6204   4.946   1.879   0.819
    1SIL  O019e 6205   4.993   2.067   0.457
    1SIL  O019f 6206   4.806   2.014   0.638
    1SIL  O019g 6207   5.052   1.817   0.510
    1SIL  O019h 6208   5.239   1.764   0.691
    1SIL  O019i 6209   5.191   1.952   0.872
    1SIL  Si0Zs 6210   4.800   2.354   0.393
    1SIL  Si0Zt 6211   4.554   2.328   0.755
    1SIL  Si0Zu 6212   4.900   2.128   0.574
    1SIL  O019j 6213   4.700   2.304   0.819
    1SIL  O019k 6214   4.747   2.493   0.457
    1SIL  O019l 6215   4.560   2.439   0.638
    1SIL  O019m 6216   4.806   2.243   0.510
    1SIL  O019n 6217   4.993   2.190   0.691
    1SIL  O019o 6218   4.946   2.378   0.872
    1SIL  Si0Zv 6219   4.554   2.780   0.393
    1SIL  Si0Zw 6220   4.308   2.753   0.755
    1SIL  Si0Zx 6221   4.654   2.554   0.574
    1SIL  O019p 6222   4.454   2.730   0.819
    1SIL  O019q 6223   4.501   2.918   0.457
    1SIL  O019r 6224   4.315   2.865   0.638
    1SIL  O019s 6225   4.560   2.668   0.510
    1SIL  O019t 6226   4.747   2.615   0.691
    1SIL  O019u 6227   4.700   2.804   0.872
    1SIL  Si0Zy 6228   4.308   3.206   0.393
    1SIL  Si0Zz 6229   4.062   3.179   0.755
    1SIL  Si0a0 6230   4.408   2.980   0.574
    1SIL  O019v 6231   4.208   3.156   0.819
    1SIL  O019w 6232   4.256   3.344   0.457
    1SIL  O019x 6233   4.069   3.291   0.638
    1SIL  O019y 6234   4.315   3.094   0.510
    1SIL  O019z 6235   4.501   3.041   0.691
    1SIL  O01A0 6236   4.454   3.229   0.872
    1SIL  Si0a1 6237   4.062   3.631   0.393
    1SIL  Si0a2 6238   3.817   3.605   0.755
    1SIL  Si0a3 6239   4.162   3.405   0.574
    1SIL  O01A1 6240   3.963   3.581   0.819
    1SIL  O01A2 6241   4.010   3.769   0.457
    1SIL  O01A3 6242   3.823   3.716   0.638
    1SIL  O01A4 6243   4.069   3.520   0.510
    1SIL  O01A5 6244   4.256   3.467   0.691
    1SIL  O01A6 6245   4.208   3.655   0.872
    1SIL  Si0a4 6246   3.817   4.057   0.393
    1SIL  Si0a5 6247   3.571   4.030   0.755
    1SIL  Si0a6 6248   3.917   3.831   0.574
    1SIL  O01A7 6249   3.717   4.007   0.819
    1SIL  O01A8 6250   3.764   4.195   0.457
    1SIL  O01A9 6251   3.577   4.142   0.638
    1SIL  O01AA 6252   3.823   3.945   0.510
    1SIL  O01AB 6253   4.010   3.892   0.691
    1SIL  O01AC 6254   3.963   4.081   0.872
    1SIL  Si0a7 6255   3.571   4.483   0.393
    1SIL  Si0a8 6256   3.325   4.456   0.755
    1SIL  Si0a9 6257   3.671   4.256   0.574
    1SIL  O01AD 6258   3.471   4.432   0.819
    1SIL  O01AE 6259   3.518   4.621   0.457
    1SIL  O01AF 6260   3.332   4.568   0.638
    1SIL  O01AG 6261   3.577   4.371   0.510
    1SIL  O01AH 6262   3.764   4.318   0.691
    1SIL  O01AI 6263   3.717   4.506   0.872
    1SIL  Si0aA 6264   3.325   4.908   0.393
    1SIL  Si0aB 6265   3.079   4.882   0.755
    1SIL  Si0aC 6266   3.425   4.682   0.574
    1SIL  O01AJ 6267   3.225   4.858   0.819
    1SIL  O01AK 6268   3.273   5.046   0.457
    1SIL  O01AL 6269   3.086   4.993   0.638
    1SIL  O01AM 6270   3.332   4.797   0.510
    1SIL  O01AN 6271   3.518   4.744   0.691
    1SIL  O01AO 6272   3.471   4.932   0.872
    1SIL  Si0aD 6273   3.079   5.334   0.393
    1SIL  Si0aE 6274   2.834   5.307   0.755
    1SIL  Si0aF 6275   3.179   5.108   0.574
    1SIL  O01AP 6276   2.980   5.284   0.819
    1SIL  O01AQ 6277   3.027   5.472   0.457
    1SIL  O01AR 6278   2.840   5.419   0.638
    1SIL  O01AS 6279   3.086   5.222   0.510
    1SIL  O01AT 6280   3.273   5.169   0.691
    1SIL  O01AU 6281   3.225   5.357   0.872
    1SIL  Si0aG 6282   2.834   5.759   0.393
    1SIL  Si0aH 6283   2.588   5.733   0.755
    1SIL  Si0aI 6284   2.934   5.533   0.574
    1SIL  O01AV 6285   2.734   5.709   0.819
    1SIL  O01AW 6286   2.781   5.898   0.457
    1SIL  O01AX 6287   2.595   5.844   0.638
    1SIL  O01AY 6288   2.840   5.648   0.510
    1SIL  O01AZ 6289   3.027   5.595   0.691
    1SIL  O01Aa 6290   2.980   5.783   0.872
    1SIL  Si0aJ 6291   2.588   6.185   0.393
    1SIL  Si0aK 6292   2.342   6.159   0.755
    1SIL  Si0aL 6293   2.688   5.959   0.574
    1SIL  O01Ab 6294   2.488   6.135   0.819
    1SIL  O01Ac 6295   2.535   6.323   0.457
    1SIL  O01Ad 6296   2.349   6.270   0.638
    1SIL  O01Ae 6297   2.595   6.074   0.510
    1SIL  O01Af 6298   2.781   6.020   0.691
    1SIL  O01Ag 6299   2.734   6.209   0.872
    1SIL  Si0aM 6300   2.342   6.611   0.393
    1SIL  Si0aN 6301   2.097   6.584   0.755
    1SIL  Si0aO 6302   2.442   6.385   0.574
    1SIL  O01Ah 6303   2.242   6.561   0.819
    1SIL  O01Ai 6304   2.290   6.749   0.457
    1SIL  O01Aj 6305   2.103   6.696   0.638
    1SIL  O01Ak 6306   2.349   6.499   0.510
    1SIL  O01Al 6307   2.535   6.446   0.691
    1SIL  O01Am 6308   2.488   6.634   0.872
    1SIL  Si0aP 6309   2.097   7.036   0.393
    1SIL  Si0aQ 6310   1.851   7.010   0.755
    1SIL  Si0aR 6311   2.196   6.810   0.574
    1SIL  O01An 6312   1.997   6.986   0.819
    1SIL  O01Ao 6313   2.044   7.175   0.457
    1SIL  O01Ap 6314   1.857   7.121   0.638
    1SIL  O01Aq 6315   2.103   6.925   0.510
    1SIL  O01Ar 6316   2.290   6.872   0.691
    1SIL  O01As 6317   2.242   7.060   0.872
    1SIL  Si0aS 6318   1.851   7.462   0.393
    1SIL  Si0aT 6319   1.605   7.436   0.755
    1SIL  Si0aU 6320   1.951   7.236   0.574
    1SIL  O01At 6321   1.751   7.412   0.819
    1SIL  O01Au 6322   1.798   7.600   0.457
    1SIL  O01Av 6323   1.612   7.547   0.638
    1SIL  O01Aw 6324   1.857   7.351   0.510
    1SIL  O01Ax 6325   2.044   7.297   0.691
    1SIL  O01Ay 6326   1.997   7.486   0.872
    1SIL  Si0aV 6327   1.605   7.888   0.393
    1SIL  Si0aW 6328   1.359   7.861   0.755
    1SIL  Si0aX 6329   1.705   7.662   0.574
    1SIL  O01Az 6330   1.505   7.838   0.819
    1SIL  O01B0 6331   1.552   8.026   0.457
    1SIL  O01B1 6332   1.366   7.973   0.638
    1SIL  O01B2 6333   1.612   7.776   0.510
    1SIL  O01B3 6334   1.798   7.723   0.691
    1SIL  O01B4 6335   1.751   7.911   0.872
    1SIL  Si0aY 6336   1.359   8.313   0.393
    1SIL  Si0aZ 6337   1.114   8.287   0.755
    1SIL  Si0aa 6338   1.459   8.087   0.574
    1SIL  O01B5 6339   1.259   8.263   0.819
    1SIL  O01B6 6340   1.307   8.452   0.457
    1SIL  O01B7 6341   1.120   8.398   0.638
    1SIL  O01B8 6342   1.366   8.202   0.510
    1SIL  O01B9 6343   1.552   8.149   0.691
    1SIL  O01BA 6344   1.505   8.337   0.872
    1SIL  Si0ab 6345   1.114   8.739   0.393
    1SIL  Si0ac 6346   0.868   8.713   0.755
    1SIL  Si0ad 6347   1.213   8.513   0.574
    1SIL  O01BB 6348   1.014   8.689   0.819
    1SIL  O01BC 6349   1.061   8.877   0.457
    1SIL  O01BD 6350   0.874   8.824   0.638
    1SIL  O01BE 6351   1.120   8.628   0.510
    1SIL  O01BF 6352   1.307   8.574   0.691
    1SIL  O01BG 6353   1.259   8.763   0.872
    1SIL  Si0ae 6354   0.868   9.165   0.393
    1SIL  Si0af 6355   0.622   9.138   0.755
    1SIL  Si0ag 6356   0.968   8.939   0.574
    1SIL  O01BH 6357   0.768   9.115   0.819
    1SIL  O01BI 6358   0.815   9.303   0.457
    1SIL  O01BJ 6359   0.629   9.250   0.638
    1SIL  O01BK 6360   0.874   9.053   0.510
    1SIL  O01BL 6361   1.061   9.000   0.691
    1SIL  O01BM 6362   1.014   9.188   0.872
    1SIL  Si0ah 6363   0.622   9.590   0.393
    1SIL  Si0ai 6364   0.376   9.564   0.755
    1SIL  Si0aj 6365   0.722   9.364   0.574
    1SIL  O01BN 6366   0.522   9.540   0.819
    1SIL  O01BO 6367   0.569   9.729   0.457
    1SIL  O01BP 6368   0.383   9.675   0.638
    1SIL  O01BQ 6369   0.629   9.479   0.510
    1SIL  O01BR 6370   0.815   9.426   0.691
    1SIL  O01BS 6371   0.768   9.614   0.872
    1SIL  Si0ak 6372   6.520   0.226   0.393
    1SIL  Si0al 6373   6.274   0.200   0.755
    1SIL  Si0am 6374   6.620   0.000   0.574
    1SIL  O01BT 6375   6.420   0.176   0.819
    1SIL  O01BU 6376   6.467   0.364   0.457
    1SIL  O01BV 6377   6.281   0.311   0.638
    1SIL  O01BW 6378   6.526   0.115   0.510
    1SIL  O01BX 6379   6.713   0.061   0.691
    1SIL  O01BY 6380   6.666   0.250   0.872
    1SIL  Si0an 6381   6.274   0.652   0.393
    1SIL  Si0ao 6382   6.028   0.625   0.755
    1SIL  Si0ap 6383   6.374   0.426   0.574
    1SIL  O01BZ 6384   6.174   0.602   0.819
    1SIL  O01Ba 6385   6.222   0.790   0.457
    1SIL  O01Bb 6386   6.035   0.737   0.638
    1SIL  O01Bc 6387   6.281   0.540   0.510
    1SIL  O01Bd 6388   6.467   0.487   0.691
    1SIL  O01Be 6389   6.420   0.675   0.872
    1SIL  Si0aq 6390   6.028   1.077   0.393
    1SIL  Si0ar 6391   5.783   1.051   0.755
    1SIL  Si0as 6392   6.128   0.851   0.574
    1SIL  O01Bf 6393   5.929   1.027   0.819
    1SIL  O01Bg 6394   5.976   1.216   0.457
    1SIL  O01Bh 6395   5.789   1.162   0.638
    1SIL  O01Bi 6396   6.035   0.966   0.510
    1SIL  O01Bj 6397   6.222   0.913   0.691
    1SIL  O01Bk 6398   6.174   1.101   0.872
    1SIL  Si0at 6399   5.783   1.503   0.393
    1SIL  Si0au 6400   5.537   1.477   0.755
    1SIL  Si0av 6401   5.883   1.277   0.574
    1SIL  O01Bl 6402   5.683   1.453   0.819
    1SIL  O01Bm 6403   5.730   1.641   0.457
    1SIL  O01Bn 6404   5.543   1.588   0.638
    1SIL  O01Bo 6405   5.789   1.392   0.510
    1SIL  O01Bp 6406   5.976   1.338   0.691
    1SIL  O01Bq 6407   5.929   1.527   0.872
    1SIL  Si0aw 6408   5.537   1.929   0.393
    1SIL  Si0ax 6409   5.291   1.902   0.755
    1SIL  Si0ay 6410   5.637   1.703   0.574
    1SIL  O01Br 6411   5.437   1.879   0.819
    1SIL  O01Bs 6412   5.484   2.067   0.457
    1SIL  O01Bt 6413   5.298   2.014   0.638
    1SIL  O01Bu 6414   5.543   1.817   0.510
    1SIL  O01Bv 6415   5.730   1.764   0.691
    1SIL  O01Bw 6416   5.683   1.952   0.872
    1SIL  Si0az 6417   5.291   2.354   0.393
    1SIL  Si0b0 6418   5.045   2.328   0.755
    1SIL  Si0b1 6419   5.391   2.128   0.574
    1SIL  O01Bx 6420   5.191   2.304   0.819
    1SIL  O01By 6421   5.239   2.493   0.457
    1SIL  O01Bz 6422   5.052   2.439   0.638
    1SIL  O01C0 6423   5.298   2.243   0.510
    1SIL  O01C1 6424   5.484   2.190   0.691
    1SIL  O01C2 6425   5.437   2.378   0.872
    1SIL  Si0b2 6426   5.045   2.780   0.393
    1SIL  Si0b3 6427   4.800   2.753   0.755
    1SIL  Si0b4 6428   5.145   2.554   0.574
    1SIL  O01C3 6429   4.946   2.730   0.819
    1SIL  O01C4 6430   4.993   2.918   0.457
    1SIL  O01C5 6431   4.806   2.865   0.638
    1SIL  O01C6 6432   5.052   2.668   0.510
    1SIL  O01C7 6433   5.239   2.615   0.691
    1SIL  O01C8 6434   5.191   2.804   0.872
    1SIL  Si0b5 6435   4.800   3.206   0.393
    1SIL  Si0b6 6436   4.554   3.179   0.755
    1SIL  Si0b7 6437   4.900   2.980   0.574
    1SIL  O01C9 6438   4.700   3.156   0.819
    1SIL  O01CA 6439   4.747   3.344   0.457
    1SIL  O01CB 6440   4.560   3.291   0.638
    1SIL  O01CC 6441   4.806   3.094   0.510
    1SIL  O01CD 6442   4.993   3.041   0.691
    1SIL  O01CE 6443   4.946   3.229   0.872
    1SIL  Si0b8 6444   4.554   3.631   0.393
    1SIL  Si0b9 6445   4.308   3.605   0.755
    1SIL  Si0bA 6446   4.654   3.405   0.574
    1SIL  O01CF 6447   4.454   3.581   0.819
    1SIL  O01CG 6448   4.501   3.769   0.457
    1SIL  O01CH 6449   4.315   3.716   0.638
    1SIL  O01CI 6450   4.560   3.520   0.510
    1SIL  O01CJ 6451   4.747   3.467   0.691
    1SIL  O01CK 6452   4.700   3.655   0.872
    1SIL  Si0bB 6453   4.308   4.057   0.393
    1SIL  Si0bC 6454   4.062   4.030   0.755
    1SIL  Si0bD 6455   4.408   3.831   0.574
    1SIL  O01CL 6456   4.208   4.007   0.819
    1SIL  O01CM 6457   4.256   4.195   0.457
    1SIL  O01CN 6458   4.069   4.142   0.638
    1SIL  O01CO 6459   4.315   3.945   0.510
    1SIL  O01CP 6460   4.501   3.892   0.691
    1SIL  O01CQ 6461   4.454   4.081   0.872
    1SIL  Si0bE 6462   4.062   4.483   0.393
    1SIL  Si0bF 6463   3.817   4.456   0.755
    1SIL  Si0bG 6464   4.162   4.256   0.574
    1SIL  O01CR 6465   3.963   4.432   0.819
    1SIL  O01CS 6466   4.010   4.621   0.457
    1SIL  O01CT 6467   3.823   4.568   0.638
    1SIL  O01CU 6468   4.069   4.371   0.510
    1SIL  O01CV 6469   4.256   4.318   0.691
    1SIL  O01CW 6470   4.208   4.506   0.872
    1SIL  Si0bH 6471   3.817   4.908   0.393
    1SIL  Si0bI 6472   3.571   4.882   0.755
    1SIL  Si0bJ 6473   3.917   4.682   0.574
    1SIL  O01CX 6474   3.717   4.858   0.819
    1SIL  O01CY 6475   3.764   5.046   0.457
    1SIL  O01CZ 6476   3.577   4.993   0.638
    1SIL  O01Ca 6477   3.823   4.797   0.510
    1SIL  O01Cb 6478   4.010   4.744   0.691
    1SIL  O01Cc 6479   3.963   4.932   0.872
    1SIL  Si0bK 6480   3.571   5.334   0.393
    1SIL  Si0bL 6481   3.325   5.307   0.755
    1SIL  Si0bM 6482   3.671   5.108   0.574
    1SIL  O01Cd 6483   3.471   5.284   0.819
    1SIL  O01Ce 6484   3.518   5.472   0.457
    1SIL  O01Cf 6485   3.332   5.419   0.638
    1SIL  O01Cg 6486   3.577   5.222   0.510
    1SIL  O01Ch 6487   3.764   5.169   0.691
    1SIL  O01Ci 6488   3.717   5.357   0.872
    1SIL  Si0bN 6489   3.325   5.759   0.393
    1SIL  Si0bO 6490   3.079   5.733   0.755
    1SIL  Si0bP 6491   3.425   5.533   0.574
    1SIL  O01Cj 6492   3.225   5.709   0.819
    1SIL  O01Ck 6493   3.273   5.898   0.457
    1SIL  O01Cl 6494   3.086   5.844   0.638
    1SIL  O01Cm 6495   3.332   5.648   0.510
    1SIL  O01Cn 6496   3.518   5.595   0.691
    1SIL  O01Co 6497   3.471   5.783   0.872
    1SIL  Si0bQ 6498   3.079   6.185   0.393
    1SIL  Si0bR 6499   2.834   6.159   0.755
    1SIL  Si0bS 6500   3.179   5.959   0.574
    1SIL  O01Cp 6501   2.980   6.135   0.819
    1SIL  O01Cq 6502   3.027   6.323   0.457
    1SIL  O01Cr 6503   2.840   6.270   0.638
    1SIL  O01Cs 6504   3.086   6.074   0.510
    1SIL  O01Ct 6505   3.273   6.020   0.691
    1SIL  O01Cu 6506   3.225   6.209   0.872
    1SIL  Si0bT 6507   2.834   6.611   0.393
    1SIL  Si0bU 6508   2.588   6.584   0.755
    1SIL  Si0bV 6509   2.934   6.385   0.574
    1SIL  O01Cv 6510   2.734   6.561   0.819
    1SIL  O01Cw 6511   2.781   6.749   0.457
    1SIL  O01Cx 6512   2.595   6.696   0.638
    1SIL  O01Cy 6513   2.840   6.499   0.510
    1SIL  O01Cz 6514   3.027   6.446   0.691
    1SIL  O01D0 6515   2.980   6.634   0.872
    1SIL  Si0bW 6516   2.588   7.036   0.393
    1SIL  Si0bX 6517   2.342   7.010   0.755
    1SIL  Si0bY 6518   2.688   6.810   0.574
    1SIL  O01D1 6519   2.488   6.986   0.819
    1SIL  O01D2 6520   2.535   7.175   0.457
    1SIL  O01D3 6521   2.349   7.121   0.638
    1SIL  O01D4 6522   2.595   6.925   0.510
    1SIL  O01D5 6523   2.781   6.872   0.691
    1SIL  O01D6 6524   2.734   7.060   0.872
    1SIL  Si0bZ 6525   2.342   7.462   0.393
    1SIL  Si0ba 6526   2.097   7.436   0.755
    1SIL  Si0bb 6527   2.442   7.236   0.574
    1SIL  O01D7 6528   2.242   7.412   0.819
    1SIL  O01D8 6529   2.290   7.600   0.457
    1SIL  O01D9 6530   2.103   7.547   0.638
    1SIL  O01DA 6531   2.349   7.351   0.510
    1SIL  O01DB 6532   2.535   7.297   0.691
    1SIL  O01DC 6533   2.488   7.486   0.872
    1SIL  Si0bc 6534   2.097   7.888   0.393
    1SIL  Si0bd 6535   1.851   7.861   0.755
    1SIL  Si0be 6536   2.196   7.662   0.574
    1SIL  O01DD 6537   1.997   7.838   0.819
    1SIL  O01DE 6538   2.044   8.026   0.457
    1SIL  O01DF 6539   1.857   7.973   0.638
    1SIL  O01DG 6540   2.103   7.776   0.510
    1SIL  O01DH 6541   2.290   7.723   0.691
    1SIL  O01DI 6542   2.242   7.911   0.872
    1SIL  Si0bf 6543   1.851   8.313   0.393
    1SIL  Si0bg 6544   1.605   8.287   0.755
    1SIL  Si0bh 6545   1.951   8.087   0.574
    1SIL  O01DJ 6546   1.751   8.263   0.819
    1SIL  O01DK 6547   1.798   8.452   0.457
    1SIL  O01DL 6548   1.612   8.398   0.638
    1SIL  O01DM 6549   1.857   8.202   0.510
    1SIL  O01DN 6550   2.044   8.149   0.691
    1SIL  O01DO 6551   1.997   8.337   0.872
    1SIL  Si0bi 6552   1.605   8.739   0.393
    1SIL  Si0bj 6553   1.359   8.713   0.755
    1SIL  Si0bk 6554   1.705   8.513   0.574
    1SIL  O01DP 6555   1.505   8.689   0.819
    1SIL  O01DQ 6556   1.552   8.877   0.457
    1SIL  O01DR 6557   1.366   8.824   0.638
    1SIL  O01DS 6558   1.612   8.628   0.510
    1SIL  O01DT 6559   1.798   8.574   0.691
    1SIL  O01DU 6560   1.751   8.763   0.872
    1SIL  Si0bl 6561   1.359   9.165   0.393
    1SIL  Si0bm 6562   1.114   9.138   0.755
    1SIL  Si0bn 6563   1.459   8.939   0.574
    1SIL  O01DV 6564   1.259   9.115   0.819
    1SIL  O01DW 6565   1.307   9.303   0.457
    1SIL  O01DX 6566   1.120   9.250   0.638
    1SIL  O01DY 6567   1.366   9.053   0.510
    1SIL  O01DZ 6568   1.552   9.000   0.691
    1SIL  O01Da 6569   1.505   9.188   0.872
    1SIL  Si0bo 6570   1.114   9.590   0.393
    1SIL  Si0bp 6571   0.868   9.564   0.755
    1SIL  Si0bq 6572   1.213   9.364   0.574
    1SIL  O01Db 6573   1.014   9.540   0.819
    1SIL  O01Dc 6574   1.061   9.729   0.457
    1SIL  O01Dd 6575   0.874   9.675   0.638
    1SIL  O01De 6576   1.120   9.479   0.510
    1SIL  O01Df 6577   1.307   9.426   0.691
    1SIL  O01Dg 6578   1.259   9.614   0.872
    1SIL  Si0br 6579   7.011   0.226   0.393
    1SIL  Si0bs 6580   6.766   0.200   0.755
    1SIL  Si0bt 6581   7.111   0.000   0.574
    1SIL  O01Dh 6582   6.912   0.176   0.819
    1SIL  O01Di 6583   6.959   0.364   0.457
    1SIL  O01Dj 6584   6.772   0.311   0.638
    1SIL  O01Dk 6585   7.018   0.115   0.510
    1SIL  O01Dl 6586   7.205   0.061   0.691
    1SIL  O01Dm 6587   7.157   0.250   0.872
    1SIL  Si0bu 6588   6.766   0.652   0.393
    1SIL  Si0bv 6589   6.520   0.625   0.755
    1SIL  Si0bw 6590   6.866   0.426   0.574
    1SIL  O01Dn 6591   6.666   0.602   0.819
    1SIL  O01Do 6592   6.713   0.790   0.457
    1SIL  O01Dp 6593   6.526   0.737   0.638
    1SIL  O01Dq 6594   6.772   0.540   0.510
    1SIL  O01Dr 6595   6.959   0.487   0.691
    1SIL  O01Ds 6596   6.912   0.675   0.872
    1SIL  Si0bx 6597   6.520   1.077   0.393
    1SIL  Si0by 6598   6.274   1.051   0.755
    1SIL  Si0bz 6599   6.620   0.851   0.574
    1SIL  O01Dt 6600   6.420   1.027   0.819
    1SIL  O01Du 6601   6.467   1.216   0.457
    1SIL  O01Dv 6602   6.281   1.162   0.638
    1SIL  O01Dw 6603   6.526   0.966   0.510
    1SIL  O01Dx 6604   6.713   0.913   0.691
    1SIL  O01Dy 6605   6.666   1.101   0.872
    1SIL  Si0c0 6606   6.274   1.503   0.393
    1SIL  Si0c1 6607   6.028   1.477   0.755
    1SIL  Si0c2 6608   6.374   1.277   0.574
    1SIL  O01Dz 6609   6.174   1.453   0.819
    1SIL  O01E0 6610   6.222   1.641   0.457
    1SIL  O01E1 6611   6.035   1.588   0.638
    1SIL  O01E2 6612   6.281   1.392   0.510
    1SIL  O01E3 6613   6.467   1.338   0.691
    1SIL  O01E4 6614   6.420   1.527   0.872
    1SIL  Si0c3 6615   6.028   1.929   0.393
    1SIL  Si0c4 6616   5.783   1.902   0.755
    1SIL  Si0c5 6617   6.128   1.703   0.574
    1SIL  O01E5 6618   5.929   1.879   0.819
    1SIL  O01E6 6619   5.976   2.067   0.457
    1SIL  O01E7 6620   5.789   2.014   0.638
    1SIL  O01E8 6621   6.035   1.817   0.510
    1SIL  O01E9 6622   6.222   1.764   0.691
    1SIL  O01EA 6623   6.174   1.952   0.872
    1SIL  Si0c6 6624   5.783   2.354   0.393
    1SIL  Si0c7 6625   5.537   2.328   0.755
    1SIL  Si0c8 6626   5.883   2.128   0.574
    1SIL  O01EB 6627   5.683   2.304   0.819
    1SIL  O01EC 6628   5.730   2.493   0.457
    1SIL  O01ED 6629   5.543   2.439   0.638
    1SIL  O01EE 6630   5.789   2.243   0.510
    1SIL  O01EF 6631   5.976   2.190   0.691
    1SIL  O01EG 6632   5.929   2.378   0.872
    1SIL  Si0c9 6633   5.537   2.780   0.393
    1SIL  Si0cA 6634   5.291   2.753   0.755
    1SIL  Si0cB 6635   5.637   2.554   0.574
    1SIL  O01EH 6636   5.437   2.730   0.819
    1SIL  O01EI 6637   5.484   2.918   0.457
    1SIL  O01EJ 6638   5.298   2.865   0.638
    1SIL  O01EK 6639   5.543   2.668   0.510
    1SIL  O01EL 6640   5.730   2.615   0.691
    1SIL  O01EM 6641   5.683   2.804   0.872
    1SIL  Si0cC 6642   5.291   3.206   0.393
    1SIL  Si0cD 6643   5.045   3.179   0.755
    1SIL  Si0cE 6644   5.391   2.980   0.574
    1SIL  O01EN 6645   5.191   3.156   0.819
    1SIL  O01EO 6646   5.239   3.344   0.457
    1SIL  O01EP 6647   5.052   3.291   0.638
    1SIL  O01EQ 6648   5.298   3.094   0.510
    1SIL  O01ER 6649   5.484   3.041   0.691
    1SIL  O01ES 6650   5.437   3.229   0.872
    1SIL  Si0cF 6651   5.045   3.631   0.393
    1SIL  Si0cG 6652   4.800   3.605   0.755
    1SIL  Si0cH 6653   5.145   3.405   0.574
    1SIL  O01ET 6654   4.946   3.581   0.819
    1SIL  O01EU 6655   4.993   3.769   0.457
    1SIL  O01EV 6656   4.806   3.716   0.638
    1SIL  O01EW 6657   5.052   3.520   0.510
    1SIL  O01EX 6658   5.239   3.467   0.691
    1SIL  O01EY 6659   5.191   3.655   0.872
    1SIL  Si0cI 6660   4.800   4.057   0.393
    1SIL  Si0cJ 6661   4.554   4.030   0.755
    1SIL  Si0cK 6662   4.900   3.831   0.574
    1SIL  O01EZ 6663   4.700   4.007   0.819
    1SIL  O01Ea 6664   4.747   4.195   0.457
    1SIL  O01Eb 6665   4.560   4.142   0.638
    1SIL  O01Ec 6666   4.806   3.945   0.510
    1SIL  O01Ed 6667   4.993   3.892   0.691
    1SIL  O01Ee 6668   4.946   4.081   0.872
    1SIL  Si0cL 6669   4.554   4.483   0.393
    1SIL  Si0cM 6670   4.308   4.456   0.755
    1SIL  Si0cN 6671   4.654   4.256   0.574
    1SIL  O01Ef 6672   4.454   4.432   0.819
    1SIL  O01Eg 6673   4.501   4.621   0.457
    1SIL  O01Eh 6674   4.315   4.568   0.638
    1SIL  O01Ei 6675   4.560   4.371   0.510
    1SIL  O01Ej 6676   4.747   4.318   0.691
    1SIL  O01Ek 6677   4.700   4.506   0.872
    1SIL  Si0cO 6678   4.308   4.908   0.393
    1SIL  Si0cP 6679   4.062   4.882   0.755
    1SIL  Si0cQ 6680   4.408   4.682   0.574
    1SIL  O01El 6681   4.208   4.858   0.819
    1SIL  O01Em 6682   4.256   5.046   0.457
    1SIL  O01En 6683   4.069   4.993   0.638
    1SIL  O01Eo 6684   4.315   4.797   0.510
    1SIL  O01Ep 6685   4.501   4.744   0.691
    1SIL  O01Eq 6686   4.454   4.932   0.872
    1SIL  Si0cR 6687   4.062   5.334   0.393
    1SIL  Si0cS 6688   3.817   5.307   0.755
    1SIL  Si0cT 6689   4.162   5.108   0.574
    1SIL  O01Er 6690   3.963   5.284   0.819
    1SIL  O01Es 6691   4.010   5.472   0.457
    1SIL  O01Et 6692   3.823   5.419   0.638
    1SIL  O01Eu 6693   4.069   5.222   0.510
    1SIL  O01Ev 6694   4.256   5.169   0.691
    1SIL  O01Ew 6695   4.208   5.357   0.872
    1SIL  Si0cU 6696   3.817   5.759   0.393
    1SIL  Si0cV 6697   3.571   5.733   0.755
    1SIL  Si0cW 6698   3.917   5.533   0.574
    1SIL  O01Ex 6699   3.717   5.709   0.819
    1SIL  O01Ey 6700   3.764   5.898   0.457
    1SIL  O01Ez 6701   3.577   5.844   0.638
    1SIL  O01F0 6702   3.823   5.648   0.510
    1SIL  O01F1 6703   4.010   5.595   0.691
    1SIL  O01F2 6704   3.963   5.783   0.872
    1SIL  Si0cX 6705   3.571   6.185   0.393
    1SIL  Si0cY 6706   3.325   6.159   0.755
    1SIL  Si0cZ 6707   3.671   5.959   0.574
    1SIL  O01F3 6708   3.471   6.135   0.819
    1SIL  O01F4 6709   3.518   6.323   0.457
    1SIL  O01F5 6710   3.332   6.270   0.638
    1SIL  O01F6 6711   3.577   6.074   0.510
    1SIL  O01F7 6712   3.764   6.020   0.691
    1SIL  O01F8 6713   3.717   6.209   0.872
    1SIL  Si0ca 6714   3.325   6.611   0.393
    1SIL  Si0cb 6715   3.079   6.584   0.755
    1SIL  Si0cc 6716   3.425   6.385   0.574
    1SIL  O01F9 6717   3.225   6.561   0.819
    1SIL  O01FA 6718   3.273   6.749   0.457
    1SIL  O01FB 6719   3.086   6.696   0.638
    1SIL  O01FC 6720   3.332   6.499   0.510
    1SIL  O01FD 6721   3.518   6.446   0.691
    1SIL  O01FE 6722   3.471   6.634   0.872
    1SIL  Si0cd 6723   3.079   7.036   0.393
    1SIL  Si0ce 6724   2.834   7.010   0.755
    1SIL  Si0cf 6725   3.179   6.810   0.574
    1SIL  O01FF 6726   2.980   6.986   0.819
    1SIL  O01FG 6727   3.027   7.175   0.457
    1SIL  O01FH 6728   2.840   7.121   0.638
    1SIL  O01FI 6729   3.086   6.925   0.510
    1SIL  O01FJ 6730   3.273   6.872   0.691
    1SIL  O01FK 6731   3.225   7.060   0.872
    1SIL  Si0cg 6732   2.834   7.462   0.393
    1SIL  Si0ch 6733   2.588   7.436   0.755
    1SIL  Si0ci 6734   2.934   7.236   0.574
    1SIL  O01FL 6735   2.734   7.412   0.819
    1SIL  O01FM 6736   2.781   7.600   0.457
    1SIL  O01FN 6737   2.595   7.547   0.638
    1SIL  O01FO 6738   2.840   7.351   0.510
    1SIL  O01FP 6739   3.027   7.297   0.691
    1SIL  O01FQ 6740   2.980   7.486   0.872
    1SIL  Si0cj 6741   2.588   7.888   0.393
    1SIL  Si0ck 6742   2.342   7.861   0.755
    1SIL  Si0cl 6743   2.688   7.662   0.574
    1SIL  O01FR 6744   2.488   7.838   0.819
    1SIL  O01FS 6745   2.535   8.026   0.457
    1SIL  O01FT 6746   2.349   7.973   0.638
    1SIL  O01FU 6747   2.595   7.776   0.510
    1SIL  O01FV 6748   2.781   7.723   0.691
    1SIL  O01FW 6749   2.734   7.911   0.872
    1SIL  Si0cm 6750   2.342   8.313   0.393
    1SIL  Si0cn 6751   2.097   8.287   0.755
    1SIL  Si0co 6752   2.442   8.087   0.574
    1SIL  O01FX 6753   2.242   8.263   0.819
    1SIL  O01FY 6754   2.290   8.452   0.457
    1SIL  O01FZ 6755   2.103   8.398   0.638
    1SIL  O01Fa 6756   2.349   8.202   0.510
    1SIL  O01Fb 6757   2.535   8.149   0.691
    1SIL  O01Fc 6758   2.488   8.337   0.872
    1SIL  Si0cp 6759   2.097   8.739   0.393
    1SIL  Si0cq 6760   1.851   8.713   0.755
    1SIL  Si0cr 6761   2.196   8.513   0.574
    1SIL  O01Fd 6762   1.997   8.689   0.819
    1SIL  O01Fe 6763   2.044   8.877   0.457
    1SIL  O01Ff 6764   1.857   8.824   0.638
    1SIL  O01Fg 6765   2.103   8.628   0.510
    1SIL  O01Fh 6766   2.290   8.574   0.691
    1SIL  O01Fi 6767   2.242   8.763   0.872
    1SIL  Si0cs 6768   1.851   9.165   0.393
    1SIL  Si0ct 6769   1.605   9.138   0.755
    1SIL  Si0cu 6770   1.951   8.939   0.574
    1SIL  O01Fj 6771   1.751   9.115   0.819
    1SIL  O01Fk 6772   1.798   9.303   0.457
    1SIL  O01Fl 6773   1.612   9.250   0.638
    1SIL  O01Fm 6774   1.857   9.053   0.510
    1SIL  O01Fn 6775   2.044   9.000   0.691
    1SIL  O01Fo 6776   1.997   9.188   0.872
    1SIL  Si0cv 6777   1.605   9.590   0.393
    1SIL  Si0cw 6778   1.359   9.564   0.755
    1SIL  Si0cx 6779   1.705   9.364   0.574
    1SIL  O01Fp 6780   1.505   9.540   0.819
    1SIL  O01Fq 6781   1.552   9.729   0.457
    1SIL  O01Fr 6782   1.366   9.675   0.638
    1SIL  O01Fs 6783   1.612   9.479   0.510
    1SIL  O01Ft 6784   1.798   9.426   0.691
    1SIL  O01Fu 6785   1.751   9.614   0.872
    1SIL  Si0cy 6786   7.503   0.226   0.393
    1SIL  Si0cz 6787   7.257   0.200   0.755
    1SIL  Si0d0 6788   7.603   0.000   0.574
    1SIL  O01Fv 6789   7.403   0.176   0.819
    1SIL  O01Fw 6790   7.450   0.364   0.457
    1SIL  O01Fx 6791   7.264   0.311   0.638
    1SIL  O01Fy 6792   7.509   0.115   0.510
    1SIL  O01Fz 6793   7.696   0.061   0.691
    1SIL  O01G0 6794   7.649   0.250   0.872
    1SIL  Si0d1 6795   7.257   0.652   0.393
    1SIL  Si0d2 6796   7.011   0.625   0.755
    1SIL  Si0d3 6797   7.357   0.426   0.574
    1SIL  O01G1 6798   7.157   0.602   0.819
    1SIL  O01G2 6799   7.205   0.790   0.457
    1SIL  O01G3 6800   7.018   0.737   0.638
    1SIL  O01G4 6801   7.264   0.540   0.510
    1SIL  O01G5 6802   7.450   0.487   0.691
    1SIL  O01G6 6803   7.403   0.675   0.872
    1SIL  Si0d4 6804   7.011   1.077   0.393
    1SIL  Si0d5 6805   6.766   1.051   0.755
    1SIL  Si0d6 6806   7.111   0.851   0.574
    1SIL  O01G7 6807   6.912   1.027   0.819
    1SIL  O01G8 6808   6.959   1.216   0.457
    1SIL  O01G9 6809   6.772   1.162   0.638
    1SIL  O01GA 6810   7.018   0.966   0.510
    1SIL  O01GB 6811   7.205   0.913   0.691
    1SIL  O01GC 6812   7.157   1.101   0.872
    1SIL  Si0d7 6813   6.766   1.503   0.393
    1SIL  Si0d8 6814   6.520   1.477   0.755
    1SIL  Si0d9 6815   6.866   1.277   0.574
    1SIL  O01GD 6816   6.666   1.453   0.819
    1SIL  O01GE 6817   6.713   1.641   0.457
    1SIL  O01GF 6818   6.526   1.588   0.638
    1SIL  O01GG 6819   6.772   1.392   0.510
    1SIL  O01GH 6820   6.959   1.338   0.691
    1SIL  O01GI 6821   6.912   1.527   0.872
    1SIL  Si0dA 6822   6.520   1.929   0.393
    1SIL  Si0dB 6823   6.274   1.902   0.755
    1SIL  Si0dC 6824   6.620   1.703   0.574
    1SIL  O01GJ 6825   6.420   1.879   0.819
    1SIL  O01GK 6826   6.467   2.067   0.457
    1SIL  O01GL 6827   6.281   2.014   0.638
    1SIL  O01GM 6828   6.526   1.817   0.510
    1SIL  O01GN 6829   6.713   1.764   0.691
    1SIL  O01GO 6830   6.666   1.952   0.872
    1SIL  Si0dD 6831   6.274   2.354   0.393
    1SIL  Si0dE 6832   6.028   2.328   0.755
    1SIL  Si0dF 6833   6.374   2.128   0.574
    1SIL  O01GP 6834   6.174   2.304   0.819
    1SIL  O01GQ 6835   6.222   2.493   0.457
    1SIL  O01GR 6836   6.035   2.439   0.638
    1SIL  O01GS 6837   6.281   2.243   0.510
    1SIL  O01GT 6838   6.467   2.190   0.691
    1SIL  O01GU 6839   6.420   2.378   0.872
    1SIL  Si0dG 6840   6.028   2.780   0.393
    1SIL  Si0dH 6841   5.783   2.753   0.755
    1SIL  Si0dI 6842   6.128   2.554   0.574
    1SIL  O01GV 6843   5.929   2.730   0.819
    1SIL  O01GW 6844   5.976   2.918   0.457
    1SIL  O01GX 6845   5.789   2.865   0.638
    1SIL  O01GY 6846   6.035   2.668   0.510
    1SIL  O01GZ 6847   6.222   2.615   0.691
    1SIL  O01Ga 6848   6.174   2.804   0.872
    1SIL  Si0dJ 6849   5.783   3.206   0.393
    1SIL  Si0dK 6850   5.537   3.179   0.755
    1SIL  Si0dL 6851   5.883   2.980   0.574
    1SIL  O01Gb 6852   5.683   3.156   0.819
    1SIL  O01Gc 6853   5.730   3.344   0.457
    1SIL  O01Gd 6854   5.543   3.291   0.638
    1SIL  O01Ge 6855   5.789   3.094   0.510
    1SIL  O01Gf 6856   5.976   3.041   0.691
    1SIL  O01Gg 6857   5.929   3.229   0.872
    1SIL  Si0dM 6858   5.537   3.631   0.393
    1SIL  Si0dN 6859   5.291   3.605   0.755
    1SIL  Si0dO 6860   5.637   3.405   0.574
    1SIL  O01Gh 6861   5.437   3.581   0.819
    1SIL  O01Gi 6862   5.484   3.769   0.457
    1SIL  O01Gj 6863   5.298   3.716   0.638
    1SIL  O01Gk 6864   5.543   3.520   0.510
    1SIL  O01Gl 6865   5.730   3.467   0.691
    1SIL  O01Gm 6866   5.683   3.655   0.872
    1SIL  Si0dP 6867   5.291   4.057   0.393
    1SIL  Si0dQ 6868   5.045   4.030   0.755
    1SIL  Si0dR 6869   5.391   3.831   0.574
    1SIL  O01Gn 6870   5.191   4.007   0.819
    1SIL  O01Go 6871   5.239   4.195   0.457
    1SIL  O01Gp 6872   5.052   4.142   0.638
    1SIL  O01Gq 6873   5.298   3.945   0.510
    1SIL  O01Gr 6874   5.484   3.892   0.691
    1SIL  O01Gs 6875   5.437   4.081   0.872
    1SIL  Si0dS 6876   5.045   4.483   0.393
    1SIL  Si0dT 6877   4.800   4.456   0.755
    1SIL  Si0dU 6878   5.145   4.256   0.574
    1SIL  O01Gt 6879   4.946   4.432   0.819
    1SIL  O01Gu 6880   4.993   4.621   0.457
    1SIL  O01Gv 6881   4.806   4.568   0.638
    1SIL  O01Gw 6882   5.052   4.371   0.510
    1SIL  O01Gx 6883   5.239   4.318   0.691
    1SIL  O01Gy 6884   5.191   4.506   0.872
    1SIL  Si0dV 6885   4.800   4.908   0.393
    1SIL  Si0dW 6886   4.554   4.882   0.755
    1SIL  Si0dX 6887   4.900   4.682   0.574
    1SIL  O01Gz 6888   4.700   4.858   0.819
    1SIL  O01H0 6889   4.747   5.046   0.457
    1SIL  O01H1 6890   4.560   4.993   0.638
    1SIL  O01H2 6891   4.806   4.797   0.510
    1SIL  O01H3 6892   4.993   4.744   0.691
    1SIL  O01H4 6893   4.946   4.932   0.872
    1SIL  Si0dY 6894   4.554   5.334   0.393
    1SIL  Si0dZ 6895   4.308   5.307   0.755
    1SIL  Si0da 6896   4.654   5.108   0.574
    1SIL  O01H5 6897   4.454   5.284   0.819
    1SIL  O01H6 6898   4.501   5.472   0.457
    1SIL  O01H7 6899   4.315   5.419   0.638
    1SIL  O01H8 6900   4.560   5.222   0.510
    1SIL  O01H9 6901   4.747   5.169   0.691
    1SIL  O01HA 6902   4.700   5.357   0.872
    1SIL  Si0db 6903   4.308   5.759   0.393
    1SIL  Si0dc 6904   4.062   5.733   0.755
    1SIL  Si0dd 6905   4.408   5.533   0.574
    1SIL  O01HB 6906   4.208   5.709   0.819
    1SIL  O01HC 6907   4.256   5.898   0.457
    1SIL  O01HD 6908   4.069   5.844   0.638
    1SIL  O01HE 6909   4.315   5.648   0.510
    1SIL  O01HF 6910   4.501   5.595   0.691
    1SIL  O01HG 6911   4.454   5.783   0.872
    1SIL  Si0de 6912   4.062   6.185   0.393
    1SIL  Si0df 6913   3.817   6.159   0.755
    1SIL  Si0dg 6914   4.162   5.959   0.574
    1SIL  O01HH 6915   3.963   6.135   0.819
    1SIL  O01HI 6916   4.010   6.323   0.457
    1SIL  O01HJ 6917   3.823   6.270   0.638
    1SIL  O01HK 6918   4.069   6.074   0.510
    1SIL  O01HL 6919   4.256   6.020   0.691
    1SIL  O01HM 6920   4.208   6.209   0.872
    1SIL  Si0dh 6921   3.817   6.611   0.393
    1SIL  Si0di 6922   3.571   6.584   0.755
    1SIL  Si0dj 6923   3.917   6.385   0.574
    1SIL  O01HN 6924   3.717   6.561   0.819
    1SIL  O01HO 6925   3.764   6.749   0.457
    1SIL  O01HP 6926   3.577   6.696   0.638
    1SIL  O01HQ 6927   3.823   6.499   0.510
    1SIL  O01HR 6928   4.010   6.446   0.691
    1SIL  O01HS 6929   3.963   6.634   0.872
    1SIL  Si0dk 6930   3.571   7.036   0.393
    1SIL  Si0dl 6931   3.325   7.010   0.755
    1SIL  Si0dm 6932   3.671   6.810   0.574
    1SIL  O01HT 6933   3.471   6.986   0.819
    1SIL  O01HU 6934   3.518   7.175   0.457
    1SIL  O01HV 6935   3.332   7.121   0.638
    1SIL  O01HW 6936   3.577   6.925   0.510
    1SIL  O01HX 6937   3.764   6.872   0.691
    1SIL  O01HY 6938   3.717   7.060   0.872
    1SIL  Si0dn 6939   3.325   7.462   0.393
    1SIL  Si0do 6940   3.079   7.436   0.755
    1SIL  Si0dp 6941   3.425   7.236   0.574
    1SIL  O01HZ 6942   3.225   7.412   0.819
    1SIL  O01Ha 6943   3.273   7.600   0.457
    1SIL  O01Hb 6944   3.086   7.547   0.638
    1SIL  O01Hc 6945   3.332   7.351   0.510
    1SIL  O01Hd 6946   3.518   7.297   0.691
    1SIL  O01He 6947   3.471   7.486   0.872
    1SIL  Si0dq 6948   3.079   7.888   0.393
    1SIL  Si0dr 6949   2.834   7.861   0.755
    1SIL  Si0ds 6950   3.179   7.662   0.574
    1SIL  O01Hf 6951   2.980   7.838   0.819
    1SIL  O01Hg 6952   3.027   8.026   0.457
    1SIL  O01Hh 6953   2.840   7.973   0.638
    1SIL  O01Hi 6954   3.086   7.776   0.510
    1SIL  O01Hj 6955   3.273   7.723   0.691
    1SIL  O01Hk 6956   3.225   7.911   0.872
    1SIL  Si0dt 6957   2.834   8.313   0.393
    1SIL  Si0du 6958   2.588   8.287   0.755
    1SIL  Si0dv 6959   2.934   8.087   0.574
    1SIL  O01Hl 6960   2.734   8.263   0.819
    1SIL  O01Hm 6961   2.781   8.452   0.457
    1SIL  O01Hn 6962   2.595   8.398   0.638
    1SIL  O01Ho 6963   2.840   8.202   0.510
    1SIL  O01Hp 6964   3.027   8.149   0.691
    1SIL  O01Hq 6965   2.980   8.337   0.872
    1SIL  Si0dw 6966   2.588   8.739   0.393
    1SIL  Si0dx 6967   2.342   8.713   0.755
    1SIL  Si0dy 6968   2.688   8.513   0.574
    1SIL  O01Hr 6969   2.488   8.689   0.819
    1SIL  O01Hs 6970   2.535   8.877   0.457
    1SIL  O01Ht 6971   2.349   8.824   0.638
    1SIL  O01Hu 6972   2.595   8.628   0.510
    1SIL  O01Hv 6973   2.781   8.574   0.691
    1SIL  O01Hw 6974   2.734   8.763   0.872
    1SIL  Si0dz 6975   2.342   9.165   0.393
    1SIL  Si0e0 6976   2.097   9.138   0.755
    1SIL  Si0e1 6977   2.442   8.939   0.574
    1SIL  O01Hx 6978   2.242   9.115   0.819
    1SIL  O01Hy 6979   2.290   9.303   0.457
    1SIL  O01Hz 6980   2.103   9.250   0.638
    1SIL  O01I0 6981   2.349   9.053   0.510
    1SIL  O01I1 6982   2.535   9.000   0.691
    1SIL  O01I2 6983   2.488   9.188   0.872
    1SIL  Si0e2 6984   2.097   9.590   0.393
    1SIL  Si0e3 6985   1.851   9.564   0.755
    1SIL  Si0e4 6986   2.196   9.364   0.574
    1SIL  O01I3 6987   1.997   9.540   0.819
    1SIL  O01I4 6988   2.044   9.729   0.457
    1SIL  O01I5 6989   1.857   9.675   0.638
    1SIL  O01I6 6990   2.103   9.479   0.510
    1SIL  O01I7 6991   2.290   9.426   0.691
    1SIL  O01I8 6992   2.242   9.614   0.872
    1SIL  Si0e5 6993   7.994   0.226   0.393
    1SIL  Si0e6 6994   7.749   0.200   0.755
    1SIL  Si0e7 6995   8.094   0.000   0.574
    1SIL  O01I9 6996   7.895   0.176   0.819
    1SIL  O01IA 6997   7.942   0.364   0.457
    1SIL  O01IB 6998   7.755   0.311   0.638
    1SIL  O01IC 6999   8.001   0.115   0.510
    1SIL  O01ID 7000   8.188   0.061   0.691
    1SIL  O01IE 7001   8.140   0.250   0.872
    1SIL  Si0e8 7002   7.749   0.652   0.393
    1SIL  Si0e9 7003   7.503   0.625   0.755
    1SIL  Si0eA 7004   7.849   0.426   0.574
    1SIL  O01IF 7005   7.649   0.602   0.819
    1SIL  O01IG 7006   7.696   0.790   0.457
    1SIL  O01IH 7007   7.509   0.737   0.638
    1SIL  O01II 7008   7.755   0.540   0.510
    1SIL  O01IJ 7009   7.942   0.487   0.691
    1SIL  O01IK 7010   7.895   0.675   0.872
    1SIL  Si0eB 7011   7.503   1.077   0.393
    1SIL  Si0eC 7012   7.257   1.051   0.755
    1SIL  Si0eD 7013   7.603   0.851   0.574
    1SIL  O01IL 7014   7.403   1.027   0.819
    1SIL  O01IM 7015   7.450   1.216   0.457
    1SIL  O01IN 7016   7.264   1.162   0.638
    1SIL  O01IO 7017   7.509   0.966   0.510
    1SIL  O01IP 7018   7.696   0.913   0.691
    1SIL  O01IQ 7019   7.649   1.101   0.872
    1SIL  Si0eE 7020   7.257   1.503   0.393
    1SIL  Si0eF 7021   7.011   1.477   0.755
    1SIL  Si0eG 7022   7.357   1.277   0.574
    1SIL  O01IR 7023   7.157   1.453   0.819
    1SIL  O01IS 7024   7.205   1.641   0.457
    1SIL  O01IT 7025   7.018   1.588   0.638
    1SIL  O01IU 7026   7.264   1.392   0.510
    1SIL  O01IV 7027   7.450   1.338   0.691
    1SIL  O01IW 7028   7.403   1.527   0.872
    1SIL  Si0eH 7029   7.011   1.929   0.393
    1SIL  Si0eI 7030   6.766   1.902   0.755
    1SIL  Si0eJ 7031   7.111   1.703   0.574
    1SIL  O01IX 7032   6.912   1.879   0.819
    1SIL  O01IY 7033   6.959   2.067   0.457
    1SIL  O01IZ 7034   6.772   2.014   0.638
    1SIL  O01Ia 7035   7.018   1.817   0.510
    1SIL  O01Ib 7036   7.205   1.764   0.691
    1SIL  O01Ic 7037   7.157   1.952   0.872
    1SIL  Si0eK 7038   6.766   2.354   0.393
    1SIL  Si0eL 7039   6.520   2.328   0.755
    1SIL  Si0eM 7040   6.866   2.128   0.574
    1SIL  O01Id 7041   6.666   2.304   0.819
    1SIL  O01Ie 7042   6.713   2.493   0.457
    1SIL  O01If 7043   6.526   2.439   0.638
    1SIL  O01Ig 7044   6.772   2.243   0.510
    1SIL  O01Ih 7045   6.959   2.190   0.691
    1SIL  O01Ii 7046   6.912   2.378   0.872
    1SIL  Si0eN 7047   6.520   2.780   0.393
    1SIL  Si0eO 7048   6.274   2.753   0.755
    1SIL  Si0eP 7049   6.620   2.554   0.574
    1SIL  O01Ij 7050   6.420   2.730   0.819
    1SIL  O01Ik 7051   6.467   2.918   0.457
    1SIL  O01Il 7052   6.281   2.865   0.638
    1SIL  O01Im 7053   6.526   2.668   0.510
    1SIL  O01In 7054   6.713   2.615   0.691
    1SIL  O01Io 7055   6.666   2.804   0.872
    1SIL  Si0eQ 7056   6.274   3.206   0.393
    1SIL  Si0eR 7057   6.028   3.179   0.755
    1SIL  Si0eS 7058   6.374   2.980   0.574
    1SIL  O01Ip 7059   6.174   3.156   0.819
    1SIL  O01Iq 7060   6.222   3.344   0.457
    1SIL  O01Ir 7061   6.035   3.291   0.638
    1SIL  O01Is 7062   6.281   3.094   0.510
    1SIL  O01It 7063   6.467   3.041   0.691
    1SIL  O01Iu 7064   6.420   3.229   0.872
    1SIL  Si0eT 7065   6.028   3.631   0.393
    1SIL  Si0eU 7066   5.783   3.605   0.755
    1SIL  Si0eV 7067   6.128   3.405   0.574
    1SIL  O01Iv 7068   5.929   3.581   0.819
    1SIL  O01Iw 7069   5.976   3.769   0.457
    1SIL  O01Ix 7070   5.789   3.716   0.638
    1SIL  O01Iy 7071   6.035   3.520   0.510
    1SIL  O01Iz 7072   6.222   3.467   0.691
    1SIL  O01J0 7073   6.174   3.655   0.872
    1SIL  Si0eW 7074   5.783   4.057   0.393
    1SIL  Si0eX 7075   5.537   4.030   0.755
    1SIL  Si0eY 7076   5.883   3.831   0.574
    1SIL  O01J1 7077   5.683   4.007   0.819
    1SIL  O01J2 7078   5.730   4.195   0.457
    1SIL  O01J3 7079   5.543   4.142   0.638
    1SIL  O01J4 7080   5.789   3.945   0.510
    1SIL  O01J5 7081   5.976   3.892   0.691
    1SIL  O01J6 7082   5.929   4.081   0.872
    1SIL  Si0eZ 7083   5.537   4.483   0.393
    1SIL  Si0ea 7084   5.291   4.456   0.755
    1SIL  Si0eb 7085   5.637   4.256   0.574
    1SIL  O01J7 7086   5.437   4.432   0.819
    1SIL  O01J8 7087   5.484   4.621   0.457
    1SIL  O01J9 7088   5.298   4.568   0.638
    1SIL  O01JA 7089   5.543   4.371   0.510
    1SIL  O01JB 7090   5.730   4.318   0.691
    1SIL  O01JC 7091   5.683   4.506   0.872
    1SIL  Si0ec 7092   5.291   4.908   0.393
    1SIL  Si0ed 7093   5.045   4.882   0.755
    1SIL  Si0ee 7094   5.391   4.682   0.574
    1SIL  O01JD 7095   5.191   4.858   0.819
    1SIL  O01JE 7096   5.239   5.046   0.457
    1SIL  O01JF 7097   5.052   4.993   0.638
    1SIL  O01JG 7098   5.298   4.797   0.510
    1SIL  O01JH 7099   5.484   4.744   0.691
    1SIL  O01JI 7100   5.437   4.932   0.872
    1SIL  Si0ef 7101   5.045   5.334   0.393
    1SIL  Si0eg 7102   4.800   5.307   0.755
    1SIL  Si0eh 7103   5.145   5.108   0.574
    1SIL  O01JJ 7104   4.946   5.284   0.819
    1SIL  O01JK 7105   4.993   5.472   0.457
    1SIL  O01JL 7106   4.806   5.419   0.638
    1SIL  O01JM 7107   5.052   5.222   0.510
    1SIL  O01JN 7108   5.239   5.169   0.691
    1SIL  O01JO 7109   5.191   5.357   0.872
    1SIL  Si0ei 7110   4.800   5.759   0.393
    1SIL  Si0ej 7111   4.554   5.733   0.755
    1SIL  Si0ek 7112   4.900   5.533   0.574
    1SIL  O01JP 7113   4.700   5.709   0.819
    1SIL  O01JQ 7114   4.747   5.898   0.457
    1SIL  O01JR 7115   4.560   5.844   0.638
    1SIL  O01JS 7116   4.806   5.648   0.510
    1SIL  O01JT 7117   4.993   5.595   0.691
    1SIL  O01JU 7118   4.946   5.783   0.872
    1SIL  Si0el 7119   4.554   6.185   0.393
    1SIL  Si0em 7120   4.308   6.159   0.755
    1SIL  Si0en 7121   4.654   5.959   0.574
    1SIL  O01JV 7122   4.454   6.135   0.819
    1SIL  O01JW 7123   4.501   6.323   0.457
    1SIL  O01JX 7124   4.315   6.270   0.638
    1SIL  O01JY 7125   4.560   6.074   0.510
    1SIL  O01JZ 7126   4.747   6.020   0.691
    1SIL  O01Ja 7127   4.700   6.209   0.872
    1SIL  Si0eo 7128   4.308   6.611   0.393
    1SIL  Si0ep 7129   4.062   6.584   0.755
    1SIL  Si0eq 7130   4.408   6.385   0.574
    1SIL  O01Jb 7131   4.208   6.561   0.819
    1SIL  O01Jc 7132   4.256   6.749   0.457
    1SIL  O01Jd 7133   4.069   6.696   0.638
    1SIL  O01Je 7134   4.315   6.499   0.510
    1SIL  O01Jf 7135   4.501   6.446   0.691
    1SIL  O01Jg 7136   4.454   6.634   0.872
    1SIL  Si0er 7137   4.062   7.036   0.393
    1SIL  Si0es 7138   3.817   7.010   0.755
    1SIL  Si0et 7139   4.162   6.810   0.574
    1SIL  O01Jh 7140   3.963   6.986   0.819
    1SIL  O01Ji 7141   4.010   7.175   0.457
    1SIL  O01Jj 7142   3.823   7.121   0.638
    1SIL  O01Jk 7143   4.069   6.925   0.510
    1SIL  O01Jl 7144   4.256   6.872   0.691
    1SIL  O01Jm 7145   4.208   7.060   0.872
    1SIL  Si0eu 7146   3.817   7.462   0.393
    1SIL  Si0ev 7147   3.571   7.436   0.755
    1SIL  Si0ew 7148   3.917   7.236   0.574
    1SIL  O01Jn 7149   3.717   7.412   0.819
    1SIL  O01Jo 7150   3.764   7.600   0.457
    1SIL  O01Jp 7151   3.577   7.547   0.638
    1SIL  O01Jq 7152   3.823   7.351   0.510
    1SIL  O01Jr 7153   4.010   7.297   0.691
    1SIL  O01Js 7154   3.963   7.486   0.872
    1SIL  Si0ex 7155   3.571   7.888   0.393
    1SIL  Si0ey 7156   3.325   7.861   0.755
    1SIL  Si0ez 7157   3.671   7.662   0.574
    1SIL  O01Jt 7158   3.471   7.838   0.819
    1SIL  O01Ju 7159   3.518   8.026   0.457
    1SIL  O01Jv 7160   3.332   7.973   0.638
    1SIL  O01Jw 7161   3.577   7.776   0.510
    1SIL  O01Jx 7162   3.764   7.723   0.691
    1SIL  O01Jy 7163   3.717   7.911   0.872
    1SIL  Si0f0 7164   3.325   8.313   0.393
    1SIL  Si0f1 7165   3.079   8.287   0.755
    1SIL  Si0f2 7166   3.425   8.087   0.574
    1SIL  O01Jz 7167   3.225   8.263   0.819
    1SIL  O01K0 7168   3.273   8.452   0.457
    1SIL  O01K1 7169   3.086   8.398   0.638
    1SIL  O01K2 7170   3.332   8.202   0.510
    1SIL  O01K3 7171   3.518   8.149   0.691
    1SIL  O01K4 7172   3.471   8.337   0.872
    1SIL  Si0f3 7173   3.079   8.739   0.393
    1SIL  Si0f4 7174   2.834   8.713   0.755
    1SIL  Si0f5 7175   3.179   8.513   0.574
    1SIL  O01K5 7176   2.980   8.689   0.819
    1SIL  O01K6 7177   3.027   8.877   0.457
    1SIL  O01K7 7178   2.840   8.824   0.638
    1SIL  O01K8 7179   3.086   8.628   0.510
    1SIL  O01K9 7180   3.273   8.574   0.691
    1SIL  O01KA 7181   3.225   8.763   0.872
    1SIL  Si0f6 7182   2.834   9.165   0.393
    1SIL  Si0f7 7183   2.588   9.138   0.755
    1SIL  Si0f8 7184   2.934   8.939   0.574
    1SIL  O01KB 7185   2.734   9.115   0.819
    1SIL  O01KC 7186   2.781   9.303   0.457
    1SIL  O01KD 7187   2.595   9.250   0.638
    1SIL  O01KE 7188   2.840   9.053   0.510
    1SIL  O01KF 7189   3.027   9.000   0.691
    1SIL  O01KG 7190   2.980   9.188   0.872
    1SIL  Si0f9 7191   2.588   9.590   0.393
    1SIL  Si0fA 7192   2.342   9.564   0.755
    1SIL  Si0fB 7193   2.688   9.364   0.574
    1SIL  O01KH 7194   2.488   9.540   0.819
    1SIL  O01KI 7195   2.535   9.729   0.457
    1SIL  O01KJ 7196   2.349   9.675   0.638
    1SIL  O01KK 7197   2.595   9.479   0.510
    1SIL  O01KL 7198   2.781   9.426   0.691
    1SIL  O01KM 7199   2.734   9.614   0.872
    1SIL  Si0fC 7200   8.486   0.226   0.393
    1SIL  Si0fD 7201   8.240   0.200   0.755
    1SIL  Si0fE 7202   8.586   0.000   0.574
    1SIL  O01KN 7203   8.386   0.176   0.819
    1SIL  O01KO 7204   8.433   0.364   0.457
    1SIL  O01KP 7205   8.247   0.311   0.638
    1SIL  O01KQ 7206   8.492   0.115   0.510
    1SIL  O01KR 7207   8.679   0.061   0.691
    1SIL  O01KS 7208   8.632   0.250   0.872
    1SIL  Si0fF 7209   8.240   0.652   0.393
    1SIL  Si0fG 7210   7.994   0.625   0.755
    1SIL  Si0fH 7211   8.340   0.426   0.574
    1SIL  O01KT 7212   8.140   0.602   0.819
    1SIL  O01KU 7213   8.188   0.790   0.457
    1SIL  O01KV 7214   8.001   0.737   0.638
    1SIL  O01KW 7215   8.247   0.540   0.510
    1SIL  O01KX 7216   8.433   0.487   0.691
    1SIL  O01KY 7217   8.386   0.675   0.872
    1SIL  Si0fI 7218   7.994   1.077   0.393
    1SIL  Si0fJ 7219   7.749   1.051   0.755
    1SIL  Si0fK 7220   8.094   0.851   0.574
    1SIL  O01KZ 7221   7.895   1.027   0.819
    1SIL  O01Ka 7222   7.942   1.216   0.457
    1SIL  O01Kb 7223   7.755   1.162   0.638
    1SIL  O01Kc 7224   8.001   0.966   0.510
    1SIL  O01Kd 7225   8.188   0.913   0.691
    1SIL  O01Ke 7226   8.140   1.101   0.872
    1SIL  Si0fL 7227   7.749   1.503   0.393
    1SIL  Si0fM 7228   7.503   1.477   0.755
    1SIL  Si0fN 7229   7.849   1.277   0.574
    1SIL  O01Kf 7230   7.649   1.453   0.819
    1SIL  O01Kg 7231   7.696   1.641   0.457
    1SIL  O01Kh 7232   7.509   1.588   0.638
    1SIL  O01Ki 7233   7.755   1.392   0.510
    1SIL  O01Kj 7234   7.942   1.338   0.691
    1SIL  O01Kk 7235   7.895   1.527   0.872
    1SIL  Si0fO 7236   7.503   1.929   0.393
    1SIL  Si0fP 7237   7.257   1.902   0.755
    1SIL  Si0fQ 7238   7.603   1.703   0.574
    1SIL  O01Kl 7239   7.403   1.879   0.819
    1SIL  O01Km 7240   7.450   2.067   0.457
    1SIL  O01Kn 7241   7.264   2.014   0.638
    1SIL  O01Ko 7242   7.509   1.817   0.510
    1SIL  O01Kp 7243   7.696   1.764   0.691
    1SIL  O01Kq 7244   7.649   1.952   0.872
    1SIL  Si0fR 7245   7.257   2.354   0.393
    1SIL  Si0fS 7246   7.011   2.328   0.755
    1SIL  Si0fT 7247   7.357   2.128   0.574
    1SIL  O01Kr 7248   7.157   2.304   0.819
    1SIL  O01Ks 7249   7.205   2.493   0.457
    1SIL  O01Kt 7250   7.018   2.439   0.638
    1SIL  O01Ku 7251   7.264   2.243   0.510
    1SIL  O01Kv 7252   7.450   2.190   0.691
    1SIL  O01Kw 7253   7.403   2.378   0.872
    1SIL  Si0fU 7254   7.011   2.780   0.393
    1SIL  Si0fV 7255   6.766   2.753   0.755
    1SIL  Si0fW 7256   7.111   2.554   0.574
    1SIL  O01Kx 7257   6.912   2.730   0.819
    1SIL  O01Ky 7258   6.959   2.918   0.457
    1SIL  O01Kz 7259   6.772   2.865   0.638
    1SIL  O01L0 7260   7.018   2.668   0.510
    1SIL  O01L1 7261   7.205   2.615   0.691
    1SIL  O01L2 7262   7.157   2.804   0.872
    1SIL  Si0fX 7263   6.766   3.206   0.393
    1SIL  Si0fY 7264   6.520   3.179   0.755
    1SIL  Si0fZ 7265   6.866   2.980   0.574
    1SIL  O01L3 7266   6.666   3.156   0.819
    1SIL  O01L4 7267   6.713   3.344   0.457
    1SIL  O01L5 7268   6.526   3.291   0.638
    1SIL  O01L6 7269   6.772   3.094   0.510
    1SIL  O01L7 7270   6.959   3.041   0.691
    1SIL  O01L8 7271   6.912   3.229   0.872
    1SIL  Si0fa 7272   6.520   3.631   0.393
    1SIL  Si0fb 7273   6.274   3.605   0.755
    1SIL  Si0fc 7274   6.620   3.405   0.574
    1SIL  O01L9 7275   6.420   3.581   0.819
    1SIL  O01LA 7276   6.467   3.769   0.457
    1SIL  O01LB 7277   6.281   3.716   0.638
    1SIL  O01LC 7278   6.526   3.520   0.510
    1SIL  O01LD 7279   6.713   3.467   0.691
    1SIL  O01LE 7280   6.666   3.655   0.872
    1SIL  Si0fd 7281   6.274   4.057   0.393
    1SIL  Si0fe 7282   6.028   4.030   0.755
    1SIL  Si0ff 7283   6.374   3.831   0.574
    1SIL  O01LF 7284   6.174   4.007   0.819
    1SIL  O01LG 7285   6.222   4.195   0.457
    1SIL  O01LH 7286   6.035   4.142   0.638
    1SIL  O01LI 7287   6.281   3.945   0.510
    1SIL  O01LJ 7288   6.467   3.892   0.691
    1SIL  O01LK 7289   6.420   4.081   0.872
    1SIL  Si0fg 7290   6.028   4.483   0.393
    1SIL  Si0fh 7291   5.783   4.456   0.755
    1SIL  Si0fi 7292   6.128   4.256   0.574
    1SIL  O01LL 7293   5.929   4.432   0.819
    1SIL  O01LM 7294   5.976   4.621   0.457
    1SIL  O01LN 7295   5.789   4.568   0.638
    1SIL  O01LO 7296   6.035   4.371   0.510
    1SIL  O01LP 7297   6.222   4.318   0.691
    1SIL  O01LQ 7298   6.174   4.506   0.872
    1SIL  Si0fj 7299   5.783   4.908   0.393
    1SIL  Si0fk 7300   5.537   4.882   0.755
    1SIL  Si0fl 7301   5.883   4.682   0.574
    1SIL  O01LR 7302   5.683   4.858   0.819
    1SIL  O01LS 7303   5.730   5.046   0.457
    1SIL  O01LT 7304   5.543   4.993   0.638
    1SIL  O01LU 7305   5.789   4.797   0.510
    1SIL  O01LV 7306   5.976   4.744   0.691
    1SIL  O01LW 7307   5.929   4.932   0.872
    1SIL  Si0fm 7308   5.537   5.334   0.393
    1SIL  Si0fn 7309   5.291   5.307   0.755
    1SIL  Si0fo 7310   5.637   5.108   0.574
    1SIL  O01LX 7311   5.437   5.284   0.819
    1SIL  O01LY 7312   5.484   5.472   0.457
    1SIL  O01LZ 7313   5.298   5.419   0.638
    1SIL  O01La 7314   5.543   5.222   0.510
    1SIL  O01Lb 7315   5.730   5.169   0.691
    1SIL  O01Lc 7316   5.683   5.357   0.872
    1SIL  Si0fp 7317   5.291   5.759   0.393
    1SIL  Si0fq 7318   5.045   5.733   0.755
    1SIL  Si0fr 7319   5.391   5.533   0.574
    1SIL  O01Ld 7320   5.191   5.709   0.819
    1SIL  O01Le 7321   5.239   5.898   0.457
    1SIL  O01Lf 7322   5.052   5.844   0.638
    1SIL  O01Lg 7323   5.298   5.648   0.510
    1SIL  O01Lh 7324   5.484   5.595   0.691
    1SIL  O01Li 7325   5.437   5.783   0.872
    1SIL  Si0fs 7326   5.045   6.185   0.393
    1SIL  Si0ft 7327   4.800   6.159   0.755
    1SIL  Si0fu 7328   5.145   5.959   0.574
    1SIL  O01Lj 7329   4.946   6.135   0.819
    1SIL  O01Lk 7330   4.993   6.323   0.457
    1SIL  O01Ll 7331   4.806   6.270   0.638
    1SIL  O01Lm 7332   5.052   6.074   0.510
    1SIL  O01Ln 7333   5.239   6.020   0.691
    1SIL  O01Lo 7334   5.191   6.209   0.872
    1SIL  Si0fv 7335   4.800   6.611   0.393
    1SIL  Si0fw 7336   4.554   6.584   0.755
    1SIL  Si0fx 7337   4.900   6.385   0.574
    1SIL  O01Lp 7338   4.700   6.561   0.819
    1SIL  O01Lq 7339   4.747   6.749   0.457
    1SIL  O01Lr 7340   4.560   6.696   0.638
    1SIL  O01Ls 7341   4.806   6.499   0.510
    1SIL  O01Lt 7342   4.993   6.446   0.691
    1SIL  O01Lu 7343   4.946   6.634   0.872
    1SIL  Si0fy 7344   4.554   7.036   0.393
    1SIL  Si0fz 7345   4.308   7.010   0.755
    1SIL  Si0g0 7346   4.654   6.810   0.574
    1SIL  O01Lv 7347   4.454   6.986   0.819
    1SIL  O01Lw 7348   4.501   7.175   0.457
    1SIL  O01Lx 7349   4.315   7.121   0.638
    1SIL  O01Ly 7350   4.560   6.925   0.510
    1SIL  O01Lz 7351   4.747   6.872   0.691
    1SIL  O01M0 7352   4.700   7.060   0.872
    1SIL  Si0g1 7353   4.308   7.462   0.393
    1SIL  Si0g2 7354   4.062   7.436   0.755
    1SIL  Si0g3 7355   4.408   7.236   0.574
    1SIL  O01M1 7356   4.208   7.412   0.819
    1SIL  O01M2 7357   4.256   7.600   0.457
    1SIL  O01M3 7358   4.069   7.547   0.638
    1SIL  O01M4 7359   4.315   7.351   0.510
    1SIL  O01M5 7360   4.501   7.297   0.691
    1SIL  O01M6 7361   4.454   7.486   0.872
    1SIL  Si0g4 7362   4.062   7.888   0.393
    1SIL  Si0g5 7363   3.817   7.861   0.755
    1SIL  Si0g6 7364   4.162   7.662   0.574
    1SIL  O01M7 7365   3.963   7.838   0.819
    1SIL  O01M8 7366   4.010   8.026   0.457
    1SIL  O01M9 7367   3.823   7.973   0.638
    1SIL  O01MA 7368   4.069   7.776   0.510
    1SIL  O01MB 7369   4.256   7.723   0.691
    1SIL  O01MC 7370   4.208   7.911   0.872
    1SIL  Si0g7 7371   3.817   8.313   0.393
    1SIL  Si0g8 7372   3.571   8.287   0.755
    1SIL  Si0g9 7373   3.917   8.087   0.574
    1SIL  O01MD 7374   3.717   8.263   0.819
    1SIL  O01ME 7375   3.764   8.452   0.457
    1SIL  O01MF 7376   3.577   8.398   0.638
    1SIL  O01MG 7377   3.823   8.202   0.510
    1SIL  O01MH 7378   4.010   8.149   0.691
    1SIL  O01MI 7379   3.963   8.337   0.872
    1SIL  Si0gA 7380   3.571   8.739   0.393
    1SIL  Si0gB 7381   3.325   8.713   0.755
    1SIL  Si0gC 7382   3.671   8.513   0.574
    1SIL  O01MJ 7383   3.471   8.689   0.819
    1SIL  O01MK 7384   3.518   8.877   0.457
    1SIL  O01ML 7385   3.332   8.824   0.638
    1SIL  O01MM 7386   3.577   8.628   0.510
    1SIL  O01MN 7387   3.764   8.574   0.691
    1SIL  O01MO 7388   3.717   8.763   0.872
    1SIL  Si0gD 7389   3.325   9.165   0.393
    1SIL  Si0gE 7390   3.079   9.138   0.755
    1SIL  Si0gF 7391   3.425   8.939   0.574
    1SIL  O01MP 7392   3.225   9.115   0.819
    1SIL  O01MQ 7393   3.273   9.303   0.457
    1SIL  O01MR 7394   3.086   9.250   0.638
    1SIL  O01MS 7395   3.332   9.053   0.510
    1SIL  O01MT 7396   3.518   9.000   0.691
    1SIL  O01MU 7397   3.471   9.188   0.872
    1SIL  Si0gG 7398   3.079   9.590   0.393
    1SIL  Si0gH 7399   2.834   9.564   0.755
    1SIL  Si0gI 7400   3.179   9.364   0.574
    1SIL  O01MV 7401   2.980   9.540   0.819
    1SIL  O01MW 7402   3.027   9.729   0.457
    1SIL  O01MX 7403   2.840   9.675   0.638
    1SIL  O01MY 7404   3.086   9.479   0.510
    1SIL  O01MZ 7405   3.273   9.426   0.691
    1SIL  O01Ma 7406   3.225   9.614   0.872
    1SIL  Si0gJ 7407   8.977   0.226   0.393
    1SIL  Si0gK 7408   8.732   0.200   0.755
    1SIL  Si0gL 7409   9.077   0.000   0.574
    1SIL  O01Mb 7410   8.878   0.176   0.819
    1SIL  O01Mc 7411   8.925   0.364   0.457
    1SIL  O01Md 7412   8.738   0.311   0.638
    1SIL  O01Me 7413   8.984   0.115   0.510
    1SIL  O01Mf 7414   9.171   0.061   0.691
    1SIL  O01Mg 7415   9.123   0.250   0.872
    1SIL  Si0gM 7416   8.732   0.652   0.393
    1SIL  Si0gN 7417   8.486   0.625   0.755
    1SIL  Si0gO 7418   8.832   0.426   0.574
    1SIL  O01Mh 7419   8.632   0.602   0.819
    1SIL  O01Mi 7420   8.679   0.790   0.457
    1SIL  O01Mj 7421   8.492   0.737   0.638
    1SIL  O01Mk 7422   8.738   0.540   0.510
    1SIL  O01Ml 7423   8.925   0.487   0.691
    1SIL  O01Mm 7424   8.878   0.675   0.872
    1SIL  Si0gP 7425   8.486   1.077   0.393
    1SIL  Si0gQ 7426   8.240   1.051   0.755
    1SIL  Si0gR 7427   8.586   0.851   0.574
    1SIL  O01Mn 7428   8.386   1.027   0.819
    1SIL  O01Mo 7429   8.433   1.216   0.457
    1SIL  O01Mp 7430   8.247   1.162   0.638
    1SIL  O01Mq 7431   8.492   0.966   0.510
    1SIL  O01Mr 7432   8.679   0.913   0.691
    1SIL  O01Ms 7433   8.632   1.101   0.872
    1SIL  Si0gS 7434   8.240   1.503   0.393
    1SIL  Si0gT 7435   7.994   1.477   0.755
    1SIL  Si0gU 7436   8.340   1.277   0.574
    1SIL  O01Mt 7437   8.140   1.453   0.819
    1SIL  O01Mu 7438   8.188   1.641   0.457
    1SIL  O01Mv 7439   8.001   1.588   0.638
    1SIL  O01Mw 7440   8.247   1.392   0.510
    1SIL  O01Mx 7441   8.433   1.338   0.691
    1SIL  O01My 7442   8.386   1.527   0.872
    1SIL  Si0gV 7443   7.994   1.929   0.393
    1SIL  Si0gW 7444   7.749   1.902   0.755
    1SIL  Si0gX 7445   8.094   1.703   0.574
    1SIL  O01Mz 7446   7.895   1.879   0.819
    1SIL  O01N0 7447   7.942   2.067   0.457
    1SIL  O01N1 7448   7.755   2.014   0.638
    1SIL  O01N2 7449   8.001   1.817   0.510
    1SIL  O01N3 7450   8.188   1.764   0.691
    1SIL  O01N4 7451   8.140   1.952   0.872
    1SIL  Si0gY 7452   7.749   2.354   0.393
    1SIL  Si0gZ 7453   7.503   2.328   0.755
    1SIL  Si0ga 7454   7.849   2.128   0.574
    1SIL  O01N5 7455   7.649   2.304   0.819
    1SIL  O01N6 7456   7.696   2.493   0.457
    1SIL  O01N7 7457   7.509   2.439   0.638
    1SIL  O01N8 7458   7.755   2.243   0.510
    1SIL  O01N9 7459   7.942   2.190   0.691
    1SIL  O01NA 7460   7.895   2.378   0.872
    1SIL  Si0gb 7461   7.503   2.780   0.393
    1SIL  Si0gc 7462   7.257   2.753   0.755
    1SIL  Si0gd 7463   7.603   2.554   0.574
    1SIL  O01NB 7464   7.403   2.730   0.819
    1SIL  O01NC 7465   7.450   2.918   0.457
    1SIL  O01ND 7466   7.264   2.865   0.638
    1SIL  O01NE 7467   7.509   2.668   0.510
    1SIL  O01NF 7468   7.696   2.615   0.691
    1SIL  O01NG 7469   7.649   2.804   0.872
    1SIL  Si0ge 7470   7.257   3.206   0.393
    1SIL  Si0gf 7471   7.011   3.179   0.755
    1SIL  Si0gg 7472   7.357   2.980   0.574
    1SIL  O01NH 7473   7.157   3.156   0.819
    1SIL  O01NI 7474   7.205   3.344   0.457
    1SIL  O01NJ 7475   7.018   3.291   0.638
    1SIL  O01NK 7476   7.264   3.094   0.510
    1SIL  O01NL 7477   7.450   3.041   0.691
    1SIL  O01NM 7478   7.403   3.229   0.872
    1SIL  Si0gh 7479   7.011   3.631   0.393
    1SIL  Si0gi 7480   6.766   3.605   0.755
    1SIL  Si0gj 7481   7.111   3.405   0.574
    1SIL  O01NN 7482   6.912   3.581   0.819
    1SIL  O01NO 7483   6.959   3.769   0.457
    1SIL  O01NP 7484   6.772   3.716   0.638
    1SIL  O01NQ 7485   7.018   3.520   0.510
    1SIL  O01NR 7486   7.205   3.467   0.691
    1SIL  O01NS 7487   7.157   3.655   0.872
    1SIL  Si0gk 7488   6.766   4.057   0.393
    1SIL  Si0gl 7489   6.520   4.030   0.755
    1SIL  Si0gm 7490   6.866   3.831   0.574
    1SIL  O01NT 7491   6.666   4.007   0.819
    1SIL  O01NU 7492   6.713   4.195   0.457
    1SIL  O01NV 7493   6.526   4.142   0.638
    1SIL  O01NW 7494   6.772   3.945   0.510
    1SIL  O01NX 7495   6.959   3.892   0.691
    1SIL  O01NY 7496   6.912   4.081   0.872
    1SIL  Si0gn 7497   6.520   4.483   0.393
    1SIL  Si0go 7498   6.274   4.456   0.755
    1SIL  Si0gp 7499   6.620   4.256   0.574
    1SIL  O01NZ 7500   6.420   4.432   0.819
    1SIL  O01Na 7501   6.467   4.621   0.457
    1SIL  O01Nb 7502   6.281   4.568   0.638
    1SIL  O01Nc 7503   6.526   4.371   0.510
    1SIL  O01Nd 7504   6.713   4.318   0.691
    1SIL  O01Ne 7505   6.666   4.506   0.872
    1SIL  Si0gq 7506   6.274   4.908   0.393
    1SIL  Si0gr 7507   6.028   4.882   0.755
    1SIL  Si0gs 7508   6.374   4.682   0.574
    1SIL  O01Nf 7509   6.174   4.858   0.819
    1SIL  O01Ng 7510   6.222   5.046   0.457
    1SIL  O01Nh 7511   6.035   4.993   0.638
    1SIL  O01Ni 7512   6.281   4.797   0.510
    1SIL  O01Nj 7513   6.467   4.744   0.691
    1SIL  O01Nk 7514   6.420   4.932   0.872
    1SIL  Si0gt 7515   6.028   5.334   0.393
    1SIL  Si0gu 7516   5.783   5.307   0.755
    1SIL  Si0gv 7517   6.128   5.108   0.574
    1SIL  O01Nl 7518   5.929   5.284   0.819
    1SIL  O01Nm 7519   5.976   5.472   0.457
    1SIL  O01Nn 7520   5.789   5.419   0.638
    1SIL  O01No 7521   6.035   5.222   0.510
    1SIL  O01Np 7522   6.222   5.169   0.691
    1SIL  O01Nq 7523   6.174   5.357   0.872
    1SIL  Si0gw 7524   5.783   5.759   0.393
    1SIL  Si0gx 7525   5.537   5.733   0.755
    1SIL  Si0gy 7526   5.883   5.533   0.574
    1SIL  O01Nr 7527   5.683   5.709   0.819
    1SIL  O01Ns 7528   5.730   5.898   0.457
    1SIL  O01Nt 7529   5.543   5.844   0.638
    1SIL  O01Nu 7530   5.789   5.648   0.510
    1SIL  O01Nv 7531   5.976   5.595   0.691
    1SIL  O01Nw 7532   5.929   5.783   0.872
    1SIL  Si0gz 7533   5.537   6.185   0.393
    1SIL  Si0h0 7534   5.291   6.159   0.755
    1SIL  Si0h1 7535   5.637   5.959   0.574
    1SIL  O01Nx 7536   5.437   6.135   0.819
    1SIL  O01Ny 7537   5.484   6.323   0.457
    1SIL  O01Nz 7538   5.298   6.270   0.638
    1SIL  O01O0 7539   5.543   6.074   0.510
    1SIL  O01O1 7540   5.730   6.020   0.691
    1SIL  O01O2 7541   5.683   6.209   0.872
    1SIL  Si0h2 7542   5.291   6.611   0.393
    1SIL  Si0h3 7543   5.045   6.584   0.755
    1SIL  Si0h4 7544   5.391   6.385   0.574
    1SIL  O01O3 7545   5.191   6.561   0.819
    1SIL  O01O4 7546   5.239   6.749   0.457
    1SIL  O01O5 7547   5.052   6.696   0.638
    1SIL  O01O6 7548   5.298   6.499   0.510
    1SIL  O01O7 7549   5.484   6.446   0.691
    1SIL  O01O8 7550   5.437   6.634   0.872
    1SIL  Si0h5 7551   5.045   7.036   0.393
    1SIL  Si0h6 7552   4.800   7.010   0.755
    1SIL  Si0h7 7553   5.145   6.810   0.574
    1SIL  O01O9 7554   4.946   6.986   0.819
    1SIL  O01OA 7555   4.993   7.175   0.457
    1SIL  O01OB 7556   4.806   7.121   0.638
    1SIL  O01OC 7557   5.052   6.925   0.510
    1SIL  O01OD 7558   5.239   6.872   0.691
    1SIL  O01OE 7559   5.191   7.060   0.872
    1SIL  Si0h8 7560   4.800   7.462   0.393
    1SIL  Si0h9 7561   4.554   7.436   0.755
    1SIL  Si0hA 7562   4.900   7.236   0.574
    1SIL  O01OF 7563   4.700   7.412   0.819
    1SIL  O01OG 7564   4.747   7.600   0.457
    1SIL  O01OH 7565   4.560   7.547   0.638
    1SIL  O01OI 7566   4.806   7.351   0.510
    1SIL  O01OJ 7567   4.993   7.297   0.691
    1SIL  O01OK 7568   4.946   7.486   0.872
    1SIL  Si0hB 7569   4.554   7.888   0.393
    1SIL  Si0hC 7570   4.308   7.861   0.755
    1SIL  Si0hD 7571   4.654   7.662   0.574
    1SIL  O01OL 7572   4.454   7.838   0.819
    1SIL  O01OM 7573   4.501   8.026   0.457
    1SIL  O01ON 7574   4.315   7.973   0.638
    1SIL  O01OO 7575   4.560   7.776   0.510
    1SIL  O01OP 7576   4.747   7.723   0.691
    1SIL  O01OQ 7577   4.700   7.911   0.872
    1SIL  Si0hE 7578   4.308   8.313   0.393
    1SIL  Si0hF 7579   4.062   8.287   0.755
    1SIL  Si0hG 7580   4.408   8.087   0.574
    1SIL  O01OR 7581   4.208   8.263   0.819
    1SIL  O01OS 7582   4.256   8.452   0.457
    1SIL  O01OT 7583   4.069   8.398   0.638
    1SIL  O01OU 7584   4.315   8.202   0.510
    1SIL  O01OV 7585   4.501   8.149   0.691
    1SIL  O01OW 7586   4.454   8.337   0.872
    1SIL  Si0hH 7587   4.062   8.739   0.393
    1SIL  Si0hI 7588   3.817   8.713   0.755
    1SIL  Si0hJ 7589   4.162   8.513   0.574
    1SIL  O01OX 7590   3.963   8.689   0.819
    1SIL  O01OY 7591   4.010   8.877   0.457
    1SIL  O01OZ 7592   3.823   8.824   0.638
    1SIL  O01Oa 7593   4.069   8.628   0.510
    1SIL  O01Ob 7594   4.256   8.574   0.691
    1SIL  O01Oc 7595   4.208   8.763   0.872
    1SIL  Si0hK 7596   3.817   9.165   0.393
    1SIL  Si0hL 7597   3.571   9.138   0.755
    1SIL  Si0hM 7598   3.917   8.939   0.574
    1SIL  O01Od 7599   3.717   9.115   0.819
    1SIL  O01Oe 7600   3.764   9.303   0.457
    1SIL  O01Of 7601   3.577   9.250   0.638
    1SIL  O01Og 7602   3.823   9.053   0.510
    1SIL  O01Oh 7603   4.010   9.000   0.691
    1SIL  O01Oi 7604   3.963   9.188   0.872
    1SIL  Si0hN 7605   3.571   9.590   0.393
    1SIL  Si0hO 7606   3.325   9.564   0.755
    1SIL  Si0hP 7607   3.671   9.364   0.574
    1SIL  O01Oj 7608   3.471   9.540   0.819
    1SIL  O01Ok 7609   3.518   9.729   0.457
    1SIL  O01Ol 7610   3.332   9.675   0.638
    1SIL  O01Om 7611   3.577   9.479   0.510
    1SIL  O01On 7612   3.764   9.426   0.691
    1SIL  O01Oo 7613   3.717   9.614   0.872
    1SIL  Si0hQ 7614   9.469   0.226   0.393
    1SIL  Si0hR 7615   9.223   0.200   0.755
    1SIL  Si0hS 7616   9.569   0.000   0.574
    1SIL  O01Op 7617   9.369   0.176   0.819
    1SIL  O01Oq 7618   9.416   0.364   0.457
    1SIL  O01Or 7619   9.230   0.311   0.638
    1SIL  O01Os 7620   9.475   0.115   0.510
    1SIL  O01Ot 7621   9.662   0.061   0.691
    1SIL  O01Ou 7622   9.615   0.250   0.872
    1SIL  Si0hT 7623   9.223   0.652   0.393
    1SIL  Si0hU 7624   8.977   0.625   0.755
    1SIL  Si0hV 7625   9.323   0.426   0.574
    1SIL  O01Ov 7626   9.123   0.602   0.819
    1SIL  O01Ow 7627   9.171   0.790   0.457
    1SIL  O01Ox 7628   8.984   0.737   0.638
    1SIL  O01Oy 7629   9.230   0.540   0.510
    1SIL  O01Oz 7630   9.416   0.487   0.691
    1SIL  O01P0 7631   9.369   0.675   0.872
    1SIL  Si0hW 7632   8.977   1.077   0.393
    1SIL  Si0hX 7633   8.732   1.051   0.755
    1SIL  Si0hY 7634   9.077   0.851   0.574
    1SIL  O01P1 7635   8.878   1.027   0.819
    1SIL  O01P2 7636   8.925   1.216   0.457
    1SIL  O01P3 7637   8.738   1.162   0.638
    1SIL  O01P4 7638   8.984   0.966   0.510
    1SIL  O01P5 7639   9.171   0.913   0.691
    1SIL  O01P6 7640   9.123   1.101   0.872
    1SIL  Si0hZ 7641   8.732   1.503   0.393
    1SIL  Si0ha 7642   8.486   1.477   0.755
    1SIL  Si0hb 7643   8.832   1.277   0.574
    1SIL  O01P7 7644   8.632   1.453   0.819
    1SIL  O01P8 7645   8.679   1.641   0.457
    1SIL  O01P9 7646   8.492   1.588   0.638
    1SIL  O01PA 7647   8.738   1.392   0.510
    1SIL  O01PB 7648   8.925   1.338   0.691
    1SIL  O01PC 7649   8.878   1.527   0.872
    1SIL  Si0hc 7650   8.486   1.929   0.393
    1SIL  Si0hd 7651   8.240   1.902   0.755
    1SIL  Si0he 7652   8.586   1.703   0.574
    1SIL  O01PD 7653   8.386   1.879   0.819
    1SIL  O01PE 7654   8.433   2.067   0.457
    1SIL  O01PF 7655   8.247   2.014   0.638
    1SIL  O01PG 7656   8.492   1.817   0.510
    1SIL  O01PH 7657   8.679   1.764   0.691
    1SIL  O01PI 7658   8.632   1.952   0.872
    1SIL  Si0hf 7659   8.240   2.354   0.393
    1SIL  Si0hg 7660   7.994   2.328   0.755
    1SIL  Si0hh 7661   8.340   2.128   0.574
    1SIL  O01PJ 7662   8.140   2.304   0.819
    1SIL  O01PK 7663   8.188   2.493   0.457
    1SIL  O01PL 7664   8.001   2.439   0.638
    1SIL  O01PM 7665   8.247   2.243   0.510
    1SIL  O01PN 7666   8.433   2.190   0.691
    1SIL  O01PO 7667   8.386   2.378   0.872
    1SIL  Si0hi 7668   7.994   2.780   0.393
    1SIL  Si0hj 7669   7.749   2.753   0.755
    1SIL  Si0hk 7670   8.094   2.554   0.574
    1SIL  O01PP 7671   7.895   2.730   0.819
    1SIL  O01PQ 7672   7.942   2.918   0.457
    1SIL  O01PR 7673   7.755   2.865   0.638
    1SIL  O01PS 7674   8.001   2.668   0.510
    1SIL  O01PT 7675   8.188   2.615   0.691
    1SIL  O01PU 7676   8.140   2.804   0.872
    1SIL  Si0hl 7677   7.749   3.206   0.393
    1SIL  Si0hm 7678   7.503   3.179   0.755
    1SIL  Si0hn 7679   7.849   2.980   0.574
    1SIL  O01PV 7680   7.649   3.156   0.819
    1SIL  O01PW 7681   7.696   3.344   0.457
    1SIL  O01PX 7682   7.509   3.291   0.638
    1SIL  O01PY 7683   7.755   3.094   0.510
    1SIL  O01PZ 7684   7.942   3.041   0.691
    1SIL  O01Pa 7685   7.895   3.229   0.872
    1SIL  Si0ho 7686   7.503   3.631   0.393
    1SIL  Si0hp 7687   7.257   3.605   0.755
    1SIL  Si0hq 7688   7.603   3.405   0.574
    1SIL  O01Pb 7689   7.403   3.581   0.819
    1SIL  O01Pc 7690   7.450   3.769   0.457
    1SIL  O01Pd 7691   7.264   3.716   0.638
    1SIL  O01Pe 7692   7.509   3.520   0.510
    1SIL  O01Pf 7693   7.696   3.467   0.691
    1SIL  O01Pg 7694   7.649   3.655   0.872
    1SIL  Si0hr 7695   7.257   4.057   0.393
    1SIL  Si0hs 7696   7.011   4.030   0.755
    1SIL  Si0ht 7697   7.357   3.831   0.574
    1SIL  O01Ph 7698   7.157   4.007   0.819
    1SIL  O01Pi 7699   7.205   4.195   0.457
    1SIL  O01Pj 7700   7.018   4.142   0.638
    1SIL  O01Pk 7701   7.264   3.945   0.510
    1SIL  O01Pl 7702   7.450   3.892   0.691
    1SIL  O01Pm 7703   7.403   4.081   0.872
    1SIL  Si0hu 7704   7.011   4.483   0.393
    1SIL  Si0hv 7705   6.766   4.456   0.755
    1SIL  Si0hw 7706   7.111   4.256   0.574
    1SIL  O01Pn 7707   6.912   4.432   0.819
    1SIL  O01Po 7708   6.959   4.621   0.457
    1SIL  O01Pp 7709   6.772   4.568   0.638
    1SIL  O01Pq 7710   7.018   4.371   0.510
    1SIL  O01Pr 7711   7.205   4.318   0.691
    1SIL  O01Ps 7712   7.157   4.506   0.872
    1SIL  Si0hx 7713   6.766   4.908   0.393
    1SIL  Si0hy 7714   6.520   4.882   0.755
    1SIL  Si0hz 7715   6.866   4.682   0.574
    1SIL  O01Pt 7716   6.666   4.858   0.819
    1SIL  O01Pu 7717   6.713   5.046   0.457
    1SIL  O01Pv 7718   6.526   4.993   0.638
    1SIL  O01Pw 7719   6.772   4.797   0.510
    1SIL  O01Px 7720   6.959   4.744   0.691
    1SIL  O01Py 7721   6.912   4.932   0.872
    1SIL  Si0i0 7722   6.520   5.334   0.393
    1SIL  Si0i1 7723   6.274   5.307   0.755
    1SIL  Si0i2 7724   6.620   5.108   0.574
    1SIL  O01Pz 7725   6.420   5.284   0.819
    1SIL  O01Q0 7726   6.467   5.472   0.457
    1SIL  O01Q1 7727   6.281   5.419   0.638
    1SIL  O01Q2 7728   6.526   5.222   0.510
    1SIL  O01Q3 7729   6.713   5.169   0.691
    1SIL  O01Q4 7730   6.666   5.357   0.872
    1SIL  Si0i3 7731   6.274   5.759   0.393
    1SIL  Si0i4 7732   6.028   5.733   0.755
    1SIL  Si0i5 7733   6.374   5.533   0.574
    1SIL  O01Q5 7734   6.174   5.709   0.819
    1SIL  O01Q6 7735   6.222   5.898   0.457
    1SIL  O01Q7 7736   6.035   5.844   0.638
    1SIL  O01Q8 7737   6.281   5.648   0.510
    1SIL  O01Q9 7738   6.467   5.595   0.691
    1SIL  O01QA 7739   6.420   5.783   0.872
    1SIL  Si0i6 7740   6.028   6.185   0.393
    1SIL  Si0i7 7741   5.783   6.159   0.755
    1SIL  Si0i8 7742   6.128   5.959   0.574
    1SIL  O01QB 7743   5.929   6.135   0.819
    1SIL  O01QC 7744   5.976   6.323   0.457
    1SIL  O01QD 7745   5.789   6.270   0.638
    1SIL  O01QE 7746   6.035   6.074   0.510
    1SIL  O01QF 7747   6.222   6.020   0.691
    1SIL  O01QG 7748   6.174   6.209   0.872
    1SIL  Si0i9 7749   5.783   6.611   0.393
    1SIL  Si0iA 7750   5.537   6.584   0.755
    1SIL  Si0iB 7751   5.883   6.385   0.574
    1SIL  O01QH 7752   5.683   6.561   0.819
    1SIL  O01QI 7753   5.730   6.749   0.457
    1SIL  O01QJ 7754   5.543   6.696   0.638
    1SIL  O01QK 7755   5.789   6.499   0.510
    1SIL  O01QL 7756   5.976   6.446   0.691
    1SIL  O01QM 7757   5.929   6.634   0.872
    1SIL  Si0iC 7758   5.537   7.036   0.393
    1SIL  Si0iD 7759   5.291   7.010   0.755
    1SIL  Si0iE 7760   5.637   6.810   0.574
    1SIL  O01QN 7761   5.437   6.986   0.819
    1SIL  O01QO 7762   5.484   7.175   0.457
    1SIL  O01QP 7763   5.298   7.121   0.638
    1SIL  O01QQ 7764   5.543   6.925   0.510
    1SIL  O01QR 7765   5.730   6.872   0.691
    1SIL  O01QS 7766   5.683   7.060   0.872
    1SIL  Si0iF 7767   5.291   7.462   0.393
    1SIL  Si0iG 7768   5.045   7.436   0.755
    1SIL  Si0iH 7769   5.391   7.236   0.574
    1SIL  O01QT 7770   5.191   7.412   0.819
    1SIL  O01QU 7771   5.239   7.600   0.457
    1SIL  O01QV 7772   5.052   7.547   0.638
    1SIL  O01QW 7773   5.298   7.351   0.510
    1SIL  O01QX 7774   5.484   7.297   0.691
    1SIL  O01QY 7775   5.437   7.486   0.872
    1SIL  Si0iI 7776   5.045   7.888   0.393
    1SIL  Si0iJ 7777   4.800   7.861   0.755
    1SIL  Si0iK 7778   5.145   7.662   0.574
    1SIL  O01QZ 7779   4.946   7.838   0.819
    1SIL  O01Qa 7780   4.993   8.026   0.457
    1SIL  O01Qb 7781   4.806   7.973   0.638
    1SIL  O01Qc 7782   5.052   7.776   0.510
    1SIL  O01Qd 7783   5.239   7.723   0.691
    1SIL  O01Qe 7784   5.191   7.911   0.872
    1SIL  Si0iL 7785   4.800   8.313   0.393
    1SIL  Si0iM 7786   4.554   8.287   0.755
    1SIL  Si0iN 7787   4.900   8.087   0.574
    1SIL  O01Qf 7788   4.700   8.263   0.819
    1SIL  O01Qg 7789   4.747   8.452   0.457
    1SIL  O01Qh 7790   4.560   8.398   0.638
    1SIL  O01Qi 7791   4.806   8.202   0.510
    1SIL  O01Qj 7792   4.993   8.149   0.691
    1SIL  O01Qk 7793   4.946   8.337   0.872
    1SIL  Si0iO 7794   4.554   8.739   0.393
    1SIL  Si0iP 7795   4.308   8.713   0.755
    1SIL  Si0iQ 7796   4.654   8.513   0.574
    1SIL  O01Ql 7797   4.454   8.689   0.819
    1SIL  O01Qm 7798   4.501   8.877   0.457
    1SIL  O01Qn 7799   4.315   8.824   0.638
    1SIL  O01Qo 7800   4.560   8.628   0.510
    1SIL  O01Qp 7801   4.747   8.574   0.691
    1SIL  O01Qq 7802   4.700   8.763   0.872
    1SIL  Si0iR 7803   4.308   9.165   0.393
    1SIL  Si0iS 7804   4.062   9.138   0.755
    1SIL  Si0iT 7805   4.408   8.939   0.574
    1SIL  O01Qr 7806   4.208   9.115   0.819
    1SIL  O01Qs 7807   4.256   9.303   0.457
    1SIL  O01Qt 7808   4.069   9.250   0.638
    1SIL  O01Qu 7809   4.315   9.053   0.510
    1SIL  O01Qv 7810   4.501   9.000   0.691
    1SIL  O01Qw 7811   4.454   9.188   0.872
    1SIL  Si0iU 7812   4.062   9.590   0.393
    1SIL  Si0iV 7813   3.817   9.564   0.755
    1SIL  Si0iW 7814   4.162   9.364   0.574
    1SIL  O01Qx 7815   3.963   9.540   0.819
    1SIL  O01Qy 7816   4.010   9.729   0.457
    1SIL  O01Qz 7817   3.823   9.675   0.638
    1SIL  O01R0 7818   4.069   9.479   0.510
    1SIL  O01R1 7819   4.256   9.426   0.691
    1SIL  O01R2 7820   4.208   9.614   0.872
    1SIL  Si0iX 7821   0.131   0.226   0.936
    1SIL  Si0iY 7822   9.715   0.200   1.298
    1SIL  Si0iZ 7823   0.230   0.000   1.117
    1SIL  O01R3 7824   0.031   0.176   1.363
    1SIL  O01R4 7825   0.078   0.364   1.000
    1SIL  O01R5 7826   9.721   0.311   1.182
    1SIL  O01R6 7827   0.137   0.115   1.053
    1SIL  O01R7 7828   0.324   0.061   1.234
    1SIL  O01R8 7829   0.276   0.250   1.415
    1SIL  Si0ia 7830   9.715   0.652   0.936
    1SIL  Si0ib 7831   9.469   0.625   1.298
    1SIL  Si0ic 7832   9.815   0.426   1.117
    1SIL  O01R9 7833   9.615   0.602   1.363
    1SIL  O01RA 7834   9.662   0.790   1.000
    1SIL  O01RB 7835   9.475   0.737   1.182
    1SIL  O01RC 7836   9.721   0.540   1.053
    1SIL  O01RD 7837   0.078   0.487   1.234
    1SIL  O01RE 7838   0.031   0.675   1.415
    1SIL  Si0id 7839   9.469   1.077   0.936
    1SIL  Si0ie 7840   9.223   1.051   1.298
    1SIL  Si0if 7841   9.569   0.851   1.117
    1SIL  O01RF 7842   9.369   1.027   1.363
    1SIL  O01RG 7843   9.416   1.216   1.000
    1SIL  O01RH 7844   9.230   1.162   1.182
    1SIL  O01RI 7845   9.475   0.966   1.053
    1SIL  O01RJ 7846   9.662   0.913   1.234
    1SIL  O01RK 7847   9.615   1.101   1.415
    1SIL  Si0ig 7848   9.223   1.503   0.936
    1SIL  Si0ih 7849   8.977   1.477   1.298
    1SIL  Si0ii 7850   9.323   1.277   1.117
    1SIL  O01RL 7851   9.123   1.453   1.363
    1SIL  O01RM 7852   9.171   1.641   1.000
    1SIL  O01RN 7853   8.984   1.588   1.182
    1SIL  O01RO 7854   9.230   1.392   1.053
    1SIL  O01RP 7855   9.416   1.338   1.234
    1SIL  O01RQ 7856   9.369   1.527   1.415
    1SIL  Si0ij 7857   8.977   1.929   0.936
    1SIL  Si0ik 7858   8.732   1.902   1.298
    1SIL  Si0il 7859   9.077   1.703   1.117
    1SIL  O01RR 7860   8.878   1.879   1.363
    1SIL  O01RS 7861   8.925   2.067   1.000
    1SIL  O01RT 7862   8.738   2.014   1.182
    1SIL  O01RU 7863   8.984   1.817   1.053
    1SIL  O01RV 7864   9.171   1.764   1.234
    1SIL  O01RW 7865   9.123   1.952   1.415
    1SIL  Si0im 7866   8.732   2.354   0.936
    1SIL  Si0in 7867   8.486   2.328   1.298
    1SIL  Si0io 7868   8.832   2.128   1.117
    1SIL  O01RX 7869   8.632   2.304   1.363
    1SIL  O01RY 7870   8.679   2.493   1.000
    1SIL  O01RZ 7871   8.492   2.439   1.182
    1SIL  O01Ra 7872   8.738   2.243   1.053
    1SIL  O01Rb 7873   8.925   2.190   1.234
    1SIL  O01Rc 7874   8.878   2.378   1.415
    1SIL  Si0ip 7875   8.486   2.780   0.936
    1SIL  Si0iq 7876   8.240   2.753   1.298
    1SIL  Si0ir 7877   8.586   2.554   1.117
    1SIL  O01Rd 7878   8.386   2.730   1.363
    1SIL  O01Re 7879   8.433   2.918   1.000
    1SIL  O01Rf 7880   8.247   2.865   1.182
    1SIL  O01Rg 7881   8.492   2.668   1.053
    1SIL  O01Rh 7882   8.679   2.615   1.234
    1SIL  O01Ri 7883   8.632   2.804   1.415
    1SIL  Si0is 7884   8.240   3.206   0.936
    1SIL  Si0it 7885   7.994   3.179   1.298
    1SIL  Si0iu 7886   8.340   2.980   1.117
    1SIL  O01Rj 7887   8.140   3.156   1.363
    1SIL  O01Rk 7888   8.188   3.344   1.000
    1SIL  O01Rl 7889   8.001   3.291   1.182
    1SIL  O01Rm 7890   8.247   3.094   1.053
    1SIL  O01Rn 7891   8.433   3.041   1.234
    1SIL  O01Ro 7892   8.386   3.229   1.415
    1SIL  Si0iv 7893   7.994   3.631   0.936
    1SIL  Si0iw 7894   7.749   3.605   1.298
    1SIL  Si0ix 7895   8.094   3.405   1.117
    1SIL  O01Rp 7896   7.895   3.581   1.363
    1SIL  O01Rq 7897   7.942   3.769   1.000
    1SIL  O01Rr 7898   7.755   3.716   1.182
    1SIL  O01Rs 7899   8.001   3.520   1.053
    1SIL  O01Rt 7900   8.188   3.467   1.234
    1SIL  O01Ru 7901   8.140   3.655   1.415
    1SIL  Si0iy 7902   7.749   4.057   0.936
    1SIL  Si0iz 7903   7.503   4.030   1.298
    1SIL  Si0j0 7904   7.849   3.831   1.117
    1SIL  O01Rv 7905   7.649   4.007   1.363
    1SIL  O01Rw 7906   7.696   4.195   1.000
    1SIL  O01Rx 7907   7.509   4.142   1.182
    1SIL  O01Ry 7908   7.755   3.945   1.053
    1SIL  O01Rz 7909   7.942   3.892   1.234
    1SIL  O01S0 7910   7.895   4.081   1.415
    1SIL  Si0j1 7911   7.503   4.483   0.936
    1SIL  Si0j2 7912   7.257   4.456   1.298
    1SIL  Si0j3 7913   7.603   4.256   1.117
    1SIL  O01S1 7914   7.403   4.432   1.363
    1SIL  O01S2 7915   7.450   4.621   1.000
    1SIL  O01S3 7916   7.264   4.568   1.182
    1SIL  O01S4 7917   7.509   4.371   1.053
    1SIL  O01S5 7918   7.696   4.318   1.234
    1SIL  O01S6 7919   7.649   4.506   1.415
    1SIL  Si0j4 7920   7.257   4.908   0.936
    1SIL  Si0j5 7921   7.011   4.882   1.298
    1SIL  Si0j6 7922   7.357   4.682   1.117
    1SIL  O01S7 7923   7.157   4.858   1.363
    1SIL  O01S8 7924   7.205   5.046   1.000
    1SIL  O01S9 7925   7.018   4.993   1.182
    1SIL  O01SA 7926   7.264   4.797   1.053
    1SIL  O01SB 7927   7.450   4.744   1.234
    1SIL  O01SC 7928   7.403   4.932   1.415
    1SIL  Si0j7 7929   7.011   5.334   0.936
    1SIL  Si0j8 7930   6.766   5.307   1.298
    1SIL  Si0j9 7931   7.111   5.108   1.117
    1SIL  O01SD 7932   6.912   5.284   1.363
    1SIL  O01SE 7933   6.959   5.472   1.000
    1SIL  O01SF 7934   6.772   5.419   1.182
    1SIL  O01SG 7935   7.018   5.222   1.053
    1SIL  O01SH 7936   7.205   5.169   1.234
    1SIL  O01SI 7937   7.157   5.357   1.415
    1SIL  Si0jA 7938   6.766   5.759   0.936
    1SIL  Si0jB 7939   6.520   5.733   1.298
    1SIL  Si0jC 7940   6.866   5.533   1.117
    1SIL  O01SJ 7941   6.666   5.709   1.363
    1SIL  O01SK 7942   6.713   5.898   1.000
    1SIL  O01SL 7943   6.526   5.844   1.182
    1SIL  O01SM 7944   6.772   5.648   1.053
    1SIL  O01SN 7945   6.959   5.595   1.234
    1SIL  O01SO 7946   6.912   5.783   1.415
    1SIL  Si0jD 7947   6.520   6.185   0.936
    1SIL  Si0jE 7948   6.274   6.159   1.298
    1SIL  Si0jF 7949   6.620   5.959   1.117
    1SIL  O01SP 7950   6.420   6.135   1.363
    1SIL  O01SQ 7951   6.467   6.323   1.000
    1SIL  O01SR 7952   6.281   6.270   1.182
    1SIL  O01SS 7953   6.526   6.074   1.053
    1SIL  O01ST 7954   6.713   6.020   1.234
    1SIL  O01SU 7955   6.666   6.209   1.415
    1SIL  Si0jG 7956   6.274   6.611   0.936
    1SIL  Si0jH 7957   6.028   6.584   1.298
    1SIL  Si0jI 7958   6.374   6.385   1.117
    1SIL  O01SV 7959   6.174   6.561   1.363
    1SIL  O01SW 7960   6.222   6.749   1.000
    1SIL  O01SX 7961   6.035   6.696   1.182
    1SIL  O01SY 7962   6.281   6.499   1.053
    1SIL  O01SZ 7963   6.467   6.446   1.234
    1SIL  O01Sa 7964   6.420   6.634   1.415
    1SIL  Si0jJ 7965   6.028   7.036   0.936
    1SIL  Si0jK 7966   5.783   7.010   1.298
    1SIL  Si0jL 7967   6.128   6.810   1.117
    1SIL  O01Sb 7968   5.929   6.986   1.363
    1SIL  O01Sc 7969   5.976   7.175   1.000
    1SIL  O01Sd 7970   5.789   7.121   1.182
    1SIL  O01Se 7971   6.035   6.925   1.053
    1SIL  O01Sf 7972   6.222   6.872   1.234
    1SIL  O01Sg 7973   6.174   7.060   1.415
    1SIL  Si0jM 7974   5.783   7.462   0.936
    1SIL  Si0jN 7975   5.537   7.436   1.298
    1SIL  Si0jO 7976   5.883   7.236   1.117
    1SIL  O01Sh 7977   5.683   7.412   1.363
    1SIL  O01Si 7978   5.730   7.600   1.000
    1SIL  O01Sj 7979   5.543   7.547   1.182
    1SIL  O01Sk 7980   5.789   7.351   1.053
    1SIL  O01Sl 7981   5.976   7.297   1.234
    1SIL  O01Sm 7982   5.929   7.486   1.415
    1SIL  Si0jP 7983   5.537   7.888   0.936
    1SIL  Si0jQ 7984   5.291   7.861   1.298
    1SIL  Si0jR 7985   5.637   7.662   1.117
    1SIL  O01Sn 7986   5.437   7.838   1.363
    1SIL  O01So 7987   5.484   8.026   1.000
    1SIL  O01Sp 7988   5.298   7.973   1.182
    1SIL  O01Sq 7989   5.543   7.776   1.053
    1SIL  O01Sr 7990   5.730   7.723   1.234
    1SIL  O01Ss 7991   5.683   7.911   1.415
    1SIL  Si0jS 7992   5.291   8.313   0.936
    1SIL  Si0jT 7993   5.045   8.287   1.298
    1SIL  Si0jU 7994   5.391   8.087   1.117
    1SIL  O01St 7995   5.191   8.263   1.363
    1SIL  O01Su 7996   5.239   8.452   1.000
    1SIL  O01Sv 7997   5.052   8.398   1.182
    1SIL  O01Sw 7998   5.298   8.202   1.053
    1SIL  O01Sx 7999   5.484   8.149   1.234
    1SIL  O01Sy 8000   5.437   8.337   1.415
    1SIL  Si0jV 8001   5.045   8.739   0.936
    1SIL  Si0jW 8002   4.800   8.713   1.298
    1SIL  Si0jX 8003   5.145   8.513   1.117
    1SIL  O01Sz 8004   4.946   8.689   1.363
    1SIL  O01T0 8005   4.993   8.877   1.000
    1SIL  O01T1 8006   4.806   8.824   1.182
    1SIL  O01T2 8007   5.052   8.628   1.053
    1SIL  O01T3 8008   5.239   8.574   1.234
    1SIL  O01T4 8009   5.191   8.763   1.415
    1SIL  Si0jY 8010   4.800   9.165   0.936
    1SIL  Si0jZ 8011   4.554   9.138   1.298
    1SIL  Si0ja 8012   4.900   8.939   1.117
    1SIL  O01T5 8013   4.700   9.115   1.363
    1SIL  O01T6 8014   4.747   9.303   1.000
    1SIL  O01T7 8015   4.560   9.250   1.182
    1SIL  O01T8 8016   4.806   9.053   1.053
    1SIL  O01T9 8017   4.993   9.000   1.234
    1SIL  O01TA 8018   4.946   9.188   1.415
    1SIL  Si0jb 8019   4.554   9.590   0.936
    1SIL  Si0jc 8020   4.308   9.564   1.298
    1SIL  Si0jd 8021   4.654   9.364   1.117
    1SIL  O01TB 8022   4.454   9.540   1.363
    1SIL  O01TC 8023   4.501   9.729   1.000
    1SIL  O01TD 8024   4.315   9.675   1.182
    1SIL  O01TE 8025   4.560   9.479   1.053
    1SIL  O01TF 8026   4.747   9.426   1.234
    1SIL  O01TG 8027   4.700   9.614   1.415
    1SIL  Si0je 8028   0.622   0.226   0.936
    1SIL  Si0jf 8029   0.376   0.200   1.298
    1SIL  Si0jg 8030   0.722   0.000   1.117
    1SIL  O01TH 8031   0.522   0.176   1.363
    1SIL  O01TI 8032   0.569   0.364   1.000
    1SIL  O01TJ 8033   0.383   0.311   1.182
    1SIL  O01TK 8034   0.629   0.115   1.053
    1SIL  O01TL 8035   0.815   0.061   1.234
    1SIL  O01TM 8036   0.768   0.250   1.415
    1SIL  Si0jh 8037   0.376   0.652   0.936
    1SIL  Si0ji 8038   0.131   0.625   1.298
    1SIL  Si0jj 8039   0.476   0.426   1.117
    1SIL  O01TN 8040   0.276   0.602   1.363
    1SIL  O01TO 8041   0.324   0.790   1.000
    1SIL  O01TP 8042   0.137   0.737   1.182
    1SIL  O01TQ 8043   0.383   0.540   1.053
    1SIL  O01TR 8044   0.569   0.487   1.234
    1SIL  O01TS 8045   0.522   0.675   1.415
    1SIL  Si0jk 8046   0.131   1.077   0.936
    1SIL  Si0jl 8047   9.715   1.051   1.298
    1SIL  Si0jm 8048   0.230   0.851   1.117
    1SIL  O01TT 8049   0.031   1.027   1.363
    1SIL  O01TU 8050   0.078   1.216   1.000
    1SIL  O01TV 8051   9.721   1.162   1.182
    1SIL  O01TW 8052   0.137   0.966   1.053
    1SIL  O01TX 8053   0.324   0.913   1.234
    1SIL  O01TY 8054   0.276   1.101   1.415
    1SIL  Si0jn 8055   9.715   1.503   0.936
    1SIL  Si0jo 8056   9.469   1.477   1.298
    1SIL  Si0jp 8057   9.815   1.277   1.117
    1SIL  O01TZ 8058   9.615   1.453   1.363
    1SIL  O01Ta 8059   9.662   1.641   1.000
    1SIL  O01Tb 8060   9.475   1.588   1.182
    1SIL  O01Tc 8061   9.721   1.392   1.053
    1SIL  O01Td 8062   0.078   1.338   1.234
    1SIL  O01Te 8063   0.031   1.527   1.415
    1SIL  Si0jq 8064   9.469   1.929   0.936
    1SIL  Si0jr 8065   9.223   1.902   1.298
    1SIL  Si0js 8066   9.569   1.703   1.117
    1SIL  O01Tf 8067   9.369   1.879   1.363
    1SIL  O01Tg 8068   9.416   2.067   1.000
    1SIL  O01Th 8069   9.230   2.014   1.182
    1SIL  O01Ti 8070   9.475   1.817   1.053
    1SIL  O01Tj 8071   9.662   1.764   1.234
    1SIL  O01Tk 8072   9.615   1.952   1.415
    1SIL  Si0jt 8073   9.223   2.354   0.936
    1SIL  Si0ju 8074   8.977   2.328   1.298
    1SIL  Si0jv 8075   9.323   2.128   1.117
    1SIL  O01Tl 8076   9.123   2.304   1.363
    1SIL  O01Tm 8077   9.171   2.493   1.000
    1SIL  O01Tn 8078   8.984   2.439   1.182
    1SIL  O01To 8079   9.230   2.243   1.053
    1SIL  O01Tp 8080   9.416   2.190   1.234
    1SIL  O01Tq 8081   9.369   2.378   1.415
    1SIL  Si0jw 8082   8.977   2.780   0.936
    1SIL  Si0jx 8083   8.732   2.753   1.298
    1SIL  Si0jy 8084   9.077   2.554   1.117
    1SIL  O01Tr 8085   8.878   2.730   1.363
    1SIL  O01Ts 8086   8.925   2.918   1.000
    1SIL  O01Tt 8087   8.738   2.865   1.182
    1SIL  O01Tu 8088   8.984   2.668   1.053
    1SIL  O01Tv 8089   9.171   2.615   1.234
    1SIL  O01Tw 8090   9.123   2.804   1.415
    1SIL  Si0jz 8091   8.732   3.206   0.936
    1SIL  Si0k0 8092   8.486   3.179   1.298
    1SIL  Si0k1 8093   8.832   2.980   1.117
    1SIL  O01Tx 8094   8.632   3.156   1.363
    1SIL  O01Ty 8095   8.679   3.344   1.000
    1SIL  O01Tz 8096   8.492   3.291   1.182
    1SIL  O01U0 8097   8.738   3.094   1.053
    1SIL  O01U1 8098   8.925   3.041   1.234
    1SIL  O01U2 8099   8.878   3.229   1.415
    1SIL  Si0k2 8100   8.486   3.631   0.936
    1SIL  Si0k3 8101   8.240   3.605   1.298
    1SIL  Si0k4 8102   8.586   3.405   1.117
    1SIL  O01U3 8103   8.386   3.581   1.363
    1SIL  O01U4 8104   8.433   3.769   1.000
    1SIL  O01U5 8105   8.247   3.716   1.182
    1SIL  O01U6 8106   8.492   3.520   1.053
    1SIL  O01U7 8107   8.679   3.467   1.234
    1SIL  O01U8 8108   8.632   3.655   1.415
    1SIL  Si0k5 8109   8.240   4.057   0.936
    1SIL  Si0k6 8110   7.994   4.030   1.298
    1SIL  Si0k7 8111   8.340   3.831   1.117
    1SIL  O01U9 8112   8.140   4.007   1.363
    1SIL  O01UA 8113   8.188   4.195   1.000
    1SIL  O01UB 8114   8.001   4.142   1.182
    1SIL  O01UC 8115   8.247   3.945   1.053
    1SIL  O01UD 8116   8.433   3.892   1.234
    1SIL  O01UE 8117   8.386   4.081   1.415
    1SIL  Si0k8 8118   7.994   4.483   0.936
    1SIL  Si0k9 8119   7.749   4.456   1.298
    1SIL  Si0kA 8120   8.094   4.256   1.117
    1SIL  O01UF 8121   7.895   4.432   1.363
    1SIL  O01UG 8122   7.942   4.621   1.000
    1SIL  O01UH 8123   7.755   4.568   1.182
    1SIL  O01UI 8124   8.001   4.371   1.053
    1SIL  O01UJ 8125   8.188   4.318   1.234
    1SIL  O01UK 8126   8.140   4.506   1.415
    1SIL  Si0kB 8127   7.749   4.908   0.936
    1SIL  Si0kC 8128   7.503   4.882   1.298
    1SIL  Si0kD 8129   7.849   4.682   1.117
    1SIL  O01UL 8130   7.649   4.858   1.363
    1SIL  O01UM 8131   7.696   5.046   1.000
    1SIL  O01UN 8132   7.509   4.993   1.182
    1SIL  O01UO 8133   7.755   4.797   1.053
    1SIL  O01UP 8134   7.942   4.744   1.234
    1SIL  O01UQ 8135   7.895   4.932   1.415
    1SIL  Si0kE 8136   7.503   5.334   0.936
    1SIL  Si0kF 8137   7.257   5.307   1.298
    1SIL  Si0kG 8138   7.603   5.108   1.117
    1SIL  O01UR 8139   7.403   5.284   1.363
    1SIL  O01US 8140   7.450   5.472   1.000
    1SIL  O01UT 8141   7.264   5.419   1.182
    1SIL  O01UU 8142   7.509   5.222   1.053
    1SIL  O01UV 8143   7.696   5.169   1.234
    1SIL  O01UW 8144   7.649   5.357   1.415
    1SIL  Si0kH 8145   7.257   5.759   0.936
    1SIL  Si0kI 8146   7.011   5.733   1.298
    1SIL  Si0kJ 8147   7.357   5.533   1.117
    1SIL  O01UX 8148   7.157   5.709   1.363
    1SIL  O01UY 8149   7.205   5.898   1.000
    1SIL  O01UZ 8150   7.018   5.844   1.182
    1SIL  O01Ua 8151   7.264   5.648   1.053
    1SIL  O01Ub 8152   7.450   5.595   1.234
    1SIL  O01Uc 8153   7.403   5.783   1.415
    1SIL  Si0kK 8154   7.011   6.185   0.936
    1SIL  Si0kL 8155   6.766   6.159   1.298
    1SIL  Si0kM 8156   7.111   5.959   1.117
    1SIL  O01Ud 8157   6.912   6.135   1.363
    1SIL  O01Ue 8158   6.959   6.323   1.000
    1SIL  O01Uf 8159   6.772   6.270   1.182
    1SIL  O01Ug 8160   7.018   6.074   1.053
    1SIL  O01Uh 8161   7.205   6.020   1.234
    1SIL  O01Ui 8162   7.157   6.209   1.415
    1SIL  Si0kN 8163   6.766   6.611   0.936
    1SIL  Si0kO 8164   6.520   6.584   1.298
    1SIL  Si0kP 8165   6.866   6.385   1.117
    1SIL  O01Uj 8166   6.666   6.561   1.363
    1SIL  O01Uk 8167   6.713   6.749   1.000
    1SIL  O01Ul 8168   6.526   6.696   1.182
    1SIL  O01Um 8169   6.772   6.499   1.053
    1SIL  O01Un 8170   6.959   6.446   1.234
    1SIL  O01Uo 8171   6.912   6.634   1.415
    1SIL  Si0kQ 8172   6.520   7.036   0.936
    1SIL  Si0kR 8173   6.274   7.010   1.298
    1SIL  Si0kS 8174   6.620   6.810   1.117
    1SIL  O01Up 8175   6.420   6.986   1.363
    1SIL  O01Uq 8176   6.467   7.175   1.000
    1SIL  O01Ur 8177   6.281   7.121   1.182
    1SIL  O01Us 8178   6.526   6.925   1.053
    1SIL  O01Ut 8179   6.713   6.872   1.234
    1SIL  O01Uu 8180   6.666   7.060   1.415
    1SIL  Si0kT 8181   6.274   7.462   0.936
    1SIL  Si0kU 8182   6.028   7.436   1.298
    1SIL  Si0kV 8183   6.374   7.236   1.117
    1SIL  O01Uv 8184   6.174   7.412   1.363
    1SIL  O01Uw 8185   6.222   7.600   1.000
    1SIL  O01Ux 8186   6.035   7.547   1.182
    1SIL  O01Uy 8187   6.281   7.351   1.053
    1SIL  O01Uz 8188   6.467   7.297   1.234
    1SIL  O01V0 8189   6.420   7.486   1.415
    1SIL  Si0kW 8190   6.028   7.888   0.936
    1SIL  Si0kX 8191   5.783   7.861   1.298
    1SIL  Si0kY 8192   6.128   7.662   1.117
    1SIL  O01V1 8193   5.929   7.838   1.363
    1SIL  O01V2 8194   5.976   8.026   1.000
    1SIL  O01V3 8195   5.789   7.973   1.182
    1SIL  O01V4 8196   6.035   7.776   1.053
    1SIL  O01V5 8197   6.222   7.723   1.234
    1SIL  O01V6 8198   6.174   7.911   1.415
    1SIL  Si0kZ 8199   5.783   8.313   0.936
    1SIL  Si0ka 8200   5.537   8.287   1.298
    1SIL  Si0kb 8201   5.883   8.087   1.117
    1SIL  O01V7 8202   5.683   8.263   1.363
    1SIL  O01V8 8203   5.730   8.452   1.000
    1SIL  O01V9 8204   5.543   8.398   1.182
    1SIL  O01VA 8205   5.789   8.202   1.053
    1SIL  O01VB 8206   5.976   8.149   1.234
    1SIL  O01VC 8207   5.929   8.337   1.415
    1SIL  Si0kc 8208   5.537   8.739   0.936
    1SIL  Si0kd 8209   5.291   8.713   1.298
    1SIL  Si0ke 8210   5.637   8.513   1.117
    1SIL  O01VD 8211   5.437   8.689   1.363
    1SIL  O01VE 8212   5.484   8.877   1.000
    1SIL  O01VF 8213   5.298   8.824   1.182
    1SIL  O01VG 8214   5.543   8.628   1.053
    1SIL  O01VH 8215   5.730   8.574   1.234
    1SIL  O01VI 8216   5.683   8.763   1.415
    1SIL  Si0kf 8217   5.291   9.165   0.936
    1SIL  Si0kg 8218   5.045   9.138   1.298
    1SIL  Si0kh 8219   5.391   8.939   1.117
    1SIL  O01VJ 8220   5.191   9.115   1.363
    1SIL  O01VK 8221   5.239   9.303   1.000
    1SIL  O01VL 8222   5.052   9.250   1.182
    1SIL  O01VM 8223   5.298   9.053   1.053
    1SIL  O01VN 8224   5.484   9.000   1.234
    1SIL  O01VO 8225   5.437   9.188   1.415
    1SIL  Si0ki 8226   5.045   9.590   0.936
    1SIL  Si0kj 8227   4.800   9.564   1.298
    1SIL  Si0kk 8228   5.145   9.364   1.117
    1SIL  O01VP 8229   4.946   9.540   1.363
    1SIL  O01VQ 8230   4.993   9.729   1.000
    1SIL  O01VR 8231   4.806   9.675   1.182
    1SIL  O01VS 8232   5.052   9.479   1.053
    1SIL  O01VT 8233   5.239   9.426   1.234
    1SIL  O01VU 8234   5.191   9.614   1.415
    1SIL  Si0kl 8235   1.114   0.226   0.936
    1SIL  Si0km 8236   0.868   0.200   1.298
    1SIL  Si0kn 8237   1.213   0.000   1.117
    1SIL  O01VV 8238   1.014   0.176   1.363
    1SIL  O01VW 8239   1.061   0.364   1.000
    1SIL  O01VX 8240   0.874   0.311   1.182
    1SIL  O01VY 8241   1.120   0.115   1.053
    1SIL  O01VZ 8242   1.307   0.061   1.234
    1SIL  O01Va 8243   1.259   0.250   1.415
    1SIL  Si0ko 8244   0.868   0.652   0.936
    1SIL  Si0kp 8245   0.622   0.625   1.298
    1SIL  Si0kq 8246   0.968   0.426   1.117
    1SIL  O01Vb 8247   0.768   0.602   1.363
    1SIL  O01Vc 8248   0.815   0.790   1.000
    1SIL  O01Vd 8249   0.629   0.737   1.182
    1SIL  O01Ve 8250   0.874   0.540   1.053
    1SIL  O01Vf 8251   1.061   0.487   1.234
    1SIL  O01Vg 8252   1.014   0.675   1.415
    1SIL  Si0kr 8253   0.622   1.077   0.936
    1SIL  Si0ks 8254   0.376   1.051   1.298
    1SIL  Si0kt 8255   0.722   0.851   1.117
    1SIL  O01Vh 8256   0.522   1.027   1.363
    1SIL  O01Vi 8257   0.569   1.216   1.000
    1SIL  O01Vj 8258   0.383   1.162   1.182
    1SIL  O01Vk 8259   0.629   0.966   1.053
    1SIL  O01Vl 8260   0.815   0.913   1.234
    1SIL  O01Vm 8261   0.768   1.101   1.415
    1SIL  Si0ku 8262   0.376   1.503   0.936
    1SIL  Si0kv 8263   0.131   1.477   1.298
    1SIL  Si0kw 8264   0.476   1.277   1.117
    1SIL  O01Vn 8265   0.276   1.453   1.363
    1SIL  O01Vo 8266   0.324   1.641   1.000
    1SIL  O01Vp 8267   0.137   1.588   1.182
    1SIL  O01Vq 8268   0.383   1.392   1.053
    1SIL  O01Vr 8269   0.569   1.338   1.234
    1SIL  O01Vs 8270   0.522   1.527   1.415
    1SIL  Si0kx 8271   0.131   1.929   0.936
    1SIL  Si0ky 8272   9.715   1.902   1.298
    1SIL  Si0kz 8273   0.230   1.703   1.117
    1SIL  O01Vt 8274   0.031   1.879   1.363
    1SIL  O01Vu 8275   0.078   2.067   1.000
    1SIL  O01Vv 8276   9.721   2.014   1.182
    1SIL  O01Vw 8277   0.137   1.817   1.053
    1SIL  O01Vx 8278   0.324   1.764   1.234
    1SIL  O01Vy 8279   0.276   1.952   1.415
    1SIL  Si0l0 8280   9.715   2.354   0.936
    1SIL  Si0l1 8281   9.469   2.328   1.298
    1SIL  Si0l2 8282   9.815   2.128   1.117
    1SIL  O01Vz 8283   9.615   2.304   1.363
    1SIL  O01W0 8284   9.662   2.493   1.000
    1SIL  O01W1 8285   9.475   2.439   1.182
    1SIL  O01W2 8286   9.721   2.243   1.053
    1SIL  O01W3 8287   0.078   2.190   1.234
    1SIL  O01W4 8288   0.031   2.378   1.415
    1SIL  Si0l3 8289   9.469   2.780   0.936
    1SIL  Si0l4 8290   9.223   2.753   1.298
    1SIL  Si0l5 8291   9.569   2.554   1.117
    1SIL  O01W5 8292   9.369   2.730   1.363
    1SIL  O01W6 8293   9.416   2.918   1.000
    1SIL  O01W7 8294   9.230   2.865   1.182
    1SIL  O01W8 8295   9.475   2.668   1.053
    1SIL  O01W9 8296   9.662   2.615   1.234
    1SIL  O01WA 8297   9.615   2.804   1.415
    1SIL  Si0l6 8298   9.223   3.206   0.936
    1SIL  Si0l7 8299   8.977   3.179   1.298
    1SIL  Si0l8 8300   9.323   2.980   1.117
    1SIL  O01WB 8301   9.123   3.156   1.363
    1SIL  O01WC 8302   9.171   3.344   1.000
    1SIL  O01WD 8303   8.984   3.291   1.182
    1SIL  O01WE 8304   9.230   3.094   1.053
    1SIL  O01WF 8305   9.416   3.041   1.234
    1SIL  O01WG 8306   9.369   3.229   1.415
    1SIL  Si0l9 8307   8.977   3.631   0.936
    1SIL  Si0lA 8308   8.732   3.605   1.298
    1SIL  Si0lB 8309   9.077   3.405   1.117
    1SIL  O01WH 8310   8.878   3.581   1.363
    1SIL  O01WI 8311   8.925   3.769   1.000
    1SIL  O01WJ 8312   8.738   3.716   1.182
    1SIL  O01WK 8313   8.984   3.520   1.053
    1SIL  O01WL 8314   9.171   3.467   1.234
    1SIL  O01WM 8315   9.123   3.655   1.415
    1SIL  Si0lC 8316   8.732   4.057   0.936
    1SIL  Si0lD 8317   8.486   4.030   1.298
    1SIL  Si0lE 8318   8.832   3.831   1.117
    1SIL  O01WN 8319   8.632   4.007   1.363
    1SIL  O01WO 8320   8.679   4.195   1.000
    1SIL  O01WP 8321   8.492   4.142   1.182
    1SIL  O01WQ 8322   8.738   3.945   1.053
    1SIL  O01WR 8323   8.925   3.892   1.234
    1SIL  O01WS 8324   8.878   4.081   1.415
    1SIL  Si0lF 8325   8.486   4.483   0.936
    1SIL  Si0lG 8326   8.240   4.456   1.298
    1SIL  Si0lH 8327   8.586   4.256   1.117
    1SIL  O01WT 8328   8.386   4.432   1.363
    1SIL  O01WU 8329   8.433   4.621   1.000
    1SIL  O01WV 8330   8.247   4.568   1.182
    1SIL  O01WW 8331   8.492   4.371   1.053
    1SIL  O01WX 8332   8.679   4.318   1.234
    1SIL  O01WY 8333   8.632   4.506   1.415
    1SIL  Si0lI 8334   8.240   4.908   0.936
    1SIL  Si0lJ 8335   7.994   4.882   1.298
    1SIL  Si0lK 8336   8.340   4.682   1.117
    1SIL  O01WZ 8337   8.140   4.858   1.363
    1SIL  O01Wa 8338   8.188   5.046   1.000
    1SIL  O01Wb 8339   8.001   4.993   1.182
    1SIL  O01Wc 8340   8.247   4.797   1.053
    1SIL  O01Wd 8341   8.433   4.744   1.234
    1SIL  O01We 8342   8.386   4.932   1.415
    1SIL  Si0lL 8343   7.994   5.334   0.936
    1SIL  Si0lM 8344   7.749   5.307   1.298
    1SIL  Si0lN 8345   8.094   5.108   1.117
    1SIL  O01Wf 8346   7.895   5.284   1.363
    1SIL  O01Wg 8347   7.942   5.472   1.000
    1SIL  O01Wh 8348   7.755   5.419   1.182
    1SIL  O01Wi 8349   8.001   5.222   1.053
    1SIL  O01Wj 8350   8.188   5.169   1.234
    1SIL  O01Wk 8351   8.140   5.357   1.415
    1SIL  Si0lO 8352   7.749   5.759   0.936
    1SIL  Si0lP 8353   7.503   5.733   1.298
    1SIL  Si0lQ 8354   7.849   5.533   1.117
    1SIL  O01Wl 8355   7.649   5.709   1.363
    1SIL  O01Wm 8356   7.696   5.898   1.000
    1SIL  O01Wn 8357   7.509   5.844   1.182
    1SIL  O01Wo 8358   7.755   5.648   1.053
    1SIL  O01Wp 8359   7.942   5.595   1.234
    1SIL  O01Wq 8360   7.895   5.783   1.415
    1SIL  Si0lR 8361   7.503   6.185   0.936
    1SIL  Si0lS 8362   7.257   6.159   1.298
    1SIL  Si0lT 8363   7.603   5.959   1.117
    1SIL  O01Wr 8364   7.403   6.135   1.363
    1SIL  O01Ws 8365   7.450   6.323   1.000
    1SIL  O01Wt 8366   7.264   6.270   1.182
    1SIL  O01Wu 8367   7.509   6.074   1.053
    1SIL  O01Wv 8368   7.696   6.020   1.234
    1SIL  O01Ww 8369   7.649   6.209   1.415
    1SIL  Si0lU 8370   7.257   6.611   0.936
    1SIL  Si0lV 8371   7.011   6.584   1.298
    1SIL  Si0lW 8372   7.357   6.385   1.117
    1SIL  O01Wx 8373   7.157   6.561   1.363
    1SIL  O01Wy 8374   7.205   6.749   1.000
    1SIL  O01Wz 8375   7.018   6.696   1.182
    1SIL  O01X0 8376   7.264   6.499   1.053
    1SIL  O01X1 8377   7.450   6.446   1.234
    1SIL  O01X2 8378   7.403   6.634   1.415
    1SIL  Si0lX 8379   7.011   7.036   0.936
    1SIL  Si0lY 8380   6.766   7.010   1.298
    1SIL  Si0lZ 8381   7.111   6.810   1.117
    1SIL  O01X3 8382   6.912   6.986   1.363
    1SIL  O01X4 8383   6.959   7.175   1.000
    1SIL  O01X5 8384   6.772   7.121   1.182
    1SIL  O01X6 8385   7.018   6.925   1.053
    1SIL  O01X7 8386   7.205   6.872   1.234
    1SIL  O01X8 8387   7.157   7.060   1.415
    1SIL  Si0la 8388   6.766   7.462   0.936
    1SIL  Si0lb 8389   6.520   7.436   1.298
    1SIL  Si0lc 8390   6.866   7.236   1.117
    1SIL  O01X9 8391   6.666   7.412   1.363
    1SIL  O01XA 8392   6.713   7.600   1.000
    1SIL  O01XB 8393   6.526   7.547   1.182
    1SIL  O01XC 8394   6.772   7.351   1.053
    1SIL  O01XD 8395   6.959   7.297   1.234
    1SIL  O01XE 8396   6.912   7.486   1.415
    1SIL  Si0ld 8397   6.520   7.888   0.936
    1SIL  Si0le 8398   6.274   7.861   1.298
    1SIL  Si0lf 8399   6.620   7.662   1.117
    1SIL  O01XF 8400   6.420   7.838   1.363
    1SIL  O01XG 8401   6.467   8.026   1.000
    1SIL  O01XH 8402   6.281   7.973   1.182
    1SIL  O01XI 8403   6.526   7.776   1.053
    1SIL  O01XJ 8404   6.713   7.723   1.234
    1SIL  O01XK 8405   6.666   7.911   1.415
    1SIL  Si0lg 8406   6.274   8.313   0.936
    1SIL  Si0lh 8407   6.028   8.287   1.298
    1SIL  Si0li 8408   6.374   8.087   1.117
    1SIL  O01XL 8409   6.174   8.263   1.363
    1SIL  O01XM 8410   6.222   8.452   1.000
    1SIL  O01XN 8411   6.035   8.398   1.182
    1SIL  O01XO 8412   6.281   8.202   1.053
    1SIL  O01XP 8413   6.467   8.149   1.234
    1SIL  O01XQ 8414   6.420   8.337   1.415
    1SIL  Si0lj 8415   6.028   8.739   0.936
    1SIL  Si0lk 8416   5.783   8.713   1.298
    1SIL  Si0ll 8417   6.128   8.513   1.117
    1SIL  O01XR 8418   5.929   8.689   1.363
    1SIL  O01XS 8419   5.976   8.877   1.000
    1SIL  O01XT 8420   5.789   8.824   1.182
    1SIL  O01XU 8421   6.035   8.628   1.053
    1SIL  O01XV 8422   6.222   8.574   1.234
    1SIL  O01XW 8423   6.174   8.763   1.415
    1SIL  Si0lm 8424   5.783   9.165   0.936
    1SIL  Si0ln 8425   5.537   9.138   1.298
    1SIL  Si0lo 8426   5.883   8.939   1.117
    1SIL  O01XX 8427   5.683   9.115   1.363
    1SIL  O01XY 8428   5.730   9.303   1.000
    1SIL  O01XZ 8429   5.543   9.250   1.182
    1SIL  O01Xa 8430   5.789   9.053   1.053
    1SIL  O01Xb 8431   5.976   9.000   1.234
    1SIL  O01Xc 8432   5.929   9.188   1.415
    1SIL  Si0lp 8433   5.537   9.590   0.936
    1SIL  Si0lq 8434   5.291   9.564   1.298
    1SIL  Si0lr 8435   5.637   9.364   1.117
    1SIL  O01Xd 8436   5.437   9.540   1.363
    1SIL  O01Xe 8437   5.484   9.729   1.000
    1SIL  O01Xf 8438   5.298   9.675   1.182
    1SIL  O01Xg 8439   5.543   9.479   1.053
    1SIL  O01Xh 8440   5.730   9.426   1.234
    1SIL  O01Xi 8441   5.683   9.614   1.415
    1SIL  Si0ls 8442   1.605   0.226   0.936
    1SIL  Si0lt 8443   1.359   0.200   1.298
    1SIL  Si0lu 8444   1.705   0.000   1.117
    1SIL  O01Xj 8445   1.505   0.176   1.363
    1SIL  O01Xk 8446   1.552   0.364   1.000
    1SIL  O01Xl 8447   1.366   0.311   1.182
    1SIL  O01Xm 8448   1.612   0.115   1.053
    1SIL  O01Xn 8449   1.798   0.061   1.234
    1SIL  O01Xo 8450   1.751   0.250   1.415
    1SIL  Si0lv 8451   1.359   0.652   0.936
    1SIL  Si0lw 8452   1.114   0.625   1.298
    1SIL  Si0lx 8453   1.459   0.426   1.117
    1SIL  O01Xp 8454   1.259   0.602   1.363
    1SIL  O01Xq 8455   1.307   0.790   1.000
    1SIL  O01Xr 8456   1.120   0.737   1.182
    1SIL  O01Xs 8457   1.366   0.540   1.053
    1SIL  O01Xt 8458   1.552   0.487   1.234
    1SIL  O01Xu 8459   1.505   0.675   1.415
    1SIL  Si0ly 8460   1.114   1.077   0.936
    1SIL  Si0lz 8461   0.868   1.051   1.298
    1SIL  Si0m0 8462   1.213   0.851   1.117
    1SIL  O01Xv 8463   1.014   1.027   1.363
    1SIL  O01Xw 8464   1.061   1.216   1.000
    1SIL  O01Xx 8465   0.874   1.162   1.182
    1SIL  O01Xy 8466   1.120   0.966   1.053
    1SIL  O01Xz 8467   1.307   0.913   1.234
    1SIL  O01Y0 8468   1.259   1.101   1.415
    1SIL  Si0m1 8469   0.868   1.503   0.936
    1SIL  Si0m2 8470   0.622   1.477   1.298
    1SIL  Si0m3 8471   0.968   1.277   1.117
    1SIL  O01Y1 8472   0.768   1.453   1.363
    1SIL  O01Y2 8473   0.815   1.641   1.000
    1SIL  O01Y3 8474   0.629   1.588   1.182
    1SIL  O01Y4 8475   0.874   1.392   1.053
    1SIL  O01Y5 8476   1.061   1.338   1.234
    1SIL  O01Y6 8477   1.014   1.527   1.415
    1SIL  Si0m4 8478   0.622   1.929   0.936
    1SIL  Si0m5 8479   0.376   1.902   1.298
    1SIL  Si0m6 8480   0.722   1.703   1.117
    1SIL  O01Y7 8481   0.522   1.879   1.363
    1SIL  O01Y8 8482   0.569   2.067   1.000
    1SIL  O01Y9 8483   0.383   2.014   1.182
    1SIL  O01YA 8484   0.629   1.817   1.053
    1SIL  O01YB 8485   0.815   1.764   1.234
    1SIL  O01YC 8486   0.768   1.952   1.415
    1SIL  Si0m7 8487   0.376   2.354   0.936
    1SIL  Si0m8 8488   0.131   2.328   1.298
    1SIL  Si0m9 8489   0.476   2.128   1.117
    1SIL  O01YD 8490   0.276   2.304   1.363
    1SIL  O01YE 8491   0.324   2.493   1.000
    1SIL  O01YF 8492   0.137   2.439   1.182
    1SIL  O01YG 8493   0.383   2.243   1.053
    1SIL  O01YH 8494   0.569   2.190   1.234
    1SIL  O01YI 8495   0.522   2.378   1.415
    1SIL  Si0mA 8496   0.131   2.780   0.936
    1SIL  Si0mB 8497   9.715   2.753   1.298
    1SIL  Si0mC 8498   0.230   2.554   1.117
    1SIL  O01YJ 8499   0.031   2.730   1.363
    1SIL  O01YK 8500   0.078   2.918   1.000
    1SIL  O01YL 8501   9.721   2.865   1.182
    1SIL  O01YM 8502   0.137   2.668   1.053
    1SIL  O01YN 8503   0.324   2.615   1.234
    1SIL  O01YO 8504   0.276   2.804   1.415
    1SIL  Si0mD 8505   9.715   3.206   0.936
    1SIL  Si0mE 8506   9.469   3.179   1.298
    1SIL  Si0mF 8507   9.815   2.980   1.117
    1SIL  O01YP 8508   9.615   3.156   1.363
    1SIL  O01YQ 8509   9.662   3.344   1.000
    1SIL  O01YR 8510   9.475   3.291   1.182
    1SIL  O01YS 8511   9.721   3.094   1.053
    1SIL  O01YT 8512   0.078   3.041   1.234
    1SIL  O01YU 8513   0.031   3.229   1.415
    1SIL  Si0mG 8514   9.469   3.631   0.936
    1SIL  Si0mH 8515   9.223   3.605   1.298
    1SIL  Si0mI 8516   9.569   3.405   1.117
    1SIL  O01YV 8517   9.369   3.581   1.363
    1SIL  O01YW 8518   9.416   3.769   1.000
    1SIL  O01YX 8519   9.230   3.716   1.182
    1SIL  O01YY 8520   9.475   3.520   1.053
    1SIL  O01YZ 8521   9.662   3.467   1.234
    1SIL  O01Ya 8522   9.615   3.655   1.415
    1SIL  Si0mJ 8523   9.223   4.057   0.936
    1SIL  Si0mK 8524   8.977   4.030   1.298
    1SIL  Si0mL 8525   9.323   3.831   1.117
    1SIL  O01Yb 8526   9.123   4.007   1.363
    1SIL  O01Yc 8527   9.171   4.195   1.000
    1SIL  O01Yd 8528   8.984   4.142   1.182
    1SIL  O01Ye 8529   9.230   3.945   1.053
    1SIL  O01Yf 8530   9.416   3.892   1.234
    1SIL  O01Yg 8531   9.369   4.081   1.415
    1SIL  Si0mM 8532   8.977   4.483   0.936
    1SIL  Si0mN 8533   8.732   4.456   1.298
    1SIL  Si0mO 8534   9.077   4.256   1.117
    1SIL  O01Yh 8535   8.878   4.432   1.363
    1SIL  O01Yi 8536   8.925   4.621   1.000
    1SIL  O01Yj 8537   8.738   4.568   1.182
    1SIL  O01Yk 8538   8.984   4.371   1.053
    1SIL  O01Yl 8539   9.171   4.318   1.234
    1SIL  O01Ym 8540   9.123   4.506   1.415
    1SIL  Si0mP 8541   8.732   4.908   0.936
    1SIL  Si0mQ 8542   8.486   4.882   1.298
    1SIL  Si0mR 8543   8.832   4.682   1.117
    1SIL  O01Yn 8544   8.632   4.858   1.363
    1SIL  O01Yo 8545   8.679   5.046   1.000
    1SIL  O01Yp 8546   8.492   4.993   1.182
    1SIL  O01Yq 8547   8.738   4.797   1.053
    1SIL  O01Yr 8548   8.925   4.744   1.234
    1SIL  O01Ys 8549   8.878   4.932   1.415
    1SIL  Si0mS 8550   8.486   5.334   0.936
    1SIL  Si0mT 8551   8.240   5.307   1.298
    1SIL  Si0mU 8552   8.586   5.108   1.117
    1SIL  O01Yt 8553   8.386   5.284   1.363
    1SIL  O01Yu 8554   8.433   5.472   1.000
    1SIL  O01Yv 8555   8.247   5.419   1.182
    1SIL  O01Yw 8556   8.492   5.222   1.053
    1SIL  O01Yx 8557   8.679   5.169   1.234
    1SIL  O01Yy 8558   8.632   5.357   1.415
    1SIL  Si0mV 8559   8.240   5.759   0.936
    1SIL  Si0mW 8560   7.994   5.733   1.298
    1SIL  Si0mX 8561   8.340   5.533   1.117
    1SIL  O01Yz 8562   8.140   5.709   1.363
    1SIL  O01Z0 8563   8.188   5.898   1.000
    1SIL  O01Z1 8564   8.001   5.844   1.182
    1SIL  O01Z2 8565   8.247   5.648   1.053
    1SIL  O01Z3 8566   8.433   5.595   1.234
    1SIL  O01Z4 8567   8.386   5.783   1.415
    1SIL  Si0mY 8568   7.994   6.185   0.936
    1SIL  Si0mZ 8569   7.749   6.159   1.298
    1SIL  Si0ma 8570   8.094   5.959   1.117
    1SIL  O01Z5 8571   7.895   6.135   1.363
    1SIL  O01Z6 8572   7.942   6.323   1.000
    1SIL  O01Z7 8573   7.755   6.270   1.182
    1SIL  O01Z8 8574   8.001   6.074   1.053
    1SIL  O01Z9 8575   8.188   6.020   1.234
    1SIL  O01ZA 8576   8.140   6.209   1.415
    1SIL  Si0mb 8577   7.749   6.611   0.936
    1SIL  Si0mc 8578   7.503   6.584   1.298
    1SIL  Si0md 8579   7.849   6.385   1.117
    1SIL  O01ZB 8580   7.649   6.561   1.363
    1SIL  O01ZC 8581   7.696   6.749   1.000
    1SIL  O01ZD 8582   7.509   6.696   1.182
    1SIL  O01ZE 8583   7.755   6.499   1.053
    1SIL  O01ZF 8584   7.942   6.446   1.234
    1SIL  O01ZG 8585   7.895   6.634   1.415
    1SIL  Si0me 8586   7.503   7.036   0.936
    1SIL  Si0mf 8587   7.257   7.010   1.298
    1SIL  Si0mg 8588   7.603   6.810   1.117
    1SIL  O01ZH 8589   7.403   6.986   1.363
    1SIL  O01ZI 8590   7.450   7.175   1.000
    1SIL  O01ZJ 8591   7.264   7.121   1.182
    1SIL  O01ZK 8592   7.509   6.925   1.053
    1SIL  O01ZL 8593   7.696   6.872   1.234
    1SIL  O01ZM 8594   7.649   7.060   1.415
    1SIL  Si0mh 8595   7.257   7.462   0.936
    1SIL  Si0mi 8596   7.011   7.436   1.298
    1SIL  Si0mj 8597   7.357   7.236   1.117
    1SIL  O01ZN 8598   7.157   7.412   1.363
    1SIL  O01ZO 8599   7.205   7.600   1.000
    1SIL  O01ZP 8600   7.018   7.547   1.182
    1SIL  O01ZQ 8601   7.264   7.351   1.053
    1SIL  O01ZR 8602   7.450   7.297   1.234
    1SIL  O01ZS 8603   7.403   7.486   1.415
    1SIL  Si0mk 8604   7.011   7.888   0.936
    1SIL  Si0ml 8605   6.766   7.861   1.298
    1SIL  Si0mm 8606   7.111   7.662   1.117
    1SIL  O01ZT 8607   6.912   7.838   1.363
    1SIL  O01ZU 8608   6.959   8.026   1.000
    1SIL  O01ZV 8609   6.772   7.973   1.182
    1SIL  O01ZW 8610   7.018   7.776   1.053
    1SIL  O01ZX 8611   7.205   7.723   1.234
    1SIL  O01ZY 8612   7.157   7.911   1.415
    1SIL  Si0mn 8613   6.766   8.313   0.936
    1SIL  Si0mo 8614   6.520   8.287   1.298
    1SIL  Si0mp 8615   6.866   8.087   1.117
    1SIL  O01ZZ 8616   6.666   8.263   1.363
    1SIL  O01Za 8617   6.713   8.452   1.000
    1SIL  O01Zb 8618   6.526   8.398   1.182
    1SIL  O01Zc 8619   6.772   8.202   1.053
    1SIL  O01Zd 8620   6.959   8.149   1.234
    1SIL  O01Ze 8621   6.912   8.337   1.415
    1SIL  Si0mq 8622   6.520   8.739   0.936
    1SIL  Si0mr 8623   6.274   8.713   1.298
    1SIL  Si0ms 8624   6.620   8.513   1.117
    1SIL  O01Zf 8625   6.420   8.689   1.363
    1SIL  O01Zg 8626   6.467   8.877   1.000
    1SIL  O01Zh 8627   6.281   8.824   1.182
    1SIL  O01Zi 8628   6.526   8.628   1.053
    1SIL  O01Zj 8629   6.713   8.574   1.234
    1SIL  O01Zk 8630   6.666   8.763   1.415
    1SIL  Si0mt 8631   6.274   9.165   0.936
    1SIL  Si0mu 8632   6.028   9.138   1.298
    1SIL  Si0mv 8633   6.374   8.939   1.117
    1SIL  O01Zl 8634   6.174   9.115   1.363
    1SIL  O01Zm 8635   6.222   9.303   1.000
    1SIL  O01Zn 8636   6.035   9.250   1.182
    1SIL  O01Zo 8637   6.281   9.053   1.053
    1SIL  O01Zp 8638   6.467   9.000   1.234
    1SIL  O01Zq 8639   6.420   9.188   1.415
    1SIL  Si0mw 8640   6.028   9.590   0.936
    1SIL  Si0mx 8641   5.783   9.564   1.298
    1SIL  Si0my 8642   6.128   9.364   1.117
    1SIL  O01Zr 8643   5.929   9.540   1.363
    1SIL  O01Zs 8644   5.976   9.729   1.000
    1SIL  O01Zt 8645   5.789   9.675   1.182
    1SIL  O01Zu 8646   6.035   9.479   1.053
    1SIL  O01Zv 8647   6.222   9.426   1.234
    1SIL  O01Zw 8648   6.174   9.614   1.415
    1SIL  Si0mz 8649   2.097   0.226   0.936
    1SIL  Si0n0 8650   1.851   0.200   1.298
    1SIL  Si0n1 8651   2.196   0.000   1.117
    1SIL  O01Zx 8652   1.997   0.176   1.363
    1SIL  O01Zy 8653   2.044   0.364   1.000
    1SIL  O01Zz 8654   1.857   0.311   1.182
    1SIL  O01a0 8655   2.103   0.115   1.053
    1SIL  O01a1 8656   2.290   0.061   1.234
    1SIL  O01a2 8657   2.242   0.250   1.415
    1SIL  Si0n2 8658   1.851   0.652   0.936
    1SIL  Si0n3 8659   1.605   0.625   1.298
    1SIL  Si0n4 8660   1.951   0.426   1.117
    1SIL  O01a3 8661   1.751   0.602   1.363
    1SIL  O01a4 8662   1.798   0.790   1.000
    1SIL  O01a5 8663   1.612   0.737   1.182
    1SIL  O01a6 8664   1.857   0.540   1.053
    1SIL  O01a7 8665   2.044   0.487   1.234
    1SIL  O01a8 8666   1.997   0.675   1.415
    1SIL  Si0n5 8667   1.605   1.077   0.936
    1SIL  Si0n6 8668   1.359   1.051   1.298
    1SIL  Si0n7 8669   1.705   0.851   1.117
    1SIL  O01a9 8670   1.505   1.027   1.363
    1SIL  O01aA 8671   1.552   1.216   1.000
    1SIL  O01aB 8672   1.366   1.162   1.182
    1SIL  O01aC 8673   1.612   0.966   1.053
    1SIL  O01aD 8674   1.798   0.913   1.234
    1SIL  O01aE 8675   1.751   1.101   1.415
    1SIL  Si0n8 8676   1.359   1.503   0.936
    1SIL  Si0n9 8677   1.114   1.477   1.298
    1SIL  Si0nA 8678   1.459   1.277   1.117
    1SIL  O01aF 8679   1.259   1.453   1.363
    1SIL  O01aG 8680   1.307   1.641   1.000
    1SIL  O01aH 8681   1.120   1.588   1.182
    1SIL  O01aI 8682   1.366   1.392   1.053
    1SIL  O01aJ 8683   1.552   1.338   1.234
    1SIL  O01aK 8684   1.505   1.527   1.415
    1SIL  Si0nB 8685   1.114   1.929   0.936
    1SIL  Si0nC 8686   0.868   1.902   1.298
    1SIL  Si0nD 8687   1.213   1.703   1.117
    1SIL  O01aL 8688   1.014   1.879   1.363
    1SIL  O01aM 8689   1.061   2.067   1.000
    1SIL  O01aN 8690   0.874   2.014   1.182
    1SIL  O01aO 8691   1.120   1.817   1.053
    1SIL  O01aP 8692   1.307   1.764   1.234
    1SIL  O01aQ 8693   1.259   1.952   1.415
    1SIL  Si0nE 8694   0.868   2.354   0.936
    1SIL  Si0nF 8695   0.622   2.328   1.298
    1SIL  Si0nG 8696   0.968   2.128   1.117
    1SIL  O01aR 8697   0.768   2.304   1.363
    1SIL  O01aS 8698   0.815   2.493   1.000
    1SIL  O01aT 8699   0.629   2.439   1.182
    1SIL  O01aU 8700   0.874   2.243   1.053
    1SIL  O01aV 8701   1.061   2.190   1.234
    1SIL  O01aW 8702   1.014   2.378   1.415
    1SIL  Si0nH 8703   0.622   2.780   0.936
    1SIL  Si0nI 8704   0.376   2.753   1.298
    1SIL  Si0nJ 8705   0.722   2.554   1.117
    1SIL  O01aX 8706   0.522   2.730   1.363
    1SIL  O01aY 8707   0.569   2.918   1.000
    1SIL  O01aZ 8708   0.383   2.865   1.182
    1SIL  O01aa 8709   0.629   2.668   1.053
    1SIL  O01ab 8710   0.815   2.615   1.234
    1SIL  O01ac 8711   0.768   2.804   1.415
    1SIL  Si0nK 8712   0.376   3.206   0.936
    1SIL  Si0nL 8713   0.131   3.179   1.298
    1SIL  Si0nM 8714   0.476   2.980   1.117
    1SIL  O01ad 8715   0.276   3.156   1.363
    1SIL  O01ae 8716   0.324   3.344   1.000
    1SIL  O01af 8717   0.137   3.291   1.182
    1SIL  O01ag 8718   0.383   3.094   1.053
    1SIL  O01ah 8719   0.569   3.041   1.234
    1SIL  O01ai 8720   0.522   3.229   1.415
    1SIL  Si0nN 8721   0.131   3.631   0.936
    1SIL  Si0nO 8722   9.715   3.605   1.298
    1SIL  Si0nP 8723   0.230   3.405   1.117
    1SIL  O01aj 8724   0.031   3.581   1.363
    1SIL  O01ak 8725   0.078   3.769   1.000
    1SIL  O01al 8726   9.721   3.716   1.182
    1SIL  O01am 8727   0.137   3.520   1.053
    1SIL  O01an 8728   0.324   3.467   1.234
    1SIL  O01ao 8729   0.276   3.655   1.415
    1SIL  Si0nQ 8730   9.715   4.057   0.936
    1SIL  Si0nR 8731   9.469   4.030   1.298
    1SIL  Si0nS 8732   9.815   3.831   1.117
    1SIL  O01ap 8733   9.615   4.007   1.363
    1SIL  O01aq 8734   9.662   4.195   1.000
    1SIL  O01ar 8735   9.475   4.142   1.182
    1SIL  O01as 8736   9.721   3.945   1.053
    1SIL  O01at 8737   0.078   3.892   1.234
    1SIL  O01au 8738   0.031   4.081   1.415
    1SIL  Si0nT 8739   9.469   4.483   0.936
    1SIL  Si0nU 8740   9.223   4.456   1.298
    1SIL  Si0nV 8741   9.569   4.256   1.117
    1SIL  O01av 8742   9.369   4.432   1.363
    1SIL  O01aw 8743   9.416   4.621   1.000
    1SIL  O01ax 8744   9.230   4.568   1.182
    1SIL  O01ay 8745   9.475   4.371   1.053
    1SIL  O01az 8746   9.662   4.318   1.234
    1SIL  O01b0 8747   9.615   4.506   1.415
    1SIL  Si0nW 8748   9.223   4.908   0.936
    1SIL  Si0nX 8749   8.977   4.882   1.298
    1SIL  Si0nY 8750   9.323   4.682   1.117
    1SIL  O01b1 8751   9.123   4.858   1.363
    1SIL  O01b2 8752   9.171   5.046   1.000
    1SIL  O01b3 8753   8.984   4.993   1.182
    1SIL  O01b4 8754   9.230   4.797   1.053
    1SIL  O01b5 8755   9.416   4.744   1.234
    1SIL  O01b6 8756   9.369   4.932   1.415
    1SIL  Si0nZ 8757   8.977   5.334   0.936
    1SIL  Si0na 8758   8.732   5.307   1.298
    1SIL  Si0nb 8759   9.077   5.108   1.117
    1SIL  O01b7 8760   8.878   5.284   1.363
    1SIL  O01b8 8761   8.925   5.472   1.000
    1SIL  O01b9 8762   8.738   5.419   1.182
    1SIL  O01bA 8763   8.984   5.222   1.053
    1SIL  O01bB 8764   9.171   5.169   1.234
    1SIL  O01bC 8765   9.123   5.357   1.415
    1SIL  Si0nc 8766   8.732   5.759   0.936
    1SIL  Si0nd 8767   8.486   5.733   1.298
    1SIL  Si0ne 8768   8.832   5.533   1.117
    1SIL  O01bD 8769   8.632   5.709   1.363
    1SIL  O01bE 8770   8.679   5.898   1.000
    1SIL  O01bF 8771   8.492   5.844   1.182
    1SIL  O01bG 8772   8.738   5.648   1.053
    1SIL  O01bH 8773   8.925   5.595   1.234
    1SIL  O01bI 8774   8.878   5.783   1.415
    1SIL  Si0nf 8775   8.486   6.185   0.936
    1SIL  Si0ng 8776   8.240   6.159   1.298
    1SIL  Si0nh 8777   8.586   5.959   1.117
    1SIL  O01bJ 8778   8.386   6.135   1.363
    1SIL  O01bK 8779   8.433   6.323   1.000
    1SIL  O01bL 8780   8.247   6.270   1.182
    1SIL  O01bM 8781   8.492   6.074   1.053
    1SIL  O01bN 8782   8.679   6.020   1.234
    1SIL  O01bO 8783   8.632   6.209   1.415
    1SIL  Si0ni 8784   8.240   6.611   0.936
    1SIL  Si0nj 8785   7.994   6.584   1.298
    1SIL  Si0nk 8786   8.340   6.385   1.117
    1SIL  O01bP 8787   8.140   6.561   1.363
    1SIL  O01bQ 8788   8.188   6.749   1.000
    1SIL  O01bR 8789   8.001   6.696   1.182
    1SIL  O01bS 8790   8.247   6.499   1.053
    1SIL  O01bT 8791   8.433   6.446   1.234
    1SIL  O01bU 8792   8.386   6.634   1.415
    1SIL  Si0nl 8793   7.994   7.036   0.936
    1SIL  Si0nm 8794   7.749   7.010   1.298
    1SIL  Si0nn 8795   8.094   6.810   1.117
    1SIL  O01bV 8796   7.895   6.986   1.363
    1SIL  O01bW 8797   7.942   7.175   1.000
    1SIL  O01bX 8798   7.755   7.121   1.182
    1SIL  O01bY 8799   8.001   6.925   1.053
    1SIL  O01bZ 8800   8.188   6.872   1.234
    1SIL  O01ba 8801   8.140   7.060   1.415
    1SIL  Si0no 8802   7.749   7.462   0.936
    1SIL  Si0np 8803   7.503   7.436   1.298
    1SIL  Si0nq 8804   7.849   7.236   1.117
    1SIL  O01bb 8805   7.649   7.412   1.363
    1SIL  O01bc 8806   7.696   7.600   1.000
    1SIL  O01bd 8807   7.509   7.547   1.182
    1SIL  O01be 8808   7.755   7.351   1.053
    1SIL  O01bf 8809   7.942   7.297   1.234
    1SIL  O01bg 8810   7.895   7.486   1.415
    1SIL  Si0nr 8811   7.503   7.888   0.936
    1SIL  Si0ns 8812   7.257   7.861   1.298
    1SIL  Si0nt 8813   7.603   7.662   1.117
    1SIL  O01bh 8814   7.403   7.838   1.363
    1SIL  O01bi 8815   7.450   8.026   1.000
    1SIL  O01bj 8816   7.264   7.973   1.182
    1SIL  O01bk 8817   7.509   7.776   1.053
    1SIL  O01bl 8818   7.696   7.723   1.234
    1SIL  O01bm 8819   7.649   7.911   1.415
    1SIL  Si0nu 8820   7.257   8.313   0.936
    1SIL  Si0nv 8821   7.011   8.287   1.298
    1SIL  Si0nw 8822   7.357   8.087   1.117
    1SIL  O01bn 8823   7.157   8.263   1.363
    1SIL  O01bo 8824   7.205   8.452   1.000
    1SIL  O01bp 8825   7.018   8.398   1.182
    1SIL  O01bq 8826   7.264   8.202   1.053
    1SIL  O01br 8827   7.450   8.149   1.234
    1SIL  O01bs 8828   7.403   8.337   1.415
    1SIL  Si0nx 8829   7.011   8.739   0.936
    1SIL  Si0ny 8830   6.766   8.713   1.298
    1SIL  Si0nz 8831   7.111   8.513   1.117
    1SIL  O01bt 8832   6.912   8.689   1.363
    1SIL  O01bu 8833   6.959   8.877   1.000
    1SIL  O01bv 8834   6.772   8.824   1.182
    1SIL  O01bw 8835   7.018   8.628   1.053
    1SIL  O01bx 8836   7.205   8.574   1.234
    1SIL  O01by 8837   7.157   8.763   1.415
    1SIL  Si0o0 8838   6.766   9.165   0.936
    1SIL  Si0o1 8839   6.520   9.138   1.298
    1SIL  Si0o2 8840   6.866   8.939   1.117
    1SIL  O01bz 8841   6.666   9.115   1.363
    1SIL  O01c0 8842   6.713   9.303   1.000
    1SIL  O01c1 8843   6.526   9.250   1.182
    1SIL  O01c2 8844   6.772   9.053   1.053
    1SIL  O01c3 8845   6.959   9.000   1.234
    1SIL  O01c4 8846   6.912   9.188   1.415
    1SIL  Si0o3 8847   6.520   9.590   0.936
    1SIL  Si0o4 8848   6.274   9.564   1.298
    1SIL  Si0o5 8849   6.620   9.364   1.117
    1SIL  O01c5 8850   6.420   9.540   1.363
    1SIL  O01c6 8851   6.467   9.729   1.000
    1SIL  O01c7 8852   6.281   9.675   1.182
    1SIL  O01c8 8853   6.526   9.479   1.053
    1SIL  O01c9 8854   6.713   9.426   1.234
    1SIL  O01cA 8855   6.666   9.614   1.415
    1SIL  Si0o6 8856   2.588   0.226   0.936
    1SIL  Si0o7 8857   2.342   0.200   1.298
    1SIL  Si0o8 8858   2.688   0.000   1.117
    1SIL  O01cB 8859   2.488   0.176   1.363
    1SIL  O01cC 8860   2.535   0.364   1.000
    1SIL  O01cD 8861   2.349   0.311   1.182
    1SIL  O01cE 8862   2.595   0.115   1.053
    1SIL  O01cF 8863   2.781   0.061   1.234
    1SIL  O01cG 8864   2.734   0.250   1.415
    1SIL  Si0o9 8865   2.342   0.652   0.936
    1SIL  Si0oA 8866   2.097   0.625   1.298
    1SIL  Si0oB 8867   2.442   0.426   1.117
    1SIL  O01cH 8868   2.242   0.602   1.363
    1SIL  O01cI 8869   2.290   0.790   1.000
    1SIL  O01cJ 8870   2.103   0.737   1.182
    1SIL  O01cK 8871   2.349   0.540   1.053
    1SIL  O01cL 8872   2.535   0.487   1.234
    1SIL  O01cM 8873   2.488   0.675   1.415
    1SIL  Si0oC 8874   2.097   1.077   0.936
    1SIL  Si0oD 8875   1.851   1.051   1.298
    1SIL  Si0oE 8876   2.196   0.851   1.117
    1SIL  O01cN 8877   1.997   1.027   1.363
    1SIL  O01cO 8878   2.044   1.216   1.000
    1SIL  O01cP 8879   1.857   1.162   1.182
    1SIL  O01cQ 8880   2.103   0.966   1.053
    1SIL  O01cR 8881   2.290   0.913   1.234
    1SIL  O01cS 8882   2.242   1.101   1.415
    1SIL  Si0oF 8883   1.851   1.503   0.936
    1SIL  Si0oG 8884   1.605   1.477   1.298
    1SIL  Si0oH 8885   1.951   1.277   1.117
    1SIL  O01cT 8886   1.751   1.453   1.363
    1SIL  O01cU 8887   1.798   1.641   1.000
    1SIL  O01cV 8888   1.612   1.588   1.182
    1SIL  O01cW 8889   1.857   1.392   1.053
    1SIL  O01cX 8890   2.044   1.338   1.234
    1SIL  O01cY 8891   1.997   1.527   1.415
    1SIL  Si0oI 8892   1.605   1.929   0.936
    1SIL  Si0oJ 8893   1.359   1.902   1.298
    1SIL  Si0oK 8894   1.705   1.703   1.117
    1SIL  O01cZ 8895   1.505   1.879   1.363
    1SIL  O01ca 8896   1.552   2.067   1.000
    1SIL  O01cb 8897   1.366   2.014   1.182
    1SIL  O01cc 8898   1.612   1.817   1.053
    1SIL  O01cd 8899   1.798   1.764   1.234
    1SIL  O01ce 8900   1.751   1.952   1.415
    1SIL  Si0oL 8901   1.359   2.354   0.936
    1SIL  Si0oM 8902   1.114   2.328   1.298
    1SIL  Si0oN 8903   1.459   2.128   1.117
    1SIL  O01cf 8904   1.259   2.304   1.363
    1SIL  O01cg 8905   1.307   2.493   1.000
    1SIL  O01ch 8906   1.120   2.439   1.182
    1SIL  O01ci 8907   1.366   2.243   1.053
    1SIL  O01cj 8908   1.552   2.190   1.234
    1SIL  O01ck 8909   1.505   2.378   1.415
    1SIL  Si0oO 8910   1.114   2.780   0.936
    1SIL  Si0oP 8911   0.868   2.753   1.298
    1SIL  Si0oQ 8912   1.213   2.554   1.117
    1SIL  O01cl 8913   1.014   2.730   1.363
    1SIL  O01cm 8914   1.061   2.918   1.000
    1SIL  O01cn 8915   0.874   2.865   1.182
    1SIL  O01co 8916   1.120   2.668   1.053
    1SIL  O01cp 8917   1.307   2.615   1.234
    1SIL  O01cq 8918   1.259   2.804   1.415
    1SIL  Si0oR 8919   0.868   3.206   0.936
    1SIL  Si0oS 8920   0.622   3.179   1.298
    1SIL  Si0oT 8921   0.968   2.980   1.117
    1SIL  O01cr 8922   0.768   3.156   1.363
    1SIL  O01cs 8923   0.815   3.344   1.000
    1SIL  O01ct 8924   0.629   3.291   1.182
    1SIL  O01cu 8925   0.874   3.094   1.053
    1SIL  O01cv 8926   1.061   3.041   1.234
    1SIL  O01cw 8927   1.014   3.229   1.415
    1SIL  Si0oU 8928   0.622   3.631   0.936
    1SIL  Si0oV 8929   0.376   3.605   1.298
    1SIL  Si0oW 8930   0.722   3.405   1.117
    1SIL  O01cx 8931   0.522   3.581   1.363
    1SIL  O01cy 8932   0.569   3.769   1.000
    1SIL  O01cz 8933   0.383   3.716   1.182
    1SIL  O01d0 8934   0.629   3.520   1.053
    1SIL  O01d1 8935   0.815   3.467   1.234
    1SIL  O01d2 8936   0.768   3.655   1.415
    1SIL  Si0oX 8937   0.376   4.057   0.936
    1SIL  Si0oY 8938   0.131   4.030   1.298
    1SIL  Si0oZ 8939   0.476   3.831   1.117
    1SIL  O01d3 8940   0.276   4.007   1.363
    1SIL  O01d4 8941   0.324   4.195   1.000
    1SIL  O01d5 8942   0.137   4.142   1.182
    1SIL  O01d6 8943   0.383   3.945   1.053
    1SIL  O01d7 8944   0.569   3.892   1.234
    1SIL  O01d8 8945   0.522   4.081   1.415
    1SIL  Si0oa 8946   0.131   4.483   0.936
    1SIL  Si0ob 8947   9.715   4.456   1.298
    1SIL  Si0oc 8948   0.230   4.256   1.117
    1SIL  O01d9 8949   0.031   4.432   1.363
    1SIL  O01dA 8950   0.078   4.621   1.000
    1SIL  O01dB 8951   9.721   4.568   1.182
    1SIL  O01dC 8952   0.137   4.371   1.053
    1SIL  O01dD 8953   0.324   4.318   1.234
    1SIL  O01dE 8954   0.276   4.506   1.415
    1SIL  Si0od 8955   9.715   4.908   0.936
    1SIL  Si0oe 8956   9.469   4.882   1.298
    1SIL  Si0of 8957   9.815   4.682   1.117
    1SIL  O01dF 8958   9.615   4.858   1.363
    1SIL  O01dG 8959   9.662   5.046   1.000
    1SIL  O01dH 8960   9.475   4.993   1.182
    1SIL  O01dI 8961   9.721   4.797   1.053
    1SIL  O01dJ 8962   0.078   4.744   1.234
    1SIL  O01dK 8963   0.031   4.932   1.415
    1SIL  Si0og 8964   9.469   5.334   0.936
    1SIL  Si0oh 8965   9.223   5.307   1.298
    1SIL  Si0oi 8966   9.569   5.108   1.117
    1SIL  O01dL 8967   9.369   5.284   1.363
    1SIL  O01dM 8968   9.416   5.472   1.000
    1SIL  O01dN 8969   9.230   5.419   1.182
    1SIL  O01dO 8970   9.475   5.222   1.053
    1SIL  O01dP 8971   9.662   5.169   1.234
    1SIL  O01dQ 8972   9.615   5.357   1.415
    1SIL  Si0oj 8973   9.223   5.759   0.936
    1SIL  Si0ok 8974   8.977   5.733   1.298
    1SIL  Si0ol 8975   9.323   5.533   1.117
    1SIL  O01dR 8976   9.123   5.709   1.363
    1SIL  O01dS 8977   9.171   5.898   1.000
    1SIL  O01dT 8978   8.984   5.844   1.182
    1SIL  O01dU 8979   9.230   5.648   1.053
    1SIL  O01dV 8980   9.416   5.595   1.234
    1SIL  O01dW 8981   9.369   5.783   1.415
    1SIL  Si0om 8982   8.977   6.185   0.936
    1SIL  Si0on 8983   8.732   6.159   1.298
    1SIL  Si0oo 8984   9.077   5.959   1.117
    1SIL  O01dX 8985   8.878   6.135   1.363
    1SIL  O01dY 8986   8.925   6.323   1.000
    1SIL  O01dZ 8987   8.738   6.270   1.182
    1SIL  O01da 8988   8.984   6.074   1.053
    1SIL  O01db 8989   9.171   6.020   1.234
    1SIL  O01dc 8990   9.123   6.209   1.415
    1SIL  Si0op 8991   8.732   6.611   0.936
    1SIL  Si0oq 8992   8.486   6.584   1.298
    1SIL  Si0or 8993   8.832   6.385   1.117
    1SIL  O01dd 8994   8.632   6.561   1.363
    1SIL  O01de 8995   8.679   6.749   1.000
    1SIL  O01df 8996   8.492   6.696   1.182
    1SIL  O01dg 8997   8.738   6.499   1.053
    1SIL  O01dh 8998   8.925   6.446   1.234
    1SIL  O01di 8999   8.878   6.634   1.415
    1SIL  Si0os 9000   8.486   7.036   0.936
    1SIL  Si0ot 9001   8.240   7.010   1.298
    1SIL  Si0ou 9002   8.586   6.810   1.117
    1SIL  O01dj 9003   8.386   6.986   1.363
    1SIL  O01dk 9004   8.433   7.175   1.000
    1SIL  O01dl 9005   8.247   7.121   1.182
    1SIL  O01dm 9006   8.492   6.925   1.053
    1SIL  O01dn 9007   8.679   6.872   1.234
    1SIL  O01do 9008   8.632   7.060   1.415
    1SIL  Si0ov 9009   8.240   7.462   0.936
    1SIL  Si0ow 9010   7.994   7.436   1.298
    1SIL  Si0ox 9011   8.340   7.236   1.117
    1SIL  O01dp 9012   8.140   7.412   1.363
    1SIL  O01dq 9013   8.188   7.600   1.000
    1SIL  O01dr 9014   8.001   7.547   1.182
    1SIL  O01ds 9015   8.247   7.351   1.053
    1SIL  O01dt 9016   8.433   7.297   1.234
    1SIL  O01du 9017   8.386   7.486   1.415
    1SIL  Si0oy 9018   7.994   7.888   0.936
    1SIL  Si0oz 9019   7.749   7.861   1.298
    1SIL  Si0p0 9020   8.094   7.662   1.117
    1SIL  O01dv 9021   7.895   7.838   1.363
    1SIL  O01dw 9022   7.942   8.026   1.000
    1SIL  O01dx 9023   7.755   7.973   1.182
    1SIL  O01dy 9024   8.001   7.776   1.053
    1SIL  O01dz 9025   8.188   7.723   1.234
    1SIL  O01e0 9026   8.140   7.911   1.415
    1SIL  Si0p1 9027   7.749   8.313   0.936
    1SIL  Si0p2 9028   7.503   8.287   1.298
    1SIL  Si0p3 9029   7.849   8.087   1.117
    1SIL  O01e1 9030   7.649   8.263   1.363
    1SIL  O01e2 9031   7.696   8.452   1.000
    1SIL  O01e3 9032   7.509   8.398   1.182
    1SIL  O01e4 9033   7.755   8.202   1.053
    1SIL  O01e5 9034   7.942   8.149   1.234
    1SIL  O01e6 9035   7.895   8.337   1.415
    1SIL  Si0p4 9036   7.503   8.739   0.936
    1SIL  Si0p5 9037   7.257   8.713   1.298
    1SIL  Si0p6 9038   7.603   8.513   1.117
    1SIL  O01e7 9039   7.403   8.689   1.363
    1SIL  O01e8 9040   7.450   8.877   1.000
    1SIL  O01e9 9041   7.264   8.824   1.182
    1SIL  O01eA 9042   7.509   8.628   1.053
    1SIL  O01eB 9043   7.696   8.574   1.234
    1SIL  O01eC 9044   7.649   8.763   1.415
    1SIL  Si0p7 9045   7.257   9.165   0.936
    1SIL  Si0p8 9046   7.011   9.138   1.298
    1SIL  Si0p9 9047   7.357   8.939   1.117
    1SIL  O01eD 9048   7.157   9.115   1.363
    1SIL  O01eE 9049   7.205   9.303   1.000
    1SIL  O01eF 9050   7.018   9.250   1.182
    1SIL  O01eG 9051   7.264   9.053   1.053
    1SIL  O01eH 9052   7.450   9.000   1.234
    1SIL  O01eI 9053   7.403   9.188   1.415
    1SIL  Si0pA 9054   7.011   9.590   0.936
    1SIL  Si0pB 9055   6.766   9.564   1.298
    1SIL  Si0pC 9056   7.111   9.364   1.117
    1SIL  O01eJ 9057   6.912   9.540   1.363
    1SIL  O01eK 9058   6.959   9.729   1.000
    1SIL  O01eL 9059   6.772   9.675   1.182
    1SIL  O01eM 9060   7.018   9.479   1.053
    1SIL  O01eN 9061   7.205   9.426   1.234
    1SIL  O01eO 9062   7.157   9.614   1.415
    1SIL  Si0pD 9063   3.079   0.226   0.936
    1SIL  Si0pE 9064   2.834   0.200   1.298
    1SIL  Si0pF 9065   3.179   0.000   1.117
    1SIL  O01eP 9066   2.980   0.176   1.363
    1SIL  O01eQ 9067   3.027   0.364   1.000
    1SIL  O01eR 9068   2.840   0.311   1.182
    1SIL  O01eS 9069   3.086   0.115   1.053
    1SIL  O01eT 9070   3.273   0.061   1.234
    1SIL  O01eU 9071   3.225   0.250   1.415
    1SIL  Si0pG 9072   2.834   0.652   0.936
    1SIL  Si0pH 9073   2.588   0.625   1.298
    1SIL  Si0pI 9074   2.934   0.426   1.117
    1SIL  O01eV 9075   2.734   0.602   1.363
    1SIL  O01eW 9076   2.781   0.790   1.000
    1SIL  O01eX 9077   2.595   0.737   1.182
    1SIL  O01eY 9078   2.840   0.540   1.053
    1SIL  O01eZ 9079   3.027   0.487   1.234
    1SIL  O01ea 9080   2.980   0.675   1.415
    1SIL  Si0pJ 9081   2.588   1.077   0.936
    1SIL  Si0pK 9082   2.342   1.051   1.298
    1SIL  Si0pL 9083   2.688   0.851   1.117
    1SIL  O01eb 9084   2.488   1.027   1.363
    1SIL  O01ec 9085   2.535   1.216   1.000
    1SIL  O01ed 9086   2.349   1.162   1.182
    1SIL  O01ee 9087   2.595   0.966   1.053
    1SIL  O01ef 9088   2.781   0.913   1.234
    1SIL  O01eg 9089   2.734   1.101   1.415
    1SIL  Si0pM 9090   2.342   1.503   0.936
    1SIL  Si0pN 9091   2.097   1.477   1.298
    1SIL  Si0pO 9092   2.442   1.277   1.117
    1SIL  O01eh 9093   2.242   1.453   1.363
    1SIL  O01ei 9094   2.290   1.641   1.000
    1SIL  O01ej 9095   2.103   1.588   1.182
    1SIL  O01ek 9096   2.349   1.392   1.053
    1SIL  O01el 9097   2.535   1.338   1.234
    1SIL  O01em 9098   2.488   1.527   1.415
    1SIL  Si0pP 9099   2.097   1.929   0.936
    1SIL  Si0pQ 9100   1.851   1.902   1.298
    1SIL  Si0pR 9101   2.196   1.703   1.117
    1SIL  O01en 9102   1.997   1.879   1.363
    1SIL  O01eo 9103   2.044   2.067   1.000
    1SIL  O01ep 9104   1.857   2.014   1.182
    1SIL  O01eq 9105   2.103   1.817   1.053
    1SIL  O01er 9106   2.290   1.764   1.234
    1SIL  O01es 9107   2.242   1.952   1.415
    1SIL  Si0pS 9108   1.851   2.354   0.936
    1SIL  Si0pT 9109   1.605   2.328   1.298
    1SIL  Si0pU 9110   1.951   2.128   1.117
    1SIL  O01et 9111   1.751   2.304   1.363
    1SIL  O01eu 9112   1.798   2.493   1.000
    1SIL  O01ev 9113   1.612   2.439   1.182
    1SIL  O01ew 9114   1.857   2.243   1.053
    1SIL  O01ex 9115   2.044   2.190   1.234
    1SIL  O01ey 9116   1.997   2.378   1.415
    1SIL  Si0pV 9117   1.605   2.780   0.936
    1SIL  Si0pW 9118   1.359   2.753   1.298
    1SIL  Si0pX 9119   1.705   2.554   1.117
    1SIL  O01ez 9120   1.505   2.730   1.363
    1SIL  O01f0 9121   1.552   2.918   1.000
    1SIL  O01f1 9122   1.366   2.865   1.182
    1SIL  O01f2 9123   1.612   2.668   1.053
    1SIL  O01f3 9124   1.798   2.615   1.234
    1SIL  O01f4 9125   1.751   2.804   1.415
    1SIL  Si0pY 9126   1.359   3.206   0.936
    1SIL  Si0pZ 9127   1.114   3.179   1.298
    1SIL  Si0pa 9128   1.459   2.980   1.117
    1SIL  O01f5 9129   1.259   3.156   1.363
    1SIL  O01f6 9130   1.307   3.344   1.000
    1SIL  O01f7 9131   1.120   3.291   1.182
    1SIL  O01f8 9132   1.366   3.094   1.053
    1SIL  O01f9 9133   1.552   3.041   1.234
    1SIL  O01fA 9134   1.505   3.229   1.415
    1SIL  Si0pb 9135   1.114   3.631   0.936
    1SIL  Si0pc 9136   0.868   3.605   1.298
    1SIL  Si0pd 9137   1.213   3.405   1.117
    1SIL  O01fB 9138   1.014   3.581   1.363
    1SIL  O01fC 9139   1.061   3.769   1.000
    1SIL  O01fD 9140   0.874   3.716   1.182
    1SIL  O01fE 9141   1.120   3.520   1.053
    1SIL  O01fF 9142   1.307   3.467   1.234
    1SIL  O01fG 9143   1.259   3.655   1.415
    1SIL  Si0pe 9144   0.868   4.057   0.936
    1SIL  Si0pf 9145   0.622   4.030   1.298
    1SIL  Si0pg 9146   0.968   3.831   1.117
    1SIL  O01fH 9147   0.768   4.007   1.363
    1SIL  O01fI 9148   0.815   4.195   1.000
    1SIL  O01fJ 9149   0.629   4.142   1.182
    1SIL  O01fK 9150   0.874   3.945   1.053
    1SIL  O01fL 9151   1.061   3.892   1.234
    1SIL  O01fM 9152   1.014   4.081   1.415
    1SIL  Si0ph 9153   0.622   4.483   0.936
    1SIL  Si0pi 9154   0.376   4.456   1.298
    1SIL  Si0pj 9155   0.722   4.256   1.117
    1SIL  O01fN 9156   0.522   4.432   1.363
    1SIL  O01fO 9157   0.569   4.621   1.000
    1SIL  O01fP 9158   0.383   4.568   1.182
    1SIL  O01fQ 9159   0.629   4.371   1.053
    1SIL  O01fR 9160   0.815   4.318   1.234
    1SIL  O01fS 9161   0.768   4.506   1.415
    1SIL  Si0pk 9162   0.376   4.908   0.936
    1SIL  Si0pl 9163   0.131   4.882   1.298
    1SIL  Si0pm 9164   0.476   4.682   1.117
    1SIL  O01fT 9165   0.276   4.858   1.363
    1SIL  O01fU 9166   0.324   5.046   1.000
    1SIL  O01fV 9167   0.137   4.993   1.182
    1SIL  O01fW 9168   0.383   4.797   1.053
    1SIL  O01fX 9169   0.569   4.744   1.234
    1SIL  O01fY 9170   0.522   4.932   1.415
    1SIL  Si0pn 9171   0.131   5.334   0.936
    1SIL  Si0po 9172   9.715   5.307   1.298
    1SIL  Si0pp 9173   0.230   5.108   1.117
    1SIL  O01fZ 9174   0.031   5.284   1.363
    1SIL  O01fa 9175   0.078   5.472   1.000
    1SIL  O01fb 9176   9.721   5.419   1.182
    1SIL  O01fc 9177   0.137   5.222   1.053
    1SIL  O01fd 9178   0.324   5.169   1.234
    1SIL  O01fe 9179   0.276   5.357   1.415
    1SIL  Si0pq 9180   9.715   5.759   0.936
    1SIL  Si0pr 9181   9.469   5.733   1.298
    1SIL  Si0ps 9182   9.815   5.533   1.117
    1SIL  O01ff 9183   9.615   5.709   1.363
    1SIL  O01fg 9184   9.662   5.898   1.000
    1SIL  O01fh 9185   9.475   5.844   1.182
    1SIL  O01fi 9186   9.721   5.648   1.053
    1SIL  O01fj 9187   0.078   5.595   1.234
    1SIL  O01fk 9188   0.031   5.783   1.415
    1SIL  Si0pt 9189   9.469   6.185   0.936
    1SIL  Si0pu 9190   9.223   6.159   1.298
    1SIL  Si0pv 9191   9.569   5.959   1.117
    1SIL  O01fl 9192   9.369   6.135   1.363
    1SIL  O01fm 9193   9.416   6.323   1.000
    1SIL  O01fn 9194   9.230   6.270   1.182
    1SIL  O01fo 9195   9.475   6.074   1.053
    1SIL  O01fp 9196   9.662   6.020   1.234
    1SIL  O01fq 9197   9.615   6.209   1.415
    1SIL  Si0pw 9198   9.223   6.611   0.936
    1SIL  Si0px 9199   8.977   6.584   1.298
    1SIL  Si0py 9200   9.323   6.385   1.117
    1SIL  O01fr 9201   9.123   6.561   1.363
    1SIL  O01fs 9202   9.171   6.749   1.000
    1SIL  O01ft 9203   8.984   6.696   1.182
    1SIL  O01fu 9204   9.230   6.499   1.053
    1SIL  O01fv 9205   9.416   6.446   1.234
    1SIL  O01fw 9206   9.369   6.634   1.415
    1SIL  Si0pz 9207   8.977   7.036   0.936
    1SIL  Si0q0 9208   8.732   7.010   1.298
    1SIL  Si0q1 9209   9.077   6.810   1.117
    1SIL  O01fx 9210   8.878   6.986   1.363
    1SIL  O01fy 9211   8.925   7.175   1.000
    1SIL  O01fz 9212   8.738   7.121   1.182
    1SIL  O01g0 9213   8.984   6.925   1.053
    1SIL  O01g1 9214   9.171   6.872   1.234
    1SIL  O01g2 9215   9.123   7.060   1.415
    1SIL  Si0q2 9216   8.732   7.462   0.936
    1SIL  Si0q3 9217   8.486   7.436   1.298
    1SIL  Si0q4 9218   8.832   7.236   1.117
    1SIL  O01g3 9219   8.632   7.412   1.363
    1SIL  O01g4 9220   8.679   7.600   1.000
    1SIL  O01g5 9221   8.492   7.547   1.182
    1SIL  O01g6 9222   8.738   7.351   1.053
    1SIL  O01g7 9223   8.925   7.297   1.234
    1SIL  O01g8 9224   8.878   7.486   1.415
    1SIL  Si0q5 9225   8.486   7.888   0.936
    1SIL  Si0q6 9226   8.240   7.861   1.298
    1SIL  Si0q7 9227   8.586   7.662   1.117
    1SIL  O01g9 9228   8.386   7.838   1.363
    1SIL  O01gA 9229   8.433   8.026   1.000
    1SIL  O01gB 9230   8.247   7.973   1.182
    1SIL  O01gC 9231   8.492   7.776   1.053
    1SIL  O01gD 9232   8.679   7.723   1.234
    1SIL  O01gE 9233   8.632   7.911   1.415
    1SIL  Si0q8 9234   8.240   8.313   0.936
    1SIL  Si0q9 9235   7.994   8.287   1.298
    1SIL  Si0qA 9236   8.340   8.087   1.117
    1SIL  O01gF 9237   8.140   8.263   1.363
    1SIL  O01gG 9238   8.188   8.452   1.000
    1SIL  O01gH 9239   8.001   8.398   1.182
    1SIL  O01gI 9240   8.247   8.202   1.053
    1SIL  O01gJ 9241   8.433   8.149   1.234
    1SIL  O01gK 9242   8.386   8.337   1.415
    1SIL  Si0qB 9243   7.994   8.739   0.936
    1SIL  Si0qC 9244   7.749   8.713   1.298
    1SIL  Si0qD 9245   8.094   8.513   1.117
    1SIL  O01gL 9246   7.895   8.689   1.363
    1SIL  O01gM 9247   7.942   8.877   1.000
    1SIL  O01gN 9248   7.755   8.824   1.182
    1SIL  O01gO 9249   8.001   8.628   1.053
    1SIL  O01gP 9250   8.188   8.574   1.234
    1SIL  O01gQ 9251   8.140   8.763   1.415
    1SIL  Si0qE 9252   7.749   9.165   0.936
    1SIL  Si0qF 9253   7.503   9.138   1.298
    1SIL  Si0qG 9254   7.849   8.939   1.117
    1SIL  O01gR 9255   7.649   9.115   1.363
    1SIL  O01gS 9256   7.696   9.303   1.000
    1SIL  O01gT 9257   7.509   9.250   1.182
    1SIL  O01gU 9258   7.755   9.053   1.053
    1SIL  O01gV 9259   7.942   9.000   1.234
    1SIL  O01gW 9260   7.895   9.188   1.415
    1SIL  Si0qH 9261   7.503   9.590   0.936
    1SIL  Si0qI 9262   7.257   9.564   1.298
    1SIL  Si0qJ 9263   7.603   9.364   1.117
    1SIL  O01gX 9264   7.403   9.540   1.363
    1SIL  O01gY 9265   7.450   9.729   1.000
    1SIL  O01gZ 9266   7.264   9.675   1.182
    1SIL  O01ga 9267   7.509   9.479   1.053
    1SIL  O01gb 9268   7.696   9.426   1.234
    1SIL  O01gc 9269   7.649   9.614   1.415
    1SIL  Si0qK 9270   3.571   0.226   0.936
    1SIL  Si0qL 9271   3.325   0.200   1.298
    1SIL  Si0qM 9272   3.671   0.000   1.117
    1SIL  O01gd 9273   3.471   0.176   1.363
    1SIL  O01ge 9274   3.518   0.364   1.000
    1SIL  O01gf 9275   3.332   0.311   1.182
    1SIL  O01gg 9276   3.577   0.115   1.053
    1SIL  O01gh 9277   3.764   0.061   1.234
    1SIL  O01gi 9278   3.717   0.250   1.415
    1SIL  Si0qN 9279   3.325   0.652   0.936
    1SIL  Si0qO 9280   3.079   0.625   1.298
    1SIL  Si0qP 9281   3.425   0.426   1.117
    1SIL  O01gj 9282   3.225   0.602   1.363
    1SIL  O01gk 9283   3.273   0.790   1.000
    1SIL  O01gl 9284   3.086   0.737   1.182
    1SIL  O01gm 9285   3.332   0.540   1.053
    1SIL  O01gn 9286   3.518   0.487   1.234
    1SIL  O01go 9287   3.471   0.675   1.415
    1SIL  Si0qQ 9288   3.079   1.077   0.936
    1SIL  Si0qR 9289   2.834   1.051   1.298
    1SIL  Si0qS 9290   3.179   0.851   1.117
    1SIL  O01gp 9291   2.980   1.027   1.363
    1SIL  O01gq 9292   3.027   1.216   1.000
    1SIL  O01gr 9293   2.840   1.162   1.182
    1SIL  O01gs 9294   3.086   0.966   1.053
    1SIL  O01gt 9295   3.273   0.913   1.234
    1SIL  O01gu 9296   3.225   1.101   1.415
    1SIL  Si0qT 9297   2.834   1.503   0.936
    1SIL  Si0qU 9298   2.588   1.477   1.298
    1SIL  Si0qV 9299   2.934   1.277   1.117
    1SIL  O01gv 9300   2.734   1.453   1.363
    1SIL  O01gw 9301   2.781   1.641   1.000
    1SIL  O01gx 9302   2.595   1.588   1.182
    1SIL  O01gy 9303   2.840   1.392   1.053
    1SIL  O01gz 9304   3.027   1.338   1.234
    1SIL  O01h0 9305   2.980   1.527   1.415
    1SIL  Si0qW 9306   2.588   1.929   0.936
    1SIL  Si0qX 9307   2.342   1.902   1.298
    1SIL  Si0qY 9308   2.688   1.703   1.117
    1SIL  O01h1 9309   2.488   1.879   1.363
    1SIL  O01h2 9310   2.535   2.067   1.000
    1SIL  O01h3 9311   2.349   2.014   1.182
    1SIL  O01h4 9312   2.595   1.817   1.053
    1SIL  O01h5 9313   2.781   1.764   1.234
    1SIL  O01h6 9314   2.734   1.952   1.415
    1SIL  Si0qZ 9315   2.342   2.354   0.936
    1SIL  Si0qa 9316   2.097   2.328   1.298
    1SIL  Si0qb 9317   2.442   2.128   1.117
    1SIL  O01h7 9318   2.242   2.304   1.363
    1SIL  O01h8 9319   2.290   2.493   1.000
    1SIL  O01h9 9320   2.103   2.439   1.182
    1SIL  O01hA 9321   2.349   2.243   1.053
    1SIL  O01hB 9322   2.535   2.190   1.234
    1SIL  O01hC 9323   2.488   2.378   1.415
    1SIL  Si0qc 9324   2.097   2.780   0.936
    1SIL  Si0qd 9325   1.851   2.753   1.298
    1SIL  Si0qe 9326   2.196   2.554   1.117
    1SIL  O01hD 9327   1.997   2.730   1.363
    1SIL  O01hE 9328   2.044   2.918   1.000
    1SIL  O01hF 9329   1.857   2.865   1.182
    1SIL  O01hG 9330   2.103   2.668   1.053
    1SIL  O01hH 9331   2.290   2.615   1.234
    1SIL  O01hI 9332   2.242   2.804   1.415
    1SIL  Si0qf 9333   1.851   3.206   0.936
    1SIL  Si0qg 9334   1.605   3.179   1.298
    1SIL  Si0qh 9335   1.951   2.980   1.117
    1SIL  O01hJ 9336   1.751   3.156   1.363
    1SIL  O01hK 9337   1.798   3.344   1.000
    1SIL  O01hL 9338   1.612   3.291   1.182
    1SIL  O01hM 9339   1.857   3.094   1.053
    1SIL  O01hN 9340   2.044   3.041   1.234
    1SIL  O01hO 9341   1.997   3.229   1.415
    1SIL  Si0qi 9342   1.605   3.631   0.936
    1SIL  Si0qj 9343   1.359   3.605   1.298
    1SIL  Si0qk 9344   1.705   3.405   1.117
    1SIL  O01hP 9345   1.505   3.581   1.363
    1SIL  O01hQ 9346   1.552   3.769   1.000
    1SIL  O01hR 9347   1.366   3.716   1.182
    1SIL  O01hS 9348   1.612   3.520   1.053
    1SIL  O01hT 9349   1.798   3.467   1.234
    1SIL  O01hU 9350   1.751   3.655   1.415
    1SIL  Si0ql 9351   1.359   4.057   0.936
    1SIL  Si0qm 9352   1.114   4.030   1.298
    1SIL  Si0qn 9353   1.459   3.831   1.117
    1SIL  O01hV 9354   1.259   4.007   1.363
    1SIL  O01hW 9355   1.307   4.195   1.000
    1SIL  O01hX 9356   1.120   4.142   1.182
    1SIL  O01hY 9357   1.366   3.945   1.053
    1SIL  O01hZ 9358   1.552   3.892   1.234
    1SIL  O01ha 9359   1.505   4.081   1.415
    1SIL  Si0qo 9360   1.114   4.483   0.936
    1SIL  Si0qp 9361   0.868   4.456   1.298
    1SIL  Si0qq 9362   1.213   4.256   1.117
    1SIL  O01hb 9363   1.014   4.432   1.363
    1SIL  O01hc 9364   1.061   4.621   1.000
    1SIL  O01hd 9365   0.874   4.568   1.182
    1SIL  O01he 9366   1.120   4.371   1.053
    1SIL  O01hf 9367   1.307   4.318   1.234
    1SIL  O01hg 9368   1.259   4.506   1.415
    1SIL  Si0qr 9369   0.868   4.908   0.936
    1SIL  Si0qs 9370   0.622   4.882   1.298
    1SIL  Si0qt 9371   0.968   4.682   1.117
    1SIL  O01hh 9372   0.768   4.858   1.363
    1SIL  O01hi 9373   0.815   5.046   1.000
    1SIL  O01hj 9374   0.629   4.993   1.182
    1SIL  O01hk 9375   0.874   4.797   1.053
    1SIL  O01hl 9376   1.061   4.744   1.234
    1SIL  O01hm 9377   1.014   4.932   1.415
    1SIL  Si0qu 9378   0.622   5.334   0.936
    1SIL  Si0qv 9379   0.376   5.307   1.298
    1SIL  Si0qw 9380   0.722   5.108   1.117
    1SIL  O01hn 9381   0.522   5.284   1.363
    1SIL  O01ho 9382   0.569   5.472   1.000
    1SIL  O01hp 9383   0.383   5.419   1.182
    1SIL  O01hq 9384   0.629   5.222   1.053
    1SIL  O01hr 9385   0.815   5.169   1.234
    1SIL  O01hs 9386   0.768   5.357   1.415
    1SIL  Si0qx 9387   0.376   5.759   0.936
    1SIL  Si0qy 9388   0.131   5.733   1.298
    1SIL  Si0qz 9389   0.476   5.533   1.117
    1SIL  O01ht 9390   0.276   5.709   1.363
    1SIL  O01hu 9391   0.324   5.898   1.000
    1SIL  O01hv 9392   0.137   5.844   1.182
    1SIL  O01hw 9393   0.383   5.648   1.053
    1SIL  O01hx 9394   0.569   5.595   1.234
    1SIL  O01hy 9395   0.522   5.783   1.415
    1SIL  Si0r0 9396   0.131   6.185   0.936
    1SIL  Si0r1 9397   9.715   6.159   1.298
    1SIL  Si0r2 9398   0.230   5.959   1.117
    1SIL  O01hz 9399   0.031   6.135   1.363
    1SIL  O01i0 9400   0.078   6.323   1.000
    1SIL  O01i1 9401   9.721   6.270   1.182
    1SIL  O01i2 9402   0.137   6.074   1.053
    1SIL  O01i3 9403   0.324   6.020   1.234
    1SIL  O01i4 9404   0.276   6.209   1.415
    1SIL  Si0r3 9405   9.715   6.611   0.936
    1SIL  Si0r4 9406   9.469   6.584   1.298
    1SIL  Si0r5 9407   9.815   6.385   1.117
    1SIL  O01i5 9408   9.615   6.561   1.363
    1SIL  O01i6 9409   9.662   6.749   1.000
    1SIL  O01i7 9410   9.475   6.696   1.182
    1SIL  O01i8 9411   9.721   6.499   1.053
    1SIL  O01i9 9412   0.078   6.446   1.234
    1SIL  O01iA 9413   0.031   6.634   1.415
    1SIL  Si0r6 9414   9.469   7.036   0.936
    1SIL  Si0r7 9415   9.223   7.010   1.298
    1SIL  Si0r8 9416   9.569   6.810   1.117
    1SIL  O01iB 9417   9.369   6.986   1.363
    1SIL  O01iC 9418   9.416   7.175   1.000
    1SIL  O01iD 9419   9.230   7.121   1.182
    1SIL  O01iE 9420   9.475   6.925   1.053
    1SIL  O01iF 9421   9.662   6.872   1.234
    1SIL  O01iG 9422   9.615   7.060   1.415
    1SIL  Si0r9 9423   9.223   7.462   0.936
    1SIL  Si0rA 9424   8.977   7.436   1.298
    1SIL  Si0rB 9425   9.323   7.236   1.117
    1SIL  O01iH 9426   9.123   7.412   1.363
    1SIL  O01iI 9427   9.171   7.600   1.000
    1SIL  O01iJ 9428   8.984   7.547   1.182
    1SIL  O01iK 9429   9.230   7.351   1.053
    1SIL  O01iL 9430   9.416   7.297   1.234
    1SIL  O01iM 9431   9.369   7.486   1.415
    1SIL  Si0rC 9432   8.977   7.888   0.936
    1SIL  Si0rD 9433   8.732   7.861   1.298
    1SIL  Si0rE 9434   9.077   7.662   1.117
    1SIL  O01iN 9435   8.878   7.838   1.363
    1SIL  O01iO 9436   8.925   8.026   1.000
    1SIL  O01iP 9437   8.738   7.973   1.182
    1SIL  O01iQ 9438   8.984   7.776   1.053
    1SIL  O01iR 9439   9.171   7.723   1.234
    1SIL  O01iS 9440   9.123   7.911   1.415
    1SIL  Si0rF 9441   8.732   8.313   0.936
    1SIL  Si0rG 9442   8.486   8.287   1.298
    1SIL  Si0rH 9443   8.832   8.087   1.117
    1SIL  O01iT 9444   8.632   8.263   1.363
    1SIL  O01iU 9445   8.679   8.452   1.000
    1SIL  O01iV 9446   8.492   8.398   1.182
    1SIL  O01iW 9447   8.738   8.202   1.053
    1SIL  O01iX 9448   8.925   8.149   1.234
    1SIL  O01iY 9449   8.878   8.337   1.415
    1SIL  Si0rI 9450   8.486   8.739   0.936
    1SIL  Si0rJ 9451   8.240   8.713   1.298
    1SIL  Si0rK 9452   8.586   8.513   1.117
    1SIL  O01iZ 9453   8.386   8.689   1.363
    1SIL  O01ia 9454   8.433   8.877   1.000
    1SIL  O01ib 9455   8.247   8.824   1.182
    1SIL  O01ic 9456   8.492   8.628   1.053
    1SIL  O01id 9457   8.679   8.574   1.234
    1SIL  O01ie 9458   8.632   8.763   1.415
    1SIL  Si0rL 9459   8.240   9.165   0.936
    1SIL  Si0rM 9460   7.994   9.138   1.298
    1SIL  Si0rN 9461   8.340   8.939   1.117
    1SIL  O01if 9462   8.140   9.115   1.363
    1SIL  O01ig 9463   8.188   9.303   1.000
    1SIL  O01ih 9464   8.001   9.250   1.182
    1SIL  O01ii 9465   8.247   9.053   1.053
    1SIL  O01ij 9466   8.433   9.000   1.234
    1SIL  O01ik 9467   8.386   9.188   1.415
    1SIL  Si0rO 9468   7.994   9.590   0.936
    1SIL  Si0rP 9469   7.749   9.564   1.298
    1SIL  Si0rQ 9470   8.094   9.364   1.117
    1SIL  O01il 9471   7.895   9.540   1.363
    1SIL  O01im 9472   7.942   9.729   1.000
    1SIL  O01in 9473   7.755   9.675   1.182
    1SIL  O01io 9474   8.001   9.479   1.053
    1SIL  O01ip 9475   8.188   9.426   1.234
    1SIL  O01iq 9476   8.140   9.614   1.415
    1SIL  Si0rR 9477   4.062   0.226   0.936
    1SIL  Si0rS 9478   3.817   0.200   1.298
    1SIL  Si0rT 9479   4.162   0.000   1.117
    1SIL  O01ir 9480   3.963   0.176   1.363
    1SIL  O01is 9481   4.010   0.364   1.000
    1SIL  O01it 9482   3.823   0.311   1.182
    1SIL  O01iu 9483   4.069   0.115   1.053
    1SIL  O01iv 9484   4.256   0.061   1.234
    1SIL  O01iw 9485   4.208   0.250   1.415
    1SIL  Si0rU 9486   3.817   0.652   0.936
    1SIL  Si0rV 9487   3.571   0.625   1.298
    1SIL  Si0rW 9488   3.917   0.426   1.117
    1SIL  O01ix 9489   3.717   0.602   1.363
    1SIL  O01iy 9490   3.764   0.790   1.000
    1SIL  O01iz 9491   3.577   0.737   1.182
    1SIL  O01j0 9492   3.823   0.540   1.053
    1SIL  O01j1 9493   4.010   0.487   1.234
    1SIL  O01j2 9494   3.963   0.675   1.415
    1SIL  Si0rX 9495   3.571   1.077   0.936
    1SIL  Si0rY 9496   3.325   1.051   1.298
    1SIL  Si0rZ 9497   3.671   0.851   1.117
    1SIL  O01j3 9498   3.471   1.027   1.363
    1SIL  O01j4 9499   3.518   1.216   1.000
    1SIL  O01j5 9500   3.332   1.162   1.182
    1SIL  O01j6 9501   3.577   0.966   1.053
    1SIL  O01j7 9502   3.764   0.913   1.234
    1SIL  O01j8 9503   3.717   1.101   1.415
    1SIL  Si0ra 9504   3.325   1.503   0.936
    1SIL  Si0rb 9505   3.079   1.477   1.298
    1SIL  Si0rc 9506   3.425   1.277   1.117
    1SIL  O01j9 9507   3.225   1.453   1.363
    1SIL  O01jA 9508   3.273   1.641   1.000
    1SIL  O01jB 9509   3.086   1.588   1.182
    1SIL  O01jC 9510   3.332   1.392   1.053
    1SIL  O01jD 9511   3.518   1.338   1.234
    1SIL  O01jE 9512   3.471   1.527   1.415
    1SIL  Si0rd 9513   3.079   1.929   0.936
    1SIL  Si0re 9514   2.834   1.902   1.298
    1SIL  Si0rf 9515   3.179   1.703   1.117
    1SIL  O01jF 9516   2.980   1.879   1.363
    1SIL  O01jG 9517   3.027   2.067   1.000
    1SIL  O01jH 9518   2.840   2.014   1.182
    1SIL  O01jI 9519   3.086   1.817   1.053
    1SIL  O01jJ 9520   3.273   1.764   1.234
    1SIL  O01jK 9521   3.225   1.952   1.415
    1SIL  Si0rg 9522   2.834   2.354   0.936
    1SIL  Si0rh 9523   2.588   2.328   1.298
    1SIL  Si0ri 9524   2.934   2.128   1.117
    1SIL  O01jL 9525   2.734   2.304   1.363
    1SIL  O01jM 9526   2.781   2.493   1.000
    1SIL  O01jN 9527   2.595   2.439   1.182
    1SIL  O01jO 9528   2.840   2.243   1.053
    1SIL  O01jP 9529   3.027   2.190   1.234
    1SIL  O01jQ 9530   2.980   2.378   1.415
    1SIL  Si0rj 9531   2.588   2.780   0.936
    1SIL  Si0rk 9532   2.342   2.753   1.298
    1SIL  Si0rl 9533   2.688   2.554   1.117
    1SIL  O01jR 9534   2.488   2.730   1.363
    1SIL  O01jS 9535   2.535   2.918   1.000
    1SIL  O01jT 9536   2.349   2.865   1.182
    1SIL  O01jU 9537   2.595   2.668   1.053
    1SIL  O01jV 9538   2.781   2.615   1.234
    1SIL  O01jW 9539   2.734   2.804   1.415
    1SIL  Si0rm 9540   2.342   3.206   0.936
    1SIL  Si0rn 9541   2.097   3.179   1.298
    1SIL  Si0ro 9542   2.442   2.980   1.117
    1SIL  O01jX 9543   2.242   3.156   1.363
    1SIL  O01jY 9544   2.290   3.344   1.000
    1SIL  O01jZ 9545   2.103   3.291   1.182
    1SIL  O01ja 9546   2.349   3.094   1.053
    1SIL  O01jb 9547   2.535   3.041   1.234
    1SIL  O01jc 9548   2.488   3.229   1.415
    1SIL  Si0rp 9549   2.097   3.631   0.936
    1SIL  Si0rq 9550   1.851   3.605   1.298
    1SIL  Si0rr 9551   2.196   3.405   1.117
    1SIL  O01jd 9552   1.997   3.581   1.363
    1SIL  O01je 9553   2.044   3.769   1.000
    1SIL  O01jf 9554   1.857   3.716   1.182
    1SIL  O01jg 9555   2.103   3.520   1.053
    1SIL  O01jh 9556   2.290   3.467   1.234
    1SIL  O01ji 9557   2.242   3.655   1.415
    1SIL  Si0rs 9558   1.851   4.057   0.936
    1SIL  Si0rt 9559   1.605   4.030   1.298
    1SIL  Si0ru 9560   1.951   3.831   1.117
    1SIL  O01jj 9561   1.751   4.007   1.363
    1SIL  O01jk 9562   1.798   4.195   1.000
    1SIL  O01jl 9563   1.612   4.142   1.182
    1SIL  O01jm 9564   1.857   3.945   1.053
    1SIL  O01jn 9565   2.044   3.892   1.234
    1SIL  O01jo 9566   1.997   4.081   1.415
    1SIL  Si0rv 9567   1.605   4.483   0.936
    1SIL  Si0rw 9568   1.359   4.456   1.298
    1SIL  Si0rx 9569   1.705   4.256   1.117
    1SIL  O01jp 9570   1.505   4.432   1.363
    1SIL  O01jq 9571   1.552   4.621   1.000
    1SIL  O01jr 9572   1.366   4.568   1.182
    1SIL  O01js 9573   1.612   4.371   1.053
    1SIL  O01jt 9574   1.798   4.318   1.234
    1SIL  O01ju 9575   1.751   4.506   1.415
    1SIL  Si0ry 9576   1.359   4.908   0.936
    1SIL  Si0rz 9577   1.114   4.882   1.298
    1SIL  Si0s0 9578   1.459   4.682   1.117
    1SIL  O01jv 9579   1.259   4.858   1.363
    1SIL  O01jw 9580   1.307   5.046   1.000
    1SIL  O01jx 9581   1.120   4.993   1.182
    1SIL  O01jy 9582   1.366   4.797   1.053
    1SIL  O01jz 9583   1.552   4.744   1.234
    1SIL  O01k0 9584   1.505   4.932   1.415
    1SIL  Si0s1 9585   1.114   5.334   0.936
    1SIL  Si0s2 9586   0.868   5.307   1.298
    1SIL  Si0s3 9587   1.213   5.108   1.117
    1SIL  O01k1 9588   1.014   5.284   1.363
    1SIL  O01k2 9589   1.061   5.472   1.000
    1SIL  O01k3 9590   0.874   5.419   1.182
    1SIL  O01k4 9591   1.120   5.222   1.053
    1SIL  O01k5 9592   1.307   5.169   1.234
    1SIL  O01k6 9593   1.259   5.357   1.415
    1SIL  Si0s4 9594   0.868   5.759   0.936
    1SIL  Si0s5 9595   0.622   5.733   1.298
    1SIL  Si0s6 9596   0.968   5.533   1.117
    1SIL  O01k7 9597   0.768   5.709   1.363
    1SIL  O01k8 9598   0.815   5.898   1.000
    1SIL  O01k9 9599   0.629   5.844   1.182
    1SIL  O01kA 9600   0.874   5.648   1.053
    1SIL  O01kB 9601   1.061   5.595   1.234
    1SIL  O01kC 9602   1.014   5.783   1.415
    1SIL  Si0s7 9603   0.622   6.185   0.936
    1SIL  Si0s8 9604   0.376   6.159   1.298
    1SIL  Si0s9 9605   0.722   5.959   1.117
    1SIL  O01kD 9606   0.522   6.135   1.363
    1SIL  O01kE 9607   0.569   6.323   1.000
    1SIL  O01kF 9608   0.383   6.270   1.182
    1SIL  O01kG 9609   0.629   6.074   1.053
    1SIL  O01kH 9610   0.815   6.020   1.234
    1SIL  O01kI 9611   0.768   6.209   1.415
    1SIL  Si0sA 9612   0.376   6.611   0.936
    1SIL  Si0sB 9613   0.131   6.584   1.298
    1SIL  Si0sC 9614   0.476   6.385   1.117
    1SIL  O01kJ 9615   0.276   6.561   1.363
    1SIL  O01kK 9616   0.324   6.749   1.000
    1SIL  O01kL 9617   0.137   6.696   1.182
    1SIL  O01kM 9618   0.383   6.499   1.053
    1SIL  O01kN 9619   0.569   6.446   1.234
    1SIL  O01kO 9620   0.522   6.634   1.415
    1SIL  Si0sD 9621   0.131   7.036   0.936
    1SIL  Si0sE 9622   9.715   7.010   1.298
    1SIL  Si0sF 9623   0.230   6.810   1.117
    1SIL  O01kP 9624   0.031   6.986   1.363
    1SIL  O01kQ 9625   0.078   7.175   1.000
    1SIL  O01kR 9626   9.721   7.121   1.182
    1SIL  O01kS 9627   0.137   6.925   1.053
    1SIL  O01kT 9628   0.324   6.872   1.234
    1SIL  O01kU 9629   0.276   7.060   1.415
    1SIL  Si0sG 9630   9.715   7.462   0.936
    1SIL  Si0sH 9631   9.469   7.436   1.298
    1SIL  Si0sI 9632   9.815   7.236   1.117
    1SIL  O01kV 9633   9.615   7.412   1.363
    1SIL  O01kW 9634   9.662   7.600   1.000
    1SIL  O01kX 9635   9.475   7.547   1.182
    1SIL  O01kY 9636   9.721   7.351   1.053
    1SIL  O01kZ 9637   0.078   7.297   1.234
    1SIL  O01ka 9638   0.031   7.486   1.415
    1SIL  Si0sJ 9639   9.469   7.888   0.936
    1SIL  Si0sK 9640   9.223   7.861   1.298
    1SIL  Si0sL 9641   9.569   7.662   1.117
    1SIL  O01kb 9642   9.369   7.838   1.363
    1SIL  O01kc 9643   9.416   8.026   1.000
    1SIL  O01kd 9644   9.230   7.973   1.182
    1SIL  O01ke 9645   9.475   7.776   1.053
    1SIL  O01kf 9646   9.662   7.723   1.234
    1SIL  O01kg 9647   9.615   7.911   1.415
    1SIL  Si0sM 9648   9.223   8.313   0.936
    1SIL  Si0sN 9649   8.977   8.287   1.298
    1SIL  Si0sO 9650   9.323   8.087   1.117
    1SIL  O01kh 9651   9.123   8.263   1.363
    1SIL  O01ki 9652   9.171   8.452   1.000
    1SIL  O01kj 9653   8.984   8.398   1.182
    1SIL  O01kk 9654   9.230   8.202   1.053
    1SIL  O01kl 9655   9.416   8.149   1.234
    1SIL  O01km 9656   9.369   8.337   1.415
    1SIL  Si0sP 9657   8.977   8.739   0.936
    1SIL  Si0sQ 9658   8.732   8.713   1.298
    1SIL  Si0sR 9659   9.077   8.513   1.117
    1SIL  O01kn 9660   8.878   8.689   1.363
    1SIL  O01ko 9661   8.925   8.877   1.000
    1SIL  O01kp 9662   8.738   8.824   1.182
    1SIL  O01kq 9663   8.984   8.628   1.053
    1SIL  O01kr 9664   9.171   8.574   1.234
    1SIL  O01ks 9665   9.123   8.763   1.415
    1SIL  Si0sS 9666   8.732   9.165   0.936
    1SIL  Si0sT 9667   8.486   9.138   1.298
    1SIL  Si0sU 9668   8.832   8.939   1.117
    1SIL  O01kt 9669   8.632   9.115   1.363
    1SIL  O01ku 9670   8.679   9.303   1.000
    1SIL  O01kv 9671   8.492   9.250   1.182
    1SIL  O01kw 9672   8.738   9.053   1.053
    1SIL  O01kx 9673   8.925   9.000   1.234
    1SIL  O01ky 9674   8.878   9.188   1.415
    1SIL  Si0sV 9675   8.486   9.590   0.936
    1SIL  Si0sW 9676   8.240   9.564   1.298
    1SIL  Si0sX 9677   8.586   9.364   1.117
    1SIL  O01kz 9678   8.386   9.540   1.363
    1SIL  O01l0 9679   8.433   9.729   1.000
    1SIL  O01l1 9680   8.247   9.675   1.182
    1SIL  O01l2 9681   8.492   9.479   1.053
    1SIL  O01l3 9682   8.679   9.426   1.234
    1SIL  O01l4 9683   8.632   9.614   1.415
    1SIL  Si0sY 9684   4.554   0.226   0.936
    1SIL  Si0sZ 9685   4.308   0.200   1.298
    1SIL  Si0sa 9686   4.654   0.000   1.117
    1SIL  O01l5 9687   4.454   0.176   1.363
    1SIL  O01l6 9688   4.501   0.364   1.000
    1SIL  O01l7 9689   4.315   0.311   1.182
    1SIL  O01l8 9690   4.560   0.115   1.053
    1SIL  O01l9 9691   4.747   0.061   1.234
    1SIL  O01lA 9692   4.700   0.250   1.415
    1SIL  Si0sb 9693   4.308   0.652   0.936
    1SIL  Si0sc 9694   4.062   0.625   1.298
    1SIL  Si0sd 9695   4.408   0.426   1.117
    1SIL  O01lB 9696   4.208   0.602   1.363
    1SIL  O01lC 9697   4.256   0.790   1.000
    1SIL  O01lD 9698   4.069   0.737   1.182
    1SIL  O01lE 9699   4.315   0.540   1.053
    1SIL  O01lF 9700   4.501   0.487   1.234
    1SIL  O01lG 9701   4.454   0.675   1.415
    1SIL  Si0se 9702   4.062   1.077   0.936
    1SIL  Si0sf 9703   3.817   1.051   1.298
    1SIL  Si0sg 9704   4.162   0.851   1.117
    1SIL  O01lH 9705   3.963   1.027   1.363
    1SIL  O01lI 9706   4.010   1.216   1.000
    1SIL  O01lJ 9707   3.823   1.162   1.182
    1SIL  O01lK 9708   4.069   0.966   1.053
    1SIL  O01lL 9709   4.256   0.913   1.234
    1SIL  O01lM 9710   4.208   1.101   1.415
    1SIL  Si0sh 9711   3.817   1.503   0.936
    1SIL  Si0si 9712   3.571   1.477   1.298
    1SIL  Si0sj 9713   3.917   1.277   1.117
    1SIL  O01lN 9714   3.717   1.453   1.363
    1SIL  O01lO 9715   3.764   1.641   1.000
    1SIL  O01lP 9716   3.577   1.588   1.182
    1SIL  O01lQ 9717   3.823   1.392   1.053
    1SIL  O01lR 9718   4.010   1.338   1.234
    1SIL  O01lS 9719   3.963   1.527   1.415
    1SIL  Si0sk 9720   3.571   1.929   0.936
    1SIL  Si0sl 9721   3.325   1.902   1.298
    1SIL  Si0sm 9722   3.671   1.703   1.117
    1SIL  O01lT 9723   3.471   1.879   1.363
    1SIL  O01lU 9724   3.518   2.067   1.000
    1SIL  O01lV 9725   3.332   2.014   1.182
    1SIL  O01lW 9726   3.577   1.817   1.053
    1SIL  O01lX 9727   3.764   1.764   1.234
    1SIL  O01lY 9728   3.717   1.952   1.415
    1SIL  Si0sn 9729   3.325   2.354   0.936
    1SIL  Si0so 9730   3.079   2.328   1.298
    1SIL  Si0sp 9731   3.425   2.128   1.117
    1SIL  O01lZ 9732   3.225   2.304   1.363
    1SIL  O01la 9733   3.273   2.493   1.000
    1SIL  O01lb 9734   3.086   2.439   1.182
    1SIL  O01lc 9735   3.332   2.243   1.053
    1SIL  O01ld 9736   3.518   2.190   1.234
    1SIL  O01le 9737   3.471   2.378   1.415
    1SIL  Si0sq 9738   3.079   2.780   0.936
    1SIL  Si0sr 9739   2.834   2.753   1.298
    1SIL  Si0ss 9740   3.179   2.554   1.117
    1SIL  O01lf 9741   2.980   2.730   1.363
    1SIL  O01lg 9742   3.027   2.918   1.000
    1SIL  O01lh 9743   2.840   2.865   1.182
    1SIL  O01li 9744   3.086   2.668   1.053
    1SIL  O01lj 9745   3.273   2.615   1.234
    1SIL  O01lk 9746   3.225   2.804   1.415
    1SIL  Si0st 9747   2.834   3.206   0.936
    1SIL  Si0su 9748   2.588   3.179   1.298
    1SIL  Si0sv 9749   2.934   2.980   1.117
    1SIL  O01ll 9750   2.734   3.156   1.363
    1SIL  O01lm 9751   2.781   3.344   1.000
    1SIL  O01ln 9752   2.595   3.291   1.182
    1SIL  O01lo 9753   2.840   3.094   1.053
    1SIL  O01lp 9754   3.027   3.041   1.234
    1SIL  O01lq 9755   2.980   3.229   1.415
    1SIL  Si0sw 9756   2.588   3.631   0.936
    1SIL  Si0sx 9757   2.342   3.605   1.298
    1SIL  Si0sy 9758   2.688   3.405   1.117
    1SIL  O01lr 9759   2.488   3.581   1.363
    1SIL  O01ls 9760   2.535   3.769   1.000
    1SIL  O01lt 9761   2.349   3.716   1.182
    1SIL  O01lu 9762   2.595   3.520   1.053
    1SIL  O01lv 9763   2.781   3.467   1.234
    1SIL  O01lw 9764   2.734   3.655   1.415
    1SIL  Si0sz 9765   2.342   4.057   0.936
    1SIL  Si0t0 9766   2.097   4.030   1.298
    1SIL  Si0t1 9767   2.442   3.831   1.117
    1SIL  O01lx 9768   2.242   4.007   1.363
    1SIL  O01ly 9769   2.290   4.195   1.000
    1SIL  O01lz 9770   2.103   4.142   1.182
    1SIL  O01m0 9771   2.349   3.945   1.053
    1SIL  O01m1 9772   2.535   3.892   1.234
    1SIL  O01m2 9773   2.488   4.081   1.415
    1SIL  Si0t2 9774   2.097   4.483   0.936
    1SIL  Si0t3 9775   1.851   4.456   1.298
    1SIL  Si0t4 9776   2.196   4.256   1.117
    1SIL  O01m3 9777   1.997   4.432   1.363
    1SIL  O01m4 9778   2.044   4.621   1.000
    1SIL  O01m5 9779   1.857   4.568   1.182
    1SIL  O01m6 9780   2.103   4.371   1.053
    1SIL  O01m7 9781   2.290   4.318   1.234
    1SIL  O01m8 9782   2.242   4.506   1.415
    1SIL  Si0t5 9783   1.851   4.908   0.936
    1SIL  Si0t6 9784   1.605   4.882   1.298
    1SIL  Si0t7 9785   1.951   4.682   1.117
    1SIL  O01m9 9786   1.751   4.858   1.363
    1SIL  O01mA 9787   1.798   5.046   1.000
    1SIL  O01mB 9788   1.612   4.993   1.182
    1SIL  O01mC 9789   1.857   4.797   1.053
    1SIL  O01mD 9790   2.044   4.744   1.234
    1SIL  O01mE 9791   1.997   4.932   1.415
    1SIL  Si0t8 9792   1.605   5.334   0.936
    1SIL  Si0t9 9793   1.359   5.307   1.298
    1SIL  Si0tA 9794   1.705   5.108   1.117
    1SIL  O01mF 9795   1.505   5.284   1.363
    1SIL  O01mG 9796   1.552   5.472   1.000
    1SIL  O01mH 9797   1.366   5.419   1.182
    1SIL  O01mI 9798   1.612   5.222   1.053
    1SIL  O01mJ 9799   1.798   5.169   1.234
    1SIL  O01mK 9800   1.751   5.357   1.415
    1SIL  Si0tB 9801   1.359   5.759   0.936
    1SIL  Si0tC 9802   1.114   5.733   1.298
    1SIL  Si0tD 9803   1.459   5.533   1.117
    1SIL  O01mL 9804   1.259   5.709   1.363
    1SIL  O01mM 9805   1.307   5.898   1.000
    1SIL  O01mN 9806   1.120   5.844   1.182
    1SIL  O01mO 9807   1.366   5.648   1.053
    1SIL  O01mP 9808   1.552   5.595   1.234
    1SIL  O01mQ 9809   1.505   5.783   1.415
    1SIL  Si0tE 9810   1.114   6.185   0.936
    1SIL  Si0tF 9811   0.868   6.159   1.298
    1SIL  Si0tG 9812   1.213   5.959   1.117
    1SIL  O01mR 9813   1.014   6.135   1.363
    1SIL  O01mS 9814   1.061   6.323   1.000
    1SIL  O01mT 9815   0.874   6.270   1.182
    1SIL  O01mU 9816   1.120   6.074   1.053
    1SIL  O01mV 9817   1.307   6.020   1.234
    1SIL  O01mW 9818   1.259   6.209   1.415
    1SIL  Si0tH 9819   0.868   6.611   0.936
    1SIL  Si0tI 9820   0.622   6.584   1.298
    1SIL  Si0tJ 9821   0.968   6.385   1.117
    1SIL  O01mX 9822   0.768   6.561   1.363
    1SIL  O01mY 9823   0.815   6.749   1.000
    1SIL  O01mZ 9824   0.629   6.696   1.182
    1SIL  O01ma 9825   0.874   6.499   1.053
    1SIL  O01mb 9826   1.061   6.446   1.234
    1SIL  O01mc 9827   1.014   6.634   1.415
    1SIL  Si0tK 9828   0.622   7.036   0.936
    1SIL  Si0tL 9829   0.376   7.010   1.298
    1SIL  Si0tM 9830   0.722   6.810   1.117
    1SIL  O01md 9831   0.522   6.986   1.363
    1SIL  O01me 9832   0.569   7.175   1.000
    1SIL  O01mf 9833   0.383   7.121   1.182
    1SIL  O01mg 9834   0.629   6.925   1.053
    1SIL  O01mh 9835   0.815   6.872   1.234
    1SIL  O01mi 9836   0.768   7.060   1.415
    1SIL  Si0tN 9837   0.376   7.462   0.936
    1SIL  Si0tO 9838   0.131   7.436   1.298
    1SIL  Si0tP 9839   0.476   7.236   1.117
    1SIL  O01mj 9840   0.276   7.412   1.363
    1SIL  O01mk 9841   0.324   7.600   1.000
    1SIL  O01ml 9842   0.137   7.547   1.182
    1SIL  O01mm 9843   0.383   7.351   1.053
    1SIL  O01mn 9844   0.569   7.297   1.234
    1SIL  O01mo 9845   0.522   7.486   1.415
    1SIL  Si0tQ 9846   0.131   7.888   0.936
    1SIL  Si0tR 9847   9.715   7.861   1.298
    1SIL  Si0tS 9848   0.230   7.662   1.117
    1SIL  O01mp 9849   0.031   7.838   1.363
    1SIL  O01mq 9850   0.078   8.026   1.000
    1SIL  O01mr 9851   9.721   7.973   1.182
    1SIL  O01ms 9852   0.137   7.776   1.053
    1SIL  O01mt 9853   0.324   7.723   1.234
    1SIL  O01mu 9854   0.276   7.911   1.415
    1SIL  Si0tT 9855   9.715   8.313   0.936
    1SIL  Si0tU 9856   9.469   8.287   1.298
    1SIL  Si0tV 9857   9.815   8.087   1.117
    1SIL  O01mv 9858   9.615   8.263   1.363
    1SIL  O01mw 9859   9.662   8.452   1.000
    1SIL  O01mx 9860   9.475   8.398   1.182
    1SIL  O01my 9861   9.721   8.202   1.053
    1SIL  O01mz 9862   0.078   8.149   1.234
    1SIL  O01n0 9863   0.031   8.337   1.415
    1SIL  Si0tW 9864   9.469   8.739   0.936
    1SIL  Si0tX 9865   9.223   8.713   1.298
    1SIL  Si0tY 9866   9.569   8.513   1.117
    1SIL  O01n1 9867   9.369   8.689   1.363
    1SIL  O01n2 9868   9.416   8.877   1.000
    1SIL  O01n3 9869   9.230   8.824   1.182
    1SIL  O01n4 9870   9.475   8.628   1.053
    1SIL  O01n5 9871   9.662   8.574   1.234
    1SIL  O01n6 9872   9.615   8.763   1.415
    1SIL  Si0tZ 9873   9.223   9.165   0.936
    1SIL  Si0ta 9874   8.977   9.138   1.298
    1SIL  Si0tb 9875   9.323   8.939   1.117
    1SIL  O01n7 9876   9.123   9.115   1.363
    1SIL  O01n8 9877   9.171   9.303   1.000
    1SIL  O01n9 9878   8.984   9.250   1.182
    1SIL  O01nA 9879   9.230   9.053   1.053
    1SIL  O01nB 9880   9.416   9.000   1.234
    1SIL  O01nC 9881   9.369   9.188   1.415
    1SIL  Si0tc 9882   8.977   9.590   0.936
    1SIL  Si0td 9883   8.732   9.564   1.298
    1SIL  Si0te 9884   9.077   9.364   1.117
    1SIL  O01nD 9885   8.878   9.540   1.363
    1SIL  O01nE 9886   8.925   9.729   1.000
    1SIL  O01nF 9887   8.738   9.675   1.182
    1SIL  O01nG 9888   8.984   9.479   1.053
    1SIL  O01nH 9889   9.171   9.426   1.234
    1SIL  O01nI 9890   9.123   9.614   1.415
    1SIL  Si0tf 9891   5.045   0.226   0.936
    1SIL  Si0tg 9892   4.800   0.200   1.298
    1SIL  Si0th 9893   5.145   0.000   1.117
    1SIL  O01nJ 9894   4.946   0.176   1.363
    1SIL  O01nK 9895   4.993   0.364   1.000
    1SIL  O01nL 9896   4.806   0.311   1.182
    1SIL  O01nM 9897   5.052   0.115   1.053
    1SIL  O01nN 9898   5.239   0.061   1.234
    1SIL  O01nO 9899   5.191   0.250   1.415
    1SIL  Si0ti 9900   4.800   0.652   0.936
    1SIL  Si0tj 9901   4.554   0.625   1.298
    1SIL  Si0tk 9902   4.900   0.426   1.117
    1SIL  O01nP 9903   4.700   0.602   1.363
    1SIL  O01nQ 9904   4.747   0.790   1.000
    1SIL  O01nR 9905   4.560   0.737   1.182
    1SIL  O01nS 9906   4.806   0.540   1.053
    1SIL  O01nT 9907   4.993   0.487   1.234
    1SIL  O01nU 9908   4.946   0.675   1.415
    1SIL  Si0tl 9909   4.554   1.077   0.936
    1SIL  Si0tm 9910   4.308   1.051   1.298
    1SIL  Si0tn 9911   4.654   0.851   1.117
    1SIL  O01nV 9912   4.454   1.027   1.363
    1SIL  O01nW 9913   4.501   1.216   1.000
    1SIL  O01nX 9914   4.315   1.162   1.182
    1SIL  O01nY 9915   4.560   0.966   1.053
    1SIL  O01nZ 9916   4.747   0.913   1.234
    1SIL  O01na 9917   4.700   1.101   1.415
    1SIL  Si0to 9918   4.308   1.503   0.936
    1SIL  Si0tp 9919   4.062   1.477   1.298
    1SIL  Si0tq 9920   4.408   1.277   1.117
    1SIL  O01nb 9921   4.208   1.453   1.363
    1SIL  O01nc 9922   4.256   1.641   1.000
    1SIL  O01nd 9923   4.069   1.588   1.182
    1SIL  O01ne 9924   4.315   1.392   1.053
    1SIL  O01nf 9925   4.501   1.338   1.234
    1SIL  O01ng 9926   4.454   1.527   1.415
    1SIL  Si0tr 9927   4.062   1.929   0.936
    1SIL  Si0ts 9928   3.817   1.902   1.298
    1SIL  Si0tt 9929   4.162   1.703   1.117
    1SIL  O01nh 9930   3.963   1.879   1.363
    1SIL  O01ni 9931   4.010   2.067   1.000
    1SIL  O01nj 9932   3.823   2.014   1.182
    1SIL  O01nk 9933   4.069   1.817   1.053
    1SIL  O01nl 9934   4.256   1.764   1.234
    1SIL  O01nm 9935   4.208   1.952   1.415
    1SIL  Si0tu 9936   3.817   2.354   0.936
    1SIL  Si0tv 9937   3.571   2.328   1.298
    1SIL  Si0tw 9938   3.917   2.128   1.117
    1SIL  O01nn 9939   3.717   2.304   1.363
    1SIL  O01no 9940   3.764   2.493   1.000
    1SIL  O01np 9941   3.577   2.439   1.182
    1SIL  O01nq 9942   3.823   2.243   1.053
    1SIL  O01nr 9943   4.010   2.190   1.234
    1SIL  O01ns 9944   3.963   2.378   1.415
    1SIL  Si0tx 9945   3.571   2.780   0.936
    1SIL  Si0ty 9946   3.325   2.753   1.298
    1SIL  Si0tz 9947   3.671   2.554   1.117
    1SIL  O01nt 9948   3.471   2.730   1.363
    1SIL  O01nu 9949   3.518   2.918   1.000
    1SIL  O01nv 9950   3.332   2.865   1.182
    1SIL  O01nw 9951   3.577   2.668   1.053
    1SIL  O01nx 9952   3.764   2.615   1.234
    1SIL  O01ny 9953   3.717   2.804   1.415
    1SIL  Si0u0 9954   3.325   3.206   0.936
    1SIL  Si0u1 9955   3.079   3.179   1.298
    1SIL  Si0u2 9956   3.425   2.980   1.117
    1SIL  O01nz 9957   3.225   3.156   1.363
    1SIL  O01o0 9958   3.273   3.344   1.000
    1SIL  O01o1 9959   3.086   3.291   1.182
    1SIL  O01o2 9960   3.332   3.094   1.053
    1SIL  O01o3 9961   3.518   3.041   1.234
    1SIL  O01o4 9962   3.471   3.229   1.415
    1SIL  Si0u3 9963   3.079   3.631   0.936
    1SIL  Si0u4 9964   2.834   3.605   1.298
    1SIL  Si0u5 9965   3.179   3.405   1.117
    1SIL  O01o5 9966   2.980   3.581   1.363
    1SIL  O01o6 9967   3.027   3.769   1.000
    1SIL  O01o7 9968   2.840   3.716   1.182
    1SIL  O01o8 9969   3.086   3.520   1.053
    1SIL  O01o9 9970   3.273   3.467   1.234
    1SIL  O01oA 9971   3.225   3.655   1.415
    1SIL  Si0u6 9972   2.834   4.057   0.936
    1SIL  Si0u7 9973   2.588   4.030   1.298
    1SIL  Si0u8 9974   2.934   3.831   1.117
    1SIL  O01oB 9975   2.734   4.007   1.363
    1SIL  O01oC 9976   2.781   4.195   1.000
    1SIL  O01oD 9977   2.595   4.142   1.182
    1SIL  O01oE 9978   2.840   3.945   1.053
    1SIL  O01oF 9979   3.027   3.892   1.234
    1SIL  O01oG 9980   2.980   4.081   1.415
    1SIL  Si0u9 9981   2.588   4.483   0.936
    1SIL  Si0uA 9982   2.342   4.456   1.298
    1SIL  Si0uB 9983   2.688   4.256   1.117
    1SIL  O01oH 9984   2.488   4.432   1.363
    1SIL  O01oI 9985   2.535   4.621   1.000
    1SIL  O01oJ 9986   2.349   4.568   1.182
    1SIL  O01oK 9987   2.595   4.371   1.053
    1SIL  O01oL 9988   2.781   4.318   1.234
    1SIL  O01oM 9989   2.734   4.506   1.415
    1SIL  Si0uC 9990   2.342   4.908   0.936
    1SIL  Si0uD 9991   2.097   4.882   1.298
    1SIL  Si0uE 9992   2.442   4.682   1.117
    1SIL  O01oN 9993   2.242   4.858   1.363
    1SIL  O01oO 9994   2.290   5.046   1.000
    1SIL  O01oP 9995   2.103   4.993   1.182
    1SIL  O01oQ 9996   2.349   4.797   1.053
    1SIL  O01oR 9997   2.535   4.744   1.234
    1SIL  O01oS 9998   2.488   4.932   1.415
    1SIL  Si0uF 9999   2.097   5.334   0.936
    1SIL  Si0uG10000   1.851   5.307   1.298
    1SIL  Si0uH10001   2.196   5.108   1.117
    1SIL  O01oT10002   1.997   5.284   1.363
    1SIL  O01oU10003   2.044   5.472   1.000
    1SIL  O01oV10004   1.857   5.419   1.182
    1SIL  O01oW10005   2.103   5.222   1.053
    1SIL  O01oX10006   2.290   5.169   1.234
    1SIL  O01oY10007   2.242   5.357   1.415
    1SIL  Si0uI10008   1.851   5.759   0.936
    1SIL  Si0uJ10009   1.605   5.733   1.298
    1SIL  Si0uK10010   1.951   5.533   1.117
    1SIL  O01oZ10011   1.751   5.709   1.363
    1SIL  O01oa10012   1.798   5.898   1.000
    1SIL  O01ob10013   1.612   5.844   1.182
    1SIL  O01oc10014   1.857   5.648   1.053
    1SIL  O01od10015   2.044   5.595   1.234
    1SIL  O01oe10016   1.997   5.783   1.415
    1SIL  Si0uL10017   1.605   6.185   0.936
    1SIL  Si0uM10018   1.359   6.159   1.298
    1SIL  Si0uN10019   1.705   5.959   1.117
    1SIL  O01of10020   1.505   6.135   1.363
    1SIL  O01og10021   1.552   6.323   1.000
    1SIL  O01oh10022   1.366   6.270   1.182
    1SIL  O01oi10023   1.612   6.074   1.053
    1SIL  O01oj10024   1.798   6.020   1.234
    1SIL  O01ok10025   1.751   6.209   1.415
    1SIL  Si0uO10026   1.359   6.611   0.936
    1SIL  Si0uP10027   1.114   6.584   1.298
    1SIL  Si0uQ10028   1.459   6.385   1.117
    1SIL  O01ol10029   1.259   6.561   1.363
    1SIL  O01om10030   1.307   6.749   1.000
    1SIL  O01on10031   1.120   6.696   1.182
    1SIL  O01oo10032   1.366   6.499   1.053
    1SIL  O01op10033   1.552   6.446   1.234
    1SIL  O01oq10034   1.505   6.634   1.415
    1SIL  Si0uR10035   1.114   7.036   0.936
    1SIL  Si0uS10036   0.868   7.010   1.298
    1SIL  Si0uT10037   1.213   6.810   1.117
    1SIL  O01or10038   1.014   6.986   1.363
    1SIL  O01os10039   1.061   7.175   1.000
    1SIL  O01ot10040   0.874   7.121   1.182
    1SIL  O01ou10041   1.120   6.925   1.053
    1SIL  O01ov10042   1.307   6.872   1.234
    1SIL  O01ow10043   1.259   7.060   1.415
    1SIL  Si0uU10044   0.868   7.462   0.936
    1SIL  Si0uV10045   0.622   7.436   1.298
    1SIL  Si0uW10046   0.968   7.236   1.117
    1SIL  O01ox10047   0.768   7.412   1.363
    1SIL  O01oy10048   0.815   7.600   1.000
    1SIL  O01oz10049   0.629   7.547   1.182
    1SIL  O01p010050   0.874   7.351   1.053
    1SIL  O01p110051   1.061   7.297   1.234
    1SIL  O01p210052   1.014   7.486   1.415
    1SIL  Si0uX10053   0.622   7.888   0.936
    1SIL  Si0uY10054   0.376   7.861   1.298
    1SIL  Si0uZ10055   0.722   7.662   1.117
    1SIL  O01p310056   0.522   7.838   1.363
    1SIL  O01p410057   0.569   8.026   1.000
    1SIL  O01p510058   0.383   7.973   1.182
    1SIL  O01p610059   0.629   7.776   1.053
    1SIL  O01p710060   0.815   7.723   1.234
    1SIL  O01p810061   0.768   7.911   1.415
    1SIL  Si0ua10062   0.376   8.313   0.936
    1SIL  Si0ub10063   0.131   8.287   1.298
    1SIL  Si0uc10064   0.476   8.087   1.117
    1SIL  O01p910065   0.276   8.263   1.363
    1SIL  O01pA10066   0.324   8.452   1.000
    1SIL  O01pB10067   0.137   8.398   1.182
    1SIL  O01pC10068   0.383   8.202   1.053
    1SIL  O01pD10069   0.569   8.149   1.234
    1SIL  O01pE10070   0.522   8.337   1.415
    1SIL  Si0ud10071   0.131   8.739   0.936
    1SIL  Si0ue10072   9.715   8.713   1.298
    1SIL  Si0uf10073   0.230   8.513   1.117
    1SIL  O01pF10074   0.031   8.689   1.363
    1SIL  O01pG10075   0.078   8.877   1.000
    1SIL  O01pH10076   9.721   8.824   1.182
    1SIL  O01pI10077   0.137   8.628   1.053
    1SIL  O01pJ10078   0.324   8.574   1.234
    1SIL  O01pK10079   0.276   8.763   1.415
    1SIL  Si0ug10080   9.715   9.165   0.936
    1SIL  Si0uh10081   9.469   9.138   1.298
    1SIL  Si0ui10082   9.815   8.939   1.117
    1SIL  O01pL10083   9.615   9.115   1.363
    1SIL  O01pM10084   9.662   9.303   1.000
    1SIL  O01pN10085   9.475   9.250   1.182
    1SIL  O01pO10086   9.721   9.053   1.053
    1SIL  O01pP10087   0.078   9.000   1.234
    1SIL  O01pQ10088   0.031   9.188   1.415
    1SIL  Si0uj10089   9.469   9.590   0.936
    1SIL  Si0uk10090   9.223   9.564   1.298
    1SIL  Si0ul10091   9.569   9.364   1.117
    1SIL  O01pR10092   9.369   9.540   1.363
    1SIL  O01pS10093   9.416   9.729   1.000
    1SIL  O01pT10094   9.230   9.675   1.182
    1SIL  O01pU10095   9.475   9.479   1.053
    1SIL  O01pV10096   9.662   9.426   1.234
    1SIL  O01pW10097   9.615   9.614   1.415
    1SIL  Si0um10098   5.537   0.226   0.936
    1SIL  Si0un10099   5.291   0.200   1.298
    1SIL  Si0uo10100   5.637   0.000   1.117
    1SIL  O01pX10101   5.437   0.176   1.363
    1SIL  O01pY10102   5.484   0.364   1.000
    1SIL  O01pZ10103   5.298   0.311   1.182
    1SIL  O01pa10104   5.543   0.115   1.053
    1SIL  O01pb10105   5.730   0.061   1.234
    1SIL  O01pc10106   5.683   0.250   1.415
    1SIL  Si0up10107   5.291   0.652   0.936
    1SIL  Si0uq10108   5.045   0.625   1.298
    1SIL  Si0ur10109   5.391   0.426   1.117
    1SIL  O01pd10110   5.191   0.602   1.363
    1SIL  O01pe10111   5.239   0.790   1.000
    1SIL  O01pf10112   5.052   0.737   1.182
    1SIL  O01pg10113   5.298   0.540   1.053
    1SIL  O01ph10114   5.484   0.487   1.234
    1SIL  O01pi10115   5.437   0.675   1.415
    1SIL  Si0us10116   5.045   1.077   0.936
    1SIL  Si0ut10117   4.800   1.051   1.298
    1SIL  Si0uu10118   5.145   0.851   1.117
    1SIL  O01pj10119   4.946   1.027   1.363
    1SIL  O01pk10120   4.993   1.216   1.000
    1SIL  O01pl10121   4.806   1.162   1.182
    1SIL  O01pm10122   5.052   0.966   1.053
    1SIL  O01pn10123   5.239   0.913   1.234
    1SIL  O01po10124   5.191   1.101   1.415
    1SIL  Si0uv10125   4.800   1.503   0.936
    1SIL  Si0uw10126   4.554   1.477   1.298
    1SIL  Si0ux10127   4.900   1.277   1.117
    1SIL  O01pp10128   4.700   1.453   1.363
    1SIL  O01pq10129   4.747   1.641   1.000
    1SIL  O01pr10130   4.560   1.588   1.182
    1SIL  O01ps10131   4.806   1.392   1.053
    1SIL  O01pt10132   4.993   1.338   1.234
    1SIL  O01pu10133   4.946   1.527   1.415
    1SIL  Si0uy10134   4.554   1.929   0.936
    1SIL  Si0uz10135   4.308   1.902   1.298
    1SIL  Si0v010136   4.654   1.703   1.117
    1SIL  O01pv10137   4.454   1.879   1.363
    1SIL  O01pw10138   4.501   2.067   1.000
    1SIL  O01px10139   4.315   2.014   1.182
    1SIL  O01py10140   4.560   1.817   1.053
    1SIL  O01pz10141   4.747   1.764   1.234
    1SIL  O01q010142   4.700   1.952   1.415
    1SIL  Si0v110143   4.308   2.354   0.936
    1SIL  Si0v210144   4.062   2.328   1.298
    1SIL  Si0v310145   4.408   2.128   1.117
    1SIL  O01q110146   4.208   2.304   1.363
    1SIL  O01q210147   4.256   2.493   1.000
    1SIL  O01q310148   4.069   2.439   1.182
    1SIL  O01q410149   4.315   2.243   1.053
    1SIL  O01q510150   4.501   2.190   1.234
    1SIL  O01q610151   4.454   2.378   1.415
    1SIL  Si0v410152   4.062   2.780   0.936
    1SIL  Si0v510153   3.817   2.753   1.298
    1SIL  Si0v610154   4.162   2.554   1.117
    1SIL  O01q710155   3.963   2.730   1.363
    1SIL  O01q810156   4.010   2.918   1.000
    1SIL  O01q910157   3.823   2.865   1.182
    1SIL  O01qA10158   4.069   2.668   1.053
    1SIL  O01qB10159   4.256   2.615   1.234
    1SIL  O01qC10160   4.208   2.804   1.415
    1SIL  Si0v710161   3.817   3.206   0.936
    1SIL  Si0v810162   3.571   3.179   1.298
    1SIL  Si0v910163   3.917   2.980   1.117
    1SIL  O01qD10164   3.717   3.156   1.363
    1SIL  O01qE10165   3.764   3.344   1.000
    1SIL  O01qF10166   3.577   3.291   1.182
    1SIL  O01qG10167   3.823   3.094   1.053
    1SIL  O01qH10168   4.010   3.041   1.234
    1SIL  O01qI10169   3.963   3.229   1.415
    1SIL  Si0vA10170   3.571   3.631   0.936
    1SIL  Si0vB10171   3.325   3.605   1.298
    1SIL  Si0vC10172   3.671   3.405   1.117
    1SIL  O01qJ10173   3.471   3.581   1.363
    1SIL  O01qK10174   3.518   3.769   1.000
    1SIL  O01qL10175   3.332   3.716   1.182
    1SIL  O01qM10176   3.577   3.520   1.053
    1SIL  O01qN10177   3.764   3.467   1.234
    1SIL  O01qO10178   3.717   3.655   1.415
    1SIL  Si0vD10179   3.325   4.057   0.936
    1SIL  Si0vE10180   3.079   4.030   1.298
    1SIL  Si0vF10181   3.425   3.831   1.117
    1SIL  O01qP10182   3.225   4.007   1.363
    1SIL  O01qQ10183   3.273   4.195   1.000
    1SIL  O01qR10184   3.086   4.142   1.182
    1SIL  O01qS10185   3.332   3.945   1.053
    1SIL  O01qT10186   3.518   3.892   1.234
    1SIL  O01qU10187   3.471   4.081   1.415
    1SIL  Si0vG10188   3.079   4.483   0.936
    1SIL  Si0vH10189   2.834   4.456   1.298
    1SIL  Si0vI10190   3.179   4.256   1.117
    1SIL  O01qV10191   2.980   4.432   1.363
    1SIL  O01qW10192   3.027   4.621   1.000
    1SIL  O01qX10193   2.840   4.568   1.182
    1SIL  O01qY10194   3.086   4.371   1.053
    1SIL  O01qZ10195   3.273   4.318   1.234
    1SIL  O01qa10196   3.225   4.506   1.415
    1SIL  Si0vJ10197   2.834   4.908   0.936
    1SIL  Si0vK10198   2.588   4.882   1.298
    1SIL  Si0vL10199   2.934   4.682   1.117
    1SIL  O01qb10200   2.734   4.858   1.363
    1SIL  O01qc10201   2.781   5.046   1.000
    1SIL  O01qd10202   2.595   4.993   1.182
    1SIL  O01qe10203   2.840   4.797   1.053
    1SIL  O01qf10204   3.027   4.744   1.234
    1SIL  O01qg10205   2.980   4.932   1.415
    1SIL  Si0vM10206   2.588   5.334   0.936
    1SIL  Si0vN10207   2.342   5.307   1.298
    1SIL  Si0vO10208   2.688   5.108   1.117
    1SIL  O01qh10209   2.488   5.284   1.363
    1SIL  O01qi10210   2.535   5.472   1.000
    1SIL  O01qj10211   2.349   5.419   1.182
    1SIL  O01qk10212   2.595   5.222   1.053
    1SIL  O01ql10213   2.781   5.169   1.234
    1SIL  O01qm10214   2.734   5.357   1.415
    1SIL  Si0vP10215   2.342   5.759   0.936
    1SIL  Si0vQ10216   2.097   5.733   1.298
    1SIL  Si0vR10217   2.442   5.533   1.117
    1SIL  O01qn10218   2.242   5.709   1.363
    1SIL  O01qo10219   2.290   5.898   1.000
    1SIL  O01qp10220   2.103   5.844   1.182
    1SIL  O01qq10221   2.349   5.648   1.053
    1SIL  O01qr10222   2.535   5.595   1.234
    1SIL  O01qs10223   2.488   5.783   1.415
    1SIL  Si0vS10224   2.097   6.185   0.936
    1SIL  Si0vT10225   1.851   6.159   1.298
    1SIL  Si0vU10226   2.196   5.959   1.117
    1SIL  O01qt10227   1.997   6.135   1.363
    1SIL  O01qu10228   2.044   6.323   1.000
    1SIL  O01qv10229   1.857   6.270   1.182
    1SIL  O01qw10230   2.103   6.074   1.053
    1SIL  O01qx10231   2.290   6.020   1.234
    1SIL  O01qy10232   2.242   6.209   1.415
    1SIL  Si0vV10233   1.851   6.611   0.936
    1SIL  Si0vW10234   1.605   6.584   1.298
    1SIL  Si0vX10235   1.951   6.385   1.117
    1SIL  O01qz10236   1.751   6.561   1.363
    1SIL  O01r010237   1.798   6.749   1.000
    1SIL  O01r110238   1.612   6.696   1.182
    1SIL  O01r210239   1.857   6.499   1.053
    1SIL  O01r310240   2.044   6.446   1.234
    1SIL  O01r410241   1.997   6.634   1.415
    1SIL  Si0vY10242   1.605   7.036   0.936
    1SIL  Si0vZ10243   1.359   7.010   1.298
    1SIL  Si0va10244   1.705   6.810   1.117
    1SIL  O01r510245   1.505   6.986   1.363
    1SIL  O01r610246   1.552   7.175   1.000
    1SIL  O01r710247   1.366   7.121   1.182
    1SIL  O01r810248   1.612   6.925   1.053
    1SIL  O01r910249   1.798   6.872   1.234
    1SIL  O01rA10250   1.751   7.060   1.415
    1SIL  Si0vb10251   1.359   7.462   0.936
    1SIL  Si0vc10252   1.114   7.436   1.298
    1SIL  Si0vd10253   1.459   7.236   1.117
    1SIL  O01rB10254   1.259   7.412   1.363
    1SIL  O01rC10255   1.307   7.600   1.000
    1SIL  O01rD10256   1.120   7.547   1.182
    1SIL  O01rE10257   1.366   7.351   1.053
    1SIL  O01rF10258   1.552   7.297   1.234
    1SIL  O01rG10259   1.505   7.486   1.415
    1SIL  Si0ve10260   1.114   7.888   0.936
    1SIL  Si0vf10261   0.868   7.861   1.298
    1SIL  Si0vg10262   1.213   7.662   1.117
    1SIL  O01rH10263   1.014   7.838   1.363
    1SIL  O01rI10264   1.061   8.026   1.000
    1SIL  O01rJ10265   0.874   7.973   1.182
    1SIL  O01rK10266   1.120   7.776   1.053
    1SIL  O01rL10267   1.307   7.723   1.234
    1SIL  O01rM10268   1.259   7.911   1.415
    1SIL  Si0vh10269   0.868   8.313   0.936
    1SIL  Si0vi10270   0.622   8.287   1.298
    1SIL  Si0vj10271   0.968   8.087   1.117
    1SIL  O01rN10272   0.768   8.263   1.363
    1SIL  O01rO10273   0.815   8.452   1.000
    1SIL  O01rP10274   0.629   8.398   1.182
    1SIL  O01rQ10275   0.874   8.202   1.053
    1SIL  O01rR10276   1.061   8.149   1.234
    1SIL  O01rS10277   1.014   8.337   1.415
    1SIL  Si0vk10278   0.622   8.739   0.936
    1SIL  Si0vl10279   0.376   8.713   1.298
    1SIL  Si0vm10280   0.722   8.513   1.117
    1SIL  O01rT10281   0.522   8.689   1.363
    1SIL  O01rU10282   0.569   8.877   1.000
    1SIL  O01rV10283   0.383   8.824   1.182
    1SIL  O01rW10284   0.629   8.628   1.053
    1SIL  O01rX10285   0.815   8.574   1.234
    1SIL  O01rY10286   0.768   8.763   1.415
    1SIL  Si0vn10287   0.376   9.165   0.936
    1SIL  Si0vo10288   0.131   9.138   1.298
    1SIL  Si0vp10289   0.476   8.939   1.117
    1SIL  O01rZ10290   0.276   9.115   1.363
    1SIL  O01ra10291   0.324   9.303   1.000
    1SIL  O01rb10292   0.137   9.250   1.182
    1SIL  O01rc10293   0.383   9.053   1.053
    1SIL  O01rd10294   0.569   9.000   1.234
    1SIL  O01re10295   0.522   9.188   1.415
    1SIL  Si0vq10296   0.131   9.590   0.936
    1SIL  Si0vr10297   9.715   9.564   1.298
    1SIL  Si0vs10298   0.230   9.364   1.117
    1SIL  O01rf10299   0.031   9.540   1.363
    1SIL  O01rg10300   0.078   9.729   1.000
    1SIL  O01rh10301   9.721   9.675   1.182
    1SIL  O01ri10302   0.137   9.479   1.053
    1SIL  O01rj10303   0.324   9.426   1.234
    1SIL  O01rk10304   0.276   9.614   1.415
    1SIL  Si0vt10305   6.028   0.226   0.936
    1SIL  Si0vu10306   5.783   0.200   1.298
    1SIL  Si0vv10307   6.128   0.000   1.117
    1SIL  O01rl10308   5.929   0.176   1.363
    1SIL  O01rm10309   5.976   0.364   1.000
    1SIL  O01rn10310   5.789   0.311   1.182
    1SIL  O01ro10311   6.035   0.115   1.053
    1SIL  O01rp10312   6.222   0.061   1.234
    1SIL  O01rq10313   6.174   0.250   1.415
    1SIL  Si0vw10314   5.783   0.652   0.936
    1SIL  Si0vx10315   5.537   0.625   1.298
    1SIL  Si0vy10316   5.883   0.426   1.117
    1SIL  O01rr10317   5.683   0.602   1.363
    1SIL  O01rs10318   5.730   0.790   1.000
    1SIL  O01rt10319   5.543   0.737   1.182
    1SIL  O01ru10320   5.789   0.540   1.053
    1SIL  O01rv10321   5.976   0.487   1.234
    1SIL  O01rw10322   5.929   0.675   1.415
    1SIL  Si0vz10323   5.537   1.077   0.936
    1SIL  Si0w010324   5.291   1.051   1.298
    1SIL  Si0w110325   5.637   0.851   1.117
    1SIL  O01rx10326   5.437   1.027   1.363
    1SIL  O01ry10327   5.484   1.216   1.000
    1SIL  O01rz10328   5.298   1.162   1.182
    1SIL  O01s010329   5.543   0.966   1.053
    1SIL  O01s110330   5.730   0.913   1.234
    1SIL  O01s210331   5.683   1.101   1.415
    1SIL  Si0w210332   5.291   1.503   0.936
    1SIL  Si0w310333   5.045   1.477   1.298
    1SIL  Si0w410334   5.391   1.277   1.117
    1SIL  O01s310335   5.191   1.453   1.363
    1SIL  O01s410336   5.239   1.641   1.000
    1SIL  O01s510337   5.052   1.588   1.182
    1SIL  O01s610338   5.298   1.392   1.053
    1SIL  O01s710339   5.484   1.338   1.234
    1SIL  O01s810340   5.437   1.527   1.415
    1SIL  Si0w510341   5.045   1.929   0.936
    1SIL  Si0w610342   4.800   1.902   1.298
    1SIL  Si0w710343   5.145   1.703   1.117
    1SIL  O01s910344   4.946   1.879   1.363
    1SIL  O01sA10345   4.993   2.067   1.000
    1SIL  O01sB10346   4.806   2.014   1.182
    1SIL  O01sC10347   5.052   1.817   1.053
    1SIL  O01sD10348   5.239   1.764   1.234
    1SIL  O01sE10349   5.191   1.952   1.415
    1SIL  Si0w810350   4.800   2.354   0.936
    1SIL  Si0w910351   4.554   2.328   1.298
    1SIL  Si0wA10352   4.900   2.128   1.117
    1SIL  O01sF10353   4.700   2.304   1.363
    1SIL  O01sG10354   4.747   2.493   1.000
    1SIL  O01sH10355   4.560   2.439   1.182
    1SIL  O01sI10356   4.806   2.243   1.053
    1SIL  O01sJ10357   4.993   2.190   1.234
    1SIL  O01sK10358   4.946   2.378   1.415
    1SIL  Si0wB10359   4.554   2.780   0.936
    1SIL  Si0wC10360   4.308   2.753   1.298
    1SIL  Si0wD10361   4.654   2.554   1.117
    1SIL  O01sL10362   4.454   2.730   1.363
    1SIL  O01sM10363   4.501   2.918   1.000
    1SIL  O01sN10364   4.315   2.865   1.182
    1SIL  O01sO10365   4.560   2.668   1.053
    1SIL  O01sP10366   4.747   2.615   1.234
    1SIL  O01sQ10367   4.700   2.804   1.415
    1SIL  Si0wE10368   4.308   3.206   0.936
    1SIL  Si0wF10369   4.062   3.179   1.298
    1SIL  Si0wG10370   4.408   2.980   1.117
    1SIL  O01sR10371   4.208   3.156   1.363
    1SIL  O01sS10372   4.256   3.344   1.000
    1SIL  O01sT10373   4.069   3.291   1.182
    1SIL  O01sU10374   4.315   3.094   1.053
    1SIL  O01sV10375   4.501   3.041   1.234
    1SIL  O01sW10376   4.454   3.229   1.415
    1SIL  Si0wH10377   4.062   3.631   0.936
    1SIL  Si0wI10378   3.817   3.605   1.298
    1SIL  Si0wJ10379   4.162   3.405   1.117
    1SIL  O01sX10380   3.963   3.581   1.363
    1SIL  O01sY10381   4.010   3.769   1.000
    1SIL  O01sZ10382   3.823   3.716   1.182
    1SIL  O01sa10383   4.069   3.520   1.053
    1SIL  O01sb10384   4.256   3.467   1.234
    1SIL  O01sc10385   4.208   3.655   1.415
    1SIL  Si0wK10386   3.817   4.057   0.936
    1SIL  Si0wL10387   3.571   4.030   1.298
    1SIL  Si0wM10388   3.917   3.831   1.117
    1SIL  O01sd10389   3.717   4.007   1.363
    1SIL  O01se10390   3.764   4.195   1.000
    1SIL  O01sf10391   3.577   4.142   1.182
    1SIL  O01sg10392   3.823   3.945   1.053
    1SIL  O01sh10393   4.010   3.892   1.234
    1SIL  O01si10394   3.963   4.081   1.415
    1SIL  Si0wN10395   3.571   4.483   0.936
    1SIL  Si0wO10396   3.325   4.456   1.298
    1SIL  Si0wP10397   3.671   4.256   1.117
    1SIL  O01sj10398   3.471   4.432   1.363
    1SIL  O01sk10399   3.518   4.621   1.000
    1SIL  O01sl10400   3.332   4.568   1.182
    1SIL  O01sm10401   3.577   4.371   1.053
    1SIL  O01sn10402   3.764   4.318   1.234
    1SIL  O01so10403   3.717   4.506   1.415
    1SIL  Si0wQ10404   3.325   4.908   0.936
    1SIL  Si0wR10405   3.079   4.882   1.298
    1SIL  Si0wS10406   3.425   4.682   1.117
    1SIL  O01sp10407   3.225   4.858   1.363
    1SIL  O01sq10408   3.273   5.046   1.000
    1SIL  O01sr10409   3.086   4.993   1.182
    1SIL  O01ss10410   3.332   4.797   1.053
    1SIL  O01st10411   3.518   4.744   1.234
    1SIL  O01su10412   3.471   4.932   1.415
    1SIL  Si0wT10413   3.079   5.334   0.936
    1SIL  Si0wU10414   2.834   5.307   1.298
    1SIL  Si0wV10415   3.179   5.108   1.117
    1SIL  O01sv10416   2.980   5.284   1.363
    1SIL  O01sw10417   3.027   5.472   1.000
    1SIL  O01sx10418   2.840   5.419   1.182
    1SIL  O01sy10419   3.086   5.222   1.053
    1SIL  O01sz10420   3.273   5.169   1.234
    1SIL  O01t010421   3.225   5.357   1.415
    1SIL  Si0wW10422   2.834   5.759   0.936
    1SIL  Si0wX10423   2.588   5.733   1.298
    1SIL  Si0wY10424   2.934   5.533   1.117
    1SIL  O01t110425   2.734   5.709   1.363
    1SIL  O01t210426   2.781   5.898   1.000
    1SIL  O01t310427   2.595   5.844   1.182
    1SIL  O01t410428   2.840   5.648   1.053
    1SIL  O01t510429   3.027   5.595   1.234
    1SIL  O01t610430   2.980   5.783   1.415
    1SIL  Si0wZ10431   2.588   6.185   0.936
    1SIL  Si0wa10432   2.342   6.159   1.298
    1SIL  Si0wb10433   2.688   5.959   1.117
    1SIL  O01t710434   2.488   6.135   1.363
    1SIL  O01t810435   2.535   6.323   1.000
    1SIL  O01t910436   2.349   6.270   1.182
    1SIL  O01tA10437   2.595   6.074   1.053
    1SIL  O01tB10438   2.781   6.020   1.234
    1SIL  O01tC10439   2.734   6.209   1.415
    1SIL  Si0wc10440   2.342   6.611   0.936
    1SIL  Si0wd10441   2.097   6.584   1.298
    1SIL  Si0we10442   2.442   6.385   1.117
    1SIL  O01tD10443   2.242   6.561   1.363
    1SIL  O01tE10444   2.290   6.749   1.000
    1SIL  O01tF10445   2.103   6.696   1.182
    1SIL  O01tG10446   2.349   6.499   1.053
    1SIL  O01tH10447   2.535   6.446   1.234
    1SIL  O01tI10448   2.488   6.634   1.415
    1SIL  Si0wf10449   2.097   7.036   0.936
    1SIL  Si0wg10450   1.851   7.010   1.298
    1SIL  Si0wh10451   2.196   6.810   1.117
    1SIL  O01tJ10452   1.997   6.986   1.363
    1SIL  O01tK10453   2.044   7.175   1.000
    1SIL  O01tL10454   1.857   7.121   1.182
    1SIL  O01tM10455   2.103   6.925   1.053
    1SIL  O01tN10456   2.290   6.872   1.234
    1SIL  O01tO10457   2.242   7.060   1.415
    1SIL  Si0wi10458   1.851   7.462   0.936
    1SIL  Si0wj10459   1.605   7.436   1.298
    1SIL  Si0wk10460   1.951   7.236   1.117
    1SIL  O01tP10461   1.751   7.412   1.363
    1SIL  O01tQ10462   1.798   7.600   1.000
    1SIL  O01tR10463   1.612   7.547   1.182
    1SIL  O01tS10464   1.857   7.351   1.053
    1SIL  O01tT10465   2.044   7.297   1.234
    1SIL  O01tU10466   1.997   7.486   1.415
    1SIL  Si0wl10467   1.605   7.888   0.936
    1SIL  Si0wm10468   1.359   7.861   1.298
    1SIL  Si0wn10469   1.705   7.662   1.117
    1SIL  O01tV10470   1.505   7.838   1.363
    1SIL  O01tW10471   1.552   8.026   1.000
    1SIL  O01tX10472   1.366   7.973   1.182
    1SIL  O01tY10473   1.612   7.776   1.053
    1SIL  O01tZ10474   1.798   7.723   1.234
    1SIL  O01ta10475   1.751   7.911   1.415
    1SIL  Si0wo10476   1.359   8.313   0.936
    1SIL  Si0wp10477   1.114   8.287   1.298
    1SIL  Si0wq10478   1.459   8.087   1.117
    1SIL  O01tb10479   1.259   8.263   1.363
    1SIL  O01tc10480   1.307   8.452   1.000
    1SIL  O01td10481   1.120   8.398   1.182
    1SIL  O01te10482   1.366   8.202   1.053
    1SIL  O01tf10483   1.552   8.149   1.234
    1SIL  O01tg10484   1.505   8.337   1.415
    1SIL  Si0wr10485   1.114   8.739   0.936
    1SIL  Si0ws10486   0.868   8.713   1.298
    1SIL  Si0wt10487   1.213   8.513   1.117
    1SIL  O01th10488   1.014   8.689   1.363
    1SIL  O01ti10489   1.061   8.877   1.000
    1SIL  O01tj10490   0.874   8.824   1.182
    1SIL  O01tk10491   1.120   8.628   1.053
    1SIL  O01tl10492   1.307   8.574   1.234
    1SIL  O01tm10493   1.259   8.763   1.415
    1SIL  Si0wu10494   0.868   9.165   0.936
    1SIL  Si0wv10495   0.622   9.138   1.298
    1SIL  Si0ww10496   0.968   8.939   1.117
    1SIL  O01tn10497   0.768   9.115   1.363
    1SIL  O01to10498   0.815   9.303   1.000
    1SIL  O01tp10499   0.629   9.250   1.182
    1SIL  O01tq10500   0.874   9.053   1.053
    1SIL  O01tr10501   1.061   9.000   1.234
    1SIL  O01ts10502   1.014   9.188   1.415
    1SIL  Si0wx10503   0.622   9.590   0.936
    1SIL  Si0wy10504   0.376   9.564   1.298
    1SIL  Si0wz10505   0.722   9.364   1.117
    1SIL  O01tt10506   0.522   9.540   1.363
    1SIL  O01tu10507   0.569   9.729   1.000
    1SIL  O01tv10508   0.383   9.675   1.182
    1SIL  O01tw10509   0.629   9.479   1.053
    1SIL  O01tx10510   0.815   9.426   1.234
    1SIL  O01ty10511   0.768   9.614   1.415
    1SIL  Si0x010512   6.520   0.226   0.936
    1SIL  Si0x110513   6.274   0.200   1.298
    1SIL  Si0x210514   6.620   0.000   1.117
    1SIL  O01tz10515   6.420   0.176   1.363
    1SIL  O01u010516   6.467   0.364   1.000
    1SIL  O01u110517   6.281   0.311   1.182
    1SIL  O01u210518   6.526   0.115   1.053
    1SIL  O01u310519   6.713   0.061   1.234
    1SIL  O01u410520   6.666   0.250   1.415
    1SIL  Si0x310521   6.274   0.652   0.936
    1SIL  Si0x410522   6.028   0.625   1.298
    1SIL  Si0x510523   6.374   0.426   1.117
    1SIL  O01u510524   6.174   0.602   1.363
    1SIL  O01u610525   6.222   0.790   1.000
    1SIL  O01u710526   6.035   0.737   1.182
    1SIL  O01u810527   6.281   0.540   1.053
    1SIL  O01u910528   6.467   0.487   1.234
    1SIL  O01uA10529   6.420   0.675   1.415
    1SIL  Si0x610530   6.028   1.077   0.936
    1SIL  Si0x710531   5.783   1.051   1.298
    1SIL  Si0x810532   6.128   0.851   1.117
    1SIL  O01uB10533   5.929   1.027   1.363
    1SIL  O01uC10534   5.976   1.216   1.000
    1SIL  O01uD10535   5.789   1.162   1.182
    1SIL  O01uE10536   6.035   0.966   1.053
    1SIL  O01uF10537   6.222   0.913   1.234
    1SIL  O01uG10538   6.174   1.101   1.415
    1SIL  Si0x910539   5.783   1.503   0.936
    1SIL  Si0xA10540   5.537   1.477   1.298
    1SIL  Si0xB10541   5.883   1.277   1.117
    1SIL  O01uH10542   5.683   1.453   1.363
    1SIL  O01uI10543   5.730   1.641   1.000
    1SIL  O01uJ10544   5.543   1.588   1.182
    1SIL  O01uK10545   5.789   1.392   1.053
    1SIL  O01uL10546   5.976   1.338   1.234
    1SIL  O01uM10547   5.929   1.527   1.415
    1SIL  Si0xC10548   5.537   1.929   0.936
    1SIL  Si0xD10549   5.291   1.902   1.298
    1SIL  Si0xE10550   5.637   1.703   1.117
    1SIL  O01uN10551   5.437   1.879   1.363
    1SIL  O01uO10552   5.484   2.067   1.000
    1SIL  O01uP10553   5.298   2.014   1.182
    1SIL  O01uQ10554   5.543   1.817   1.053
    1SIL  O01uR10555   5.730   1.764   1.234
    1SIL  O01uS10556   5.683   1.952   1.415
    1SIL  Si0xF10557   5.291   2.354   0.936
    1SIL  Si0xG10558   5.045   2.328   1.298
    1SIL  Si0xH10559   5.391   2.128   1.117
    1SIL  O01uT10560   5.191   2.304   1.363
    1SIL  O01uU10561   5.239   2.493   1.000
    1SIL  O01uV10562   5.052   2.439   1.182
    1SIL  O01uW10563   5.298   2.243   1.053
    1SIL  O01uX10564   5.484   2.190   1.234
    1SIL  O01uY10565   5.437   2.378   1.415
    1SIL  Si0xI10566   5.045   2.780   0.936
    1SIL  Si0xJ10567   4.800   2.753   1.298
    1SIL  Si0xK10568   5.145   2.554   1.117
    1SIL  O01uZ10569   4.946   2.730   1.363
    1SIL  O01ua10570   4.993   2.918   1.000
    1SIL  O01ub10571   4.806   2.865   1.182
    1SIL  O01uc10572   5.052   2.668   1.053
    1SIL  O01ud10573   5.239   2.615   1.234
    1SIL  O01ue10574   5.191   2.804   1.415
    1SIL  Si0xL10575   4.800   3.206   0.936
    1SIL  Si0xM10576   4.554   3.179   1.298
    1SIL  Si0xN10577   4.900   2.980   1.117
    1SIL  O01uf10578   4.700   3.156   1.363
    1SIL  O01ug10579   4.747   3.344   1.000
    1SIL  O01uh10580   4.560   3.291   1.182
    1SIL  O01ui10581   4.806   3.094   1.053
    1SIL  O01uj10582   4.993   3.041   1.234
    1SIL  O01uk10583   4.946   3.229   1.415
    1SIL  Si0xO10584   4.554   3.631   0.936
    1SIL  Si0xP10585   4.308   3.605   1.298
    1SIL  Si0xQ10586   4.654   3.405   1.117
    1SIL  O01ul10587   4.454   3.581   1.363
    1SIL  O01um10588   4.501   3.769   1.000
    1SIL  O01un10589   4.315   3.716   1.182
    1SIL  O01uo10590   4.560   3.520   1.053
    1SIL  O01up10591   4.747   3.467   1.234
    1SIL  O01uq10592   4.700   3.655   1.415
    1SIL  Si0xR10593   4.308   4.057   0.936
    1SIL  Si0xS10594   4.062   4.030   1.298
    1SIL  Si0xT10595   4.408   3.831   1.117
    1SIL  O01ur10596   4.208   4.007   1.363
    1SIL  O01us10597   4.256   4.195   1.000
    1SIL  O01ut10598   4.069   4.142   1.182
    1SIL  O01uu10599   4.315   3.945   1.053
    1SIL  O01uv10600   4.501   3.892   1.234
    1SIL  O01uw10601   4.454   4.081   1.415
    1SIL  Si0xU10602   4.062   4.483   0.936
    1SIL  Si0xV10603   3.817   4.456   1.298
    1SIL  Si0xW10604   4.162   4.256   1.117
    1SIL  O01ux10605   3.963   4.432   1.363
    1SIL  O01uy10606   4.010   4.621   1.000
    1SIL  O01uz10607   3.823   4.568   1.182
    1SIL  O01v010608   4.069   4.371   1.053
    1SIL  O01v110609   4.256   4.318   1.234
    1SIL  O01v210610   4.208   4.506   1.415
    1SIL  Si0xX10611   3.817   4.908   0.936
    1SIL  Si0xY10612   3.571   4.882   1.298
    1SIL  Si0xZ10613   3.917   4.682   1.117
    1SIL  O01v310614   3.717   4.858   1.363
    1SIL  O01v410615   3.764   5.046   1.000
    1SIL  O01v510616   3.577   4.993   1.182
    1SIL  O01v610617   3.823   4.797   1.053
    1SIL  O01v710618   4.010   4.744   1.234
    1SIL  O01v810619   3.963   4.932   1.415
    1SIL  Si0xa10620   3.571   5.334   0.936
    1SIL  Si0xb10621   3.325   5.307   1.298
    1SIL  Si0xc10622   3.671   5.108   1.117
    1SIL  O01v910623   3.471   5.284   1.363
    1SIL  O01vA10624   3.518   5.472   1.000
    1SIL  O01vB10625   3.332   5.419   1.182
    1SIL  O01vC10626   3.577   5.222   1.053
    1SIL  O01vD10627   3.764   5.169   1.234
    1SIL  O01vE10628   3.717   5.357   1.415
    1SIL  Si0xd10629   3.325   5.759   0.936
    1SIL  Si0xe10630   3.079   5.733   1.298
    1SIL  Si0xf10631   3.425   5.533   1.117
    1SIL  O01vF10632   3.225   5.709   1.363
    1SIL  O01vG10633   3.273   5.898   1.000
    1SIL  O01vH10634   3.086   5.844   1.182
    1SIL  O01vI10635   3.332   5.648   1.053
    1SIL  O01vJ10636   3.518   5.595   1.234
    1SIL  O01vK10637   3.471   5.783   1.415
    1SIL  Si0xg10638   3.079   6.185   0.936
    1SIL  Si0xh10639   2.834   6.159   1.298
    1SIL  Si0xi10640   3.179   5.959   1.117
    1SIL  O01vL10641   2.980   6.135   1.363
    1SIL  O01vM10642   3.027   6.323   1.000
    1SIL  O01vN10643   2.840   6.270   1.182
    1SIL  O01vO10644   3.086   6.074   1.053
    1SIL  O01vP10645   3.273   6.020   1.234
    1SIL  O01vQ10646   3.225   6.209   1.415
    1SIL  Si0xj10647   2.834   6.611   0.936
    1SIL  Si0xk10648   2.588   6.584   1.298
    1SIL  Si0xl10649   2.934   6.385   1.117
    1SIL  O01vR10650   2.734   6.561   1.363
    1SIL  O01vS10651   2.781   6.749   1.000
    1SIL  O01vT10652   2.595   6.696   1.182
    1SIL  O01vU10653   2.840   6.499   1.053
    1SIL  O01vV10654   3.027   6.446   1.234
    1SIL  O01vW10655   2.980   6.634   1.415
    1SIL  Si0xm10656   2.588   7.036   0.936
    1SIL  Si0xn10657   2.342   7.010   1.298
    1SIL  Si0xo10658   2.688   6.810   1.117
    1SIL  O01vX10659   2.488   6.986   1.363
    1SIL  O01vY10660   2.535   7.175   1.000
    1SIL  O01vZ10661   2.349   7.121   1.182
    1SIL  O01va10662   2.595   6.925   1.053
    1SIL  O01vb10663   2.781   6.872   1.234
    1SIL  O01vc10664   2.734   7.060   1.415
    1SIL  Si0xp10665   2.342   7.462   0.936
    1SIL  Si0xq10666   2.097   7.436   1.298
    1SIL  Si0xr10667   2.442   7.236   1.117
    1SIL  O01vd10668   2.242   7.412   1.363
    1SIL  O01ve10669   2.290   7.600   1.000
    1SIL  O01vf10670   2.103   7.547   1.182
    1SIL  O01vg10671   2.349   7.351   1.053
    1SIL  O01vh10672   2.535   7.297   1.234
    1SIL  O01vi10673   2.488   7.486   1.415
    1SIL  Si0xs10674   2.097   7.888   0.936
    1SIL  Si0xt10675   1.851   7.861   1.298
    1SIL  Si0xu10676   2.196   7.662   1.117
    1SIL  O01vj10677   1.997   7.838   1.363
    1SIL  O01vk10678   2.044   8.026   1.000
    1SIL  O01vl10679   1.857   7.973   1.182
    1SIL  O01vm10680   2.103   7.776   1.053
    1SIL  O01vn10681   2.290   7.723   1.234
    1SIL  O01vo10682   2.242   7.911   1.415
    1SIL  Si0xv10683   1.851   8.313   0.936
    1SIL  Si0xw10684   1.605   8.287   1.298
    1SIL  Si0xx10685   1.951   8.087   1.117
    1SIL  O01vp10686   1.751   8.263   1.363
    1SIL  O01vq10687   1.798   8.452   1.000
    1SIL  O01vr10688   1.612   8.398   1.182
    1SIL  O01vs10689   1.857   8.202   1.053
    1SIL  O01vt10690   2.044   8.149   1.234
    1SIL  O01vu10691   1.997   8.337   1.415
    1SIL  Si0xy10692   1.605   8.739   0.936
    1SIL  Si0xz10693   1.359   8.713   1.298
    1SIL  Si0y010694   1.705   8.513   1.117
    1SIL  O01vv10695   1.505   8.689   1.363
    1SIL  O01vw10696   1.552   8.877   1.000
    1SIL  O01vx10697   1.366   8.824   1.182
    1SIL  O01vy10698   1.612   8.628   1.053
    1SIL  O01vz10699   1.798   8.574   1.234
    1SIL  O01w010700   1.751   8.763   1.415
    1SIL  Si0y110701   1.359   9.165   0.936
    1SIL  Si0y210702   1.114   9.138   1.298
    1SIL  Si0y310703   1.459   8.939   1.117
    1SIL  O01w110704   1.259   9.115   1.363
    1SIL  O01w210705   1.307   9.303   1.000
    1SIL  O01w310706   1.120   9.250   1.182
    1SIL  O01w410707   1.366   9.053   1.053
    1SIL  O01w510708   1.552   9.000   1.234
    1SIL  O01w610709   1.505   9.188   1.415
    1SIL  Si0y410710   1.114   9.590   0.936
    1SIL  Si0y510711   0.868   9.564   1.298
    1SIL  Si0y610712   1.213   9.364   1.117
    1SIL  O01w710713   1.014   9.540   1.363
    1SIL  O01w810714   1.061   9.729   1.000
    1SIL  O01w910715   0.874   9.675   1.182
    1SIL  O01wA10716   1.120   9.479   1.053
    1SIL  O01wB10717   1.307   9.426   1.234
    1SIL  O01wC10718   1.259   9.614   1.415
    1SIL  Si0y710719   7.011   0.226   0.936
    1SIL  Si0y810720   6.766   0.200   1.298
    1SIL  Si0y910721   7.111   0.000   1.117
    1SIL  O01wD10722   6.912   0.176   1.363
    1SIL  O01wE10723   6.959   0.364   1.000
    1SIL  O01wF10724   6.772   0.311   1.182
    1SIL  O01wG10725   7.018   0.115   1.053
    1SIL  O01wH10726   7.205   0.061   1.234
    1SIL  O01wI10727   7.157   0.250   1.415
    1SIL  Si0yA10728   6.766   0.652   0.936
    1SIL  Si0yB10729   6.520   0.625   1.298
    1SIL  Si0yC10730   6.866   0.426   1.117
    1SIL  O01wJ10731   6.666   0.602   1.363
    1SIL  O01wK10732   6.713   0.790   1.000
    1SIL  O01wL10733   6.526   0.737   1.182
    1SIL  O01wM10734   6.772   0.540   1.053
    1SIL  O01wN10735   6.959   0.487   1.234
    1SIL  O01wO10736   6.912   0.675   1.415
    1SIL  Si0yD10737   6.520   1.077   0.936
    1SIL  Si0yE10738   6.274   1.051   1.298
    1SIL  Si0yF10739   6.620   0.851   1.117
    1SIL  O01wP10740   6.420   1.027   1.363
    1SIL  O01wQ10741   6.467   1.216   1.000
    1SIL  O01wR10742   6.281   1.162   1.182
    1SIL  O01wS10743   6.526   0.966   1.053
    1SIL  O01wT10744   6.713   0.913   1.234
    1SIL  O01wU10745   6.666   1.101   1.415
    1SIL  Si0yG10746   6.274   1.503   0.936
    1SIL  Si0yH10747   6.028   1.477   1.298
    1SIL  Si0yI10748   6.374   1.277   1.117
    1SIL  O01wV10749   6.174   1.453   1.363
    1SIL  O01wW10750   6.222   1.641   1.000
    1SIL  O01wX10751   6.035   1.588   1.182
    1SIL  O01wY10752   6.281   1.392   1.053
    1SIL  O01wZ10753   6.467   1.338   1.234
    1SIL  O01wa10754   6.420   1.527   1.415
    1SIL  Si0yJ10755   6.028   1.929   0.936
    1SIL  Si0yK10756   5.783   1.902   1.298
    1SIL  Si0yL10757   6.128   1.703   1.117
    1SIL  O01wb10758   5.929   1.879   1.363
    1SIL  O01wc10759   5.976   2.067   1.000
    1SIL  O01wd10760   5.789   2.014   1.182
    1SIL  O01we10761   6.035   1.817   1.053
    1SIL  O01wf10762   6.222   1.764   1.234
    1SIL  O01wg10763   6.174   1.952   1.415
    1SIL  Si0yM10764   5.783   2.354   0.936
    1SIL  Si0yN10765   5.537   2.328   1.298
    1SIL  Si0yO10766   5.883   2.128   1.117
    1SIL  O01wh10767   5.683   2.304   1.363
    1SIL  O01wi10768   5.730   2.493   1.000
    1SIL  O01wj10769   5.543   2.439   1.182
    1SIL  O01wk10770   5.789   2.243   1.053
    1SIL  O01wl10771   5.976   2.190   1.234
    1SIL  O01wm10772   5.929   2.378   1.415
    1SIL  Si0yP10773   5.537   2.780   0.936
    1SIL  Si0yQ10774   5.291   2.753   1.298
    1SIL  Si0yR10775   5.637   2.554   1.117
    1SIL  O01wn10776   5.437   2.730   1.363
    1SIL  O01wo10777   5.484   2.918   1.000
    1SIL  O01wp10778   5.298   2.865   1.182
    1SIL  O01wq10779   5.543   2.668   1.053
    1SIL  O01wr10780   5.730   2.615   1.234
    1SIL  O01ws10781   5.683   2.804   1.415
    1SIL  Si0yS10782   5.291   3.206   0.936
    1SIL  Si0yT10783   5.045   3.179   1.298
    1SIL  Si0yU10784   5.391   2.980   1.117
    1SIL  O01wt10785   5.191   3.156   1.363
    1SIL  O01wu10786   5.239   3.344   1.000
    1SIL  O01wv10787   5.052   3.291   1.182
    1SIL  O01ww10788   5.298   3.094   1.053
    1SIL  O01wx10789   5.484   3.041   1.234
    1SIL  O01wy10790   5.437   3.229   1.415
    1SIL  Si0yV10791   5.045   3.631   0.936
    1SIL  Si0yW10792   4.800   3.605   1.298
    1SIL  Si0yX10793   5.145   3.405   1.117
    1SIL  O01wz10794   4.946   3.581   1.363
    1SIL  O01x010795   4.993   3.769   1.000
    1SIL  O01x110796   4.806   3.716   1.182
    1SIL  O01x210797   5.052   3.520   1.053
    1SIL  O01x310798   5.239   3.467   1.234
    1SIL  O01x410799   5.191   3.655   1.415
    1SIL  Si0yY10800   4.800   4.057   0.936
    1SIL  Si0yZ10801   4.554   4.030   1.298
    1SIL  Si0ya10802   4.900   3.831   1.117
    1SIL  O01x510803   4.700   4.007   1.363
    1SIL  O01x610804   4.747   4.195   1.000
    1SIL  O01x710805   4.560   4.142   1.182
    1SIL  O01x810806   4.806   3.945   1.053
    1SIL  O01x910807   4.993   3.892   1.234
    1SIL  O01xA10808   4.946   4.081   1.415
    1SIL  Si0yb10809   4.554   4.483   0.936
    1SIL  Si0yc10810   4.308   4.456   1.298
    1SIL  Si0yd10811   4.654   4.256   1.117
    1SIL  O01xB10812   4.454   4.432   1.363
    1SIL  O01xC10813   4.501   4.621   1.000
    1SIL  O01xD10814   4.315   4.568   1.182
    1SIL  O01xE10815   4.560   4.371   1.053
    1SIL  O01xF10816   4.747   4.318   1.234
    1SIL  O01xG10817   4.700   4.506   1.415
    1SIL  Si0ye10818   4.308   4.908   0.936
    1SIL  Si0yf10819   4.062   4.882   1.298
    1SIL  Si0yg10820   4.408   4.682   1.117
    1SIL  O01xH10821   4.208   4.858   1.363
    1SIL  O01xI10822   4.256   5.046   1.000
    1SIL  O01xJ10823   4.069   4.993   1.182
    1SIL  O01xK10824   4.315   4.797   1.053
    1SIL  O01xL10825   4.501   4.744   1.234
    1SIL  O01xM10826   4.454   4.932   1.415
    1SIL  Si0yh10827   4.062   5.334   0.936
    1SIL  Si0yi10828   3.817   5.307   1.298
    1SIL  Si0yj10829   4.162   5.108   1.117
    1SIL  O01xN10830   3.963   5.284   1.363
    1SIL  O01xO10831   4.010   5.472   1.000
    1SIL  O01xP10832   3.823   5.419   1.182
    1SIL  O01xQ10833   4.069   5.222   1.053
    1SIL  O01xR10834   4.256   5.169   1.234
    1SIL  O01xS10835   4.208   5.357   1.415
    1SIL  Si0yk10836   3.817   5.759   0.936
    1SIL  Si0yl10837   3.571   5.733   1.298
    1SIL  Si0ym10838   3.917   5.533   1.117
    1SIL  O01xT10839   3.717   5.709   1.363
    1SIL  O01xU10840   3.764   5.898   1.000
    1SIL  O01xV10841   3.577   5.844   1.182
    1SIL  O01xW10842   3.823   5.648   1.053
    1SIL  O01xX10843   4.010   5.595   1.234
    1SIL  O01xY10844   3.963   5.783   1.415
    1SIL  Si0yn10845   3.571   6.185   0.936
    1SIL  Si0yo10846   3.325   6.159   1.298
    1SIL  Si0yp10847   3.671   5.959   1.117
    1SIL  O01xZ10848   3.471   6.135   1.363
    1SIL  O01xa10849   3.518   6.323   1.000
    1SIL  O01xb10850   3.332   6.270   1.182
    1SIL  O01xc10851   3.577   6.074   1.053
    1SIL  O01xd10852   3.764   6.020   1.234
    1SIL  O01xe10853   3.717   6.209   1.415
    1SIL  Si0yq10854   3.325   6.611   0.936
    1SIL  Si0yr10855   3.079   6.584   1.298
    1SIL  Si0ys10856   3.425   6.385   1.117
    1SIL  O01xf10857   3.225   6.561   1.363
    1SIL  O01xg10858   3.273   6.749   1.000
    1SIL  O01xh10859   3.086   6.696   1.182
    1SIL  O01xi10860   3.332   6.499   1.053
    1SIL  O01xj10861   3.518   6.446   1.234
    1SIL  O01xk10862   3.471   6.634   1.415
    1SIL  Si0yt10863   3.079   7.036   0.936
    1SIL  Si0yu10864   2.834   7.010   1.298
    1SIL  Si0yv10865   3.179   6.810   1.117
    1SIL  O01xl10866   2.980   6.986   1.363
    1SIL  O01xm10867   3.027   7.175   1.000
    1SIL  O01xn10868   2.840   7.121   1.182
    1SIL  O01xo10869   3.086   6.925   1.053
    1SIL  O01xp10870   3.273   6.872   1.234
    1SIL  O01xq10871   3.225   7.060   1.415
    1SIL  Si0yw10872   2.834   7.462   0.936
    1SIL  Si0yx10873   2.588   7.436   1.298
    1SIL  Si0yy10874   2.934   7.236   1.117
    1SIL  O01xr10875   2.734   7.412   1.363
    1SIL  O01xs10876   2.781   7.600   1.000
    1SIL  O01xt10877   2.595   7.547   1.182
    1SIL  O01xu10878   2.840   7.351   1.053
    1SIL  O01xv10879   3.027   7.297   1.234
    1SIL  O01xw10880   2.980   7.486   1.415
    1SIL  Si0yz10881   2.588   7.888   0.936
    1SIL  Si0z010882   2.342   7.861   1.298
    1SIL  Si0z110883   2.688   7.662   1.117
    1SIL  O01xx10884   2.488   7.838   1.363
    1SIL  O01xy10885   2.535   8.026   1.000
    1SIL  O01xz10886   2.349   7.973   1.182
    1SIL  O01y010887   2.595   7.776   1.053
    1SIL  O01y110888   2.781   7.723   1.234
    1SIL  O01y210889   2.734   7.911   1.415
    1SIL  Si0z210890   2.342   8.313   0.936
    1SIL  Si0z310891   2.097   8.287   1.298
    1SIL  Si0z410892   2.442   8.087   1.117
    1SIL  O01y310893   2.242   8.263   1.363
    1SIL  O01y410894   2.290   8.452   1.000
    1SIL  O01y510895   2.103   8.398   1.182
    1SIL  O01y610896   2.349   8.202   1.053
    1SIL  O01y710897   2.535   8.149   1.234
    1SIL  O01y810898   2.488   8.337   1.415
    1SIL  Si0z510899   2.097   8.739   0.936
    1SIL  Si0z610900   1.851   8.713   1.298
    1SIL  Si0z710901   2.196   8.513   1.117
    1SIL  O01y910902   1.997   8.689   1.363
    1SIL  O01yA10903   2.044   8.877   1.000
    1SIL  O01yB10904   1.857   8.824   1.182
    1SIL  O01yC10905   2.103   8.628   1.053
    1SIL  O01yD10906   2.290   8.574   1.234
    1SIL  O01yE10907   2.242   8.763   1.415
    1SIL  Si0z810908   1.851   9.165   0.936
    1SIL  Si0z910909   1.605   9.138   1.298
    1SIL  Si0zA10910   1.951   8.939   1.117
    1SIL  O01yF10911   1.751   9.115   1.363
    1SIL  O01yG10912   1.798   9.303   1.000
    1SIL  O01yH10913   1.612   9.250   1.182
    1SIL  O01yI10914   1.857   9.053   1.053
    1SIL  O01yJ10915   2.044   9.000   1.234
    1SIL  O01yK10916   1.997   9.188   1.415
    1SIL  Si0zB10917   1.605   9.590   0.936
    1SIL  Si0zC10918   1.359   9.564   1.298
    1SIL  Si0zD10919   1.705   9.364   1.117
    1SIL  O01yL10920   1.505   9.540   1.363
    1SIL  O01yM10921   1.552   9.729   1.000
    1SIL  O01yN10922   1.366   9.675   1.182
    1SIL  O01yO10923   1.612   9.479   1.053
    1SIL  O01yP10924   1.798   9.426   1.234
    1SIL  O01yQ10925   1.751   9.614   1.415
    1SIL  Si0zE10926   7.503   0.226   0.936
    1SIL  Si0zF10927   7.257   0.200   1.298
    1SIL  Si0zG10928   7.603   0.000   1.117
    1SIL  O01yR10929   7.403   0.176   1.363
    1SIL  O01yS10930   7.450   0.364   1.000
    1SIL  O01yT10931   7.264   0.311   1.182
    1SIL  O01yU10932   7.509   0.115   1.053
    1SIL  O01yV10933   7.696   0.061   1.234
    1SIL  O01yW10934   7.649   0.250   1.415
    1SIL  Si0zH10935   7.257   0.652   0.936
    1SIL  Si0zI10936   7.011   0.625   1.298
    1SIL  Si0zJ10937   7.357   0.426   1.117
    1SIL  O01yX10938   7.157   0.602   1.363
    1SIL  O01yY10939   7.205   0.790   1.000
    1SIL  O01yZ10940   7.018   0.737   1.182
    1SIL  O01ya10941   7.264   0.540   1.053
    1SIL  O01yb10942   7.450   0.487   1.234
    1SIL  O01yc10943   7.403   0.675   1.415
    1SIL  Si0zK10944   7.011   1.077   0.936
    1SIL  Si0zL10945   6.766   1.051   1.298
    1SIL  Si0zM10946   7.111   0.851   1.117
    1SIL  O01yd10947   6.912   1.027   1.363
    1SIL  O01ye10948   6.959   1.216   1.000
    1SIL  O01yf10949   6.772   1.162   1.182
    1SIL  O01yg10950   7.018   0.966   1.053
    1SIL  O01yh10951   7.205   0.913   1.234
    1SIL  O01yi10952   7.157   1.101   1.415
    1SIL  Si0zN10953   6.766   1.503   0.936
    1SIL  Si0zO10954   6.520   1.477   1.298
    1SIL  Si0zP10955   6.866   1.277   1.117
    1SIL  O01yj10956   6.666   1.453   1.363
    1SIL  O01yk10957   6.713   1.641   1.000
    1SIL  O01yl10958   6.526   1.588   1.182
    1SIL  O01ym10959   6.772   1.392   1.053
    1SIL  O01yn10960   6.959   1.338   1.234
    1SIL  O01yo10961   6.912   1.527   1.415
    1SIL  Si0zQ10962   6.520   1.929   0.936
    1SIL  Si0zR10963   6.274   1.902   1.298
    1SIL  Si0zS10964   6.620   1.703   1.117
    1SIL  O01yp10965   6.420   1.879   1.363
    1SIL  O01yq10966   6.467   2.067   1.000
    1SIL  O01yr10967   6.281   2.014   1.182
    1SIL  O01ys10968   6.526   1.817   1.053
    1SIL  O01yt10969   6.713   1.764   1.234
    1SIL  O01yu10970   6.666   1.952   1.415
    1SIL  Si0zT10971   6.274   2.354   0.936
    1SIL  Si0zU10972   6.028   2.328   1.298
    1SIL  Si0zV10973   6.374   2.128   1.117
    1SIL  O01yv10974   6.174   2.304   1.363
    1SIL  O01yw10975   6.222   2.493   1.000
    1SIL  O01yx10976   6.035   2.439   1.182
    1SIL  O01yy10977   6.281   2.243   1.053
    1SIL  O01yz10978   6.467   2.190   1.234
    1SIL  O01z010979   6.420   2.378   1.415
    1SIL  Si0zW10980   6.028   2.780   0.936
    1SIL  Si0zX10981   5.783   2.753   1.298
    1SIL  Si0zY10982   6.128   2.554   1.117
    1SIL  O01z110983   5.929   2.730   1.363
    1SIL  O01z210984   5.976   2.918   1.000
    1SIL  O01z310985   5.789   2.865   1.182
    1SIL  O01z410986   6.035   2.668   1.053
    1SIL  O01z510987   6.222   2.615   1.234
    1SIL  O01z610988   6.174   2.804   1.415
    1SIL  Si0zZ10989   5.783   3.206   0.936
    1SIL  Si0za10990   5.537   3.179   1.298
    1SIL  Si0zb10991   5.883   2.980   1.117
    1SIL  O01z710992   5.683   3.156   1.363
    1SIL  O01z810993   5.730   3.344   1.000
    1SIL  O01z910994   5.543   3.291   1.182
    1SIL  O01zA10995   5.789   3.094   1.053
    1SIL  O01zB10996   5.976   3.041   1.234
    1SIL  O01zC10997   5.929   3.229   1.415
    1SIL  Si0zc10998   5.537   3.631   0.936
    1SIL  Si0zd10999   5.291   3.605   1.298
    1SIL  Si0ze11000   5.637   3.405   1.117
    1SIL  O01zD11001   5.437   3.581   1.363
    1SIL  O01zE11002   5.484   3.769   1.000
    1SIL  O01zF11003   5.298   3.716   1.182
    1SIL  O01zG11004   5.543   3.520   1.053
    1SIL  O01zH11005   5.730   3.467   1.234
    1SIL  O01zI11006   5.683   3.655   1.415
    1SIL  Si0zf11007   5.291   4.057   0.936
    1SIL  Si0zg11008   5.045   4.030   1.298
    1SIL  Si0zh11009   5.391   3.831   1.117
    1SIL  O01zJ11010   5.191   4.007   1.363
    1SIL  O01zK11011   5.239   4.195   1.000
    1SIL  O01zL11012   5.052   4.142   1.182
    1SIL  O01zM11013   5.298   3.945   1.053
    1SIL  O01zN11014   5.484   3.892   1.234
    1SIL  O01zO11015   5.437   4.081   1.415
    1SIL  Si0zi11016   5.045   4.483   0.936
    1SIL  Si0zj11017   4.800   4.456   1.298
    1SIL  Si0zk11018   5.145   4.256   1.117
    1SIL  O01zP11019   4.946   4.432   1.363
    1SIL  O01zQ11020   4.993   4.621   1.000
    1SIL  O01zR11021   4.806   4.568   1.182
    1SIL  O01zS11022   5.052   4.371   1.053
    1SIL  O01zT11023   5.239   4.318   1.234
    1SIL  O01zU11024   5.191   4.506   1.415
    1SIL  Si0zl11025   4.800   4.908   0.936
    1SIL  Si0zm11026   4.554   4.882   1.298
    1SIL  Si0zn11027   4.900   4.682   1.117
    1SIL  O01zV11028   4.700   4.858   1.363
    1SIL  O01zW11029   4.747   5.046   1.000
    1SIL  O01zX11030   4.560   4.993   1.182
    1SIL  O01zY11031   4.806   4.797   1.053
    1SIL  O01zZ11032   4.993   4.744   1.234
    1SIL  O01za11033   4.946   4.932   1.415
    1SIL  Si0zo11034   4.554   5.334   0.936
    1SIL  Si0zp11035   4.308   5.307   1.298
    1SIL  Si0zq11036   4.654   5.108   1.117
    1SIL  O01zb11037   4.454   5.284   1.363
    1SIL  O01zc11038   4.501   5.472   1.000
    1SIL  O01zd11039   4.315   5.419   1.182
    1SIL  O01ze11040   4.560   5.222   1.053
    1SIL  O01zf11041   4.747   5.169   1.234
    1SIL  O01zg11042   4.700   5.357   1.415
    1SIL  Si0zr11043   4.308   5.759   0.936
    1SIL  Si0zs11044   4.062   5.733   1.298
    1SIL  Si0zt11045   4.408   5.533   1.117
    1SIL  O01zh11046   4.208   5.709   1.363
    1SIL  O01zi11047   4.256   5.898   1.000
    1SIL  O01zj11048   4.069   5.844   1.182
    1SIL  O01zk11049   4.315   5.648   1.053
    1SIL  O01zl11050   4.501   5.595   1.234
    1SIL  O01zm11051   4.454   5.783   1.415
    1SIL  Si0zu11052   4.062   6.185   0.936
    1SIL  Si0zv11053   3.817   6.159   1.298
    1SIL  Si0zw11054   4.162   5.959   1.117
    1SIL  O01zn11055   3.963   6.135   1.363
    1SIL  O01zo11056   4.010   6.323   1.000
    1SIL  O01zp11057   3.823   6.270   1.182
    1SIL  O01zq11058   4.069   6.074   1.053
    1SIL  O01zr11059   4.256   6.020   1.234
    1SIL  O01zs11060   4.208   6.209   1.415
    1SIL  Si0zx11061   3.817   6.611   0.936
    1SIL  Si0zy11062   3.571   6.584   1.298
    1SIL  Si0zz11063   3.917   6.385   1.117
    1SIL  O01zt11064   3.717   6.561   1.363
    1SIL  O01zu11065   3.764   6.749   1.000
    1SIL  O01zv11066   3.577   6.696   1.182
    1SIL  O01zw11067   3.823   6.499   1.053
    1SIL  O01zx11068   4.010   6.446   1.234
    1SIL  O01zy11069   3.963   6.634   1.415
    1SIL  Si10011070   3.571   7.036   0.936
    1SIL  Si10111071   3.325   7.010   1.298
    1SIL  Si10211072   3.671   6.810   1.117
    1SIL  O01zz11073   3.471   6.986   1.363
    1SIL  O020011074   3.518   7.175   1.000
    1SIL  O020111075   3.332   7.121   1.182
    1SIL  O020211076   3.577   6.925   1.053
    1SIL  O020311077   3.764   6.872   1.234
    1SIL  O020411078   3.717   7.060   1.415
    1SIL  Si10311079   3.325   7.462   0.936
    1SIL  Si10411080   3.079   7.436   1.298
    1SIL  Si10511081   3.425   7.236   1.117
    1SIL  O020511082   3.225   7.412   1.363
    1SIL  O020611083   3.273   7.600   1.000
    1SIL  O020711084   3.086   7.547   1.182
    1SIL  O020811085   3.332   7.351   1.053
    1SIL  O020911086   3.518   7.297   1.234
    1SIL  O020A11087   3.471   7.486   1.415
    1SIL  Si10611088   3.079   7.888   0.936
    1SIL  Si10711089   2.834   7.861   1.298
    1SIL  Si10811090   3.179   7.662   1.117
    1SIL  O020B11091   2.980   7.838   1.363
    1SIL  O020C11092   3.027   8.026   1.000
    1SIL  O020D11093   2.840   7.973   1.182
    1SIL  O020E11094   3.086   7.776   1.053
    1SIL  O020F11095   3.273   7.723   1.234
    1SIL  O020G11096   3.225   7.911   1.415
    1SIL  Si10911097   2.834   8.313   0.936
    1SIL  Si10A11098   2.588   8.287   1.298
    1SIL  Si10B11099   2.934   8.087   1.117
    1SIL  O020H11100   2.734   8.263   1.363
    1SIL  O020I11101   2.781   8.452   1.000
    1SIL  O020J11102   2.595   8.398   1.182
    1SIL  O020K11103   2.840   8.202   1.053
    1SIL  O020L11104   3.027   8.149   1.234
    1SIL  O020M11105   2.980   8.337   1.415
    1SIL  Si10C11106   2.588   8.739   0.936
    1SIL  Si10D11107   2.342   8.713   1.298
    1SIL  Si10E11108   2.688   8.513   1.117
    1SIL  O020N11109   2.488   8.689   1.363
    1SIL  O020O11110   2.535   8.877   1.000
    1SIL  O020P11111   2.349   8.824   1.182
    1SIL  O020Q11112   2.595   8.628   1.053
    1SIL  O020R11113   2.781   8.574   1.234
    1SIL  O020S11114   2.734   8.763   1.415
    1SIL  Si10F11115   2.342   9.165   0.936
    1SIL  Si10G11116   2.097   9.138   1.298
    1SIL  Si10H11117   2.442   8.939   1.117
    1SIL  O020T11118   2.242   9.115   1.363
    1SIL  O020U11119   2.290   9.303   1.000
    1SIL  O020V11120   2.103   9.250   1.182
    1SIL  O020W11121   2.349   9.053   1.053
    1SIL  O020X11122   2.535   9.000   1.234
    1SIL  O020Y11123   2.488   9.188   1.415
    1SIL  Si10I11124   2.097   9.590   0.936
    1SIL  Si10J11125   1.851   9.564   1.298
    1SIL  Si10K11126   2.196   9.364   1.117
    1SIL  O020Z11127   1.997   9.540   1.363
    1SIL  O020a11128   2.044   9.729   1.000
    1SIL  O020b11129   1.857   9.675   1.182
    1SIL  O020c11130   2.103   9.479   1.053
    1SIL  O020d11131   2.290   9.426   1.234
    1SIL  O020e11132   2.242   9.614   1.415
    1SIL  Si10L11133   7.994   0.226   0.936
    1SIL  Si10M11134   7.749   0.200   1.298
    1SIL  Si10N11135   8.094   0.000   1.117
    1SIL  O020f11136   7.895   0.176   1.363
    1SIL  O020g11137   7.942   0.364   1.000
    1SIL  O020h11138   7.755   0.311   1.182
    1SIL  O020i11139   8.001   0.115   1.053
    1SIL  O020j11140   8.188   0.061   1.234
    1SIL  O020k11141   8.140   0.250   1.415
    1SIL  Si10O11142   7.749   0.652   0.936
    1SIL  Si10P11143   7.503   0.625   1.298
    1SIL  Si10Q11144   7.849   0.426   1.117
    1SIL  O020l11145   7.649   0.602   1.363
    1SIL  O020m11146   7.696   0.790   1.000
    1SIL  O020n11147   7.509   0.737   1.182
    1SIL  O020o11148   7.755   0.540   1.053
    1SIL  O020p11149   7.942   0.487   1.234
    1SIL  O020q11150   7.895   0.675   1.415
    1SIL  Si10R11151   7.503   1.077   0.936
    1SIL  Si10S11152   7.257   1.051   1.298
    1SIL  Si10T11153   7.603   0.851   1.117
    1SIL  O020r11154   7.403   1.027   1.363
    1SIL  O020s11155   7.450   1.216   1.000
    1SIL  O020t11156   7.264   1.162   1.182
    1SIL  O020u11157   7.509   0.966   1.053
    1SIL  O020v11158   7.696   0.913   1.234
    1SIL  O020w11159   7.649   1.101   1.415
    1SIL  Si10U11160   7.257   1.503   0.936
    1SIL  Si10V11161   7.011   1.477   1.298
    1SIL  Si10W11162   7.357   1.277   1.117
    1SIL  O020x11163   7.157   1.453   1.363
    1SIL  O020y11164   7.205   1.641   1.000
    1SIL  O020z11165   7.018   1.588   1.182
    1SIL  O021011166   7.264   1.392   1.053
    1SIL  O021111167   7.450   1.338   1.234
    1SIL  O021211168   7.403   1.527   1.415
    1SIL  Si10X11169   7.011   1.929   0.936
    1SIL  Si10Y11170   6.766   1.902   1.298
    1SIL  Si10Z11171   7.111   1.703   1.117
    1SIL  O021311172   6.912   1.879   1.363
    1SIL  O021411173   6.959   2.067   1.000
    1SIL  O021511174   6.772   2.014   1.182
    1SIL  O021611175   7.018   1.817   1.053
    1SIL  O021711176   7.205   1.764   1.234
    1SIL  O021811177   7.157   1.952   1.415
    1SIL  Si10a11178   6.766   2.354   0.936
    1SIL  Si10b11179   6.520   2.328   1.298
    1SIL  Si10c11180   6.866   2.128   1.117
    1SIL  O021911181   6.666   2.304   1.363
    1SIL  O021A11182   6.713   2.493   1.000
    1SIL  O021B11183   6.526   2.439   1.182
    1SIL  O021C11184   6.772   2.243   1.053
    1SIL  O021D11185   6.959   2.190   1.234
    1SIL  O021E11186   6.912   2.378   1.415
    1SIL  Si10d11187   6.520   2.780   0.936
    1SIL  Si10e11188   6.274   2.753   1.298
    1SIL  Si10f11189   6.620   2.554   1.117
    1SIL  O021F11190   6.420   2.730   1.363
    1SIL  O021G11191   6.467   2.918   1.000
    1SIL  O021H11192   6.281   2.865   1.182
    1SIL  O021I11193   6.526   2.668   1.053
    1SIL  O021J11194   6.713   2.615   1.234
    1SIL  O021K11195   6.666   2.804   1.415
    1SIL  Si10g11196   6.274   3.206   0.936
    1SIL  Si10h11197   6.028   3.179   1.298
    1SIL  Si10i11198   6.374   2.980   1.117
    1SIL  O021L11199   6.174   3.156   1.363
    1SIL  O021M11200   6.222   3.344   1.000
    1SIL  O021N11201   6.035   3.291   1.182
    1SIL  O021O11202   6.281   3.094   1.053
    1SIL  O021P11203   6.467   3.041   1.234
    1SIL  O021Q11204   6.420   3.229   1.415
    1SIL  Si10j11205   6.028   3.631   0.936
    1SIL  Si10k11206   5.783   3.605   1.298
    1SIL  Si10l11207   6.128   3.405   1.117
    1SIL  O021R11208   5.929   3.581   1.363
    1SIL  O021S11209   5.976   3.769   1.000
    1SIL  O021T11210   5.789   3.716   1.182
    1SIL  O021U11211   6.035   3.520   1.053
    1SIL  O021V11212   6.222   3.467   1.234
    1SIL  O021W11213   6.174   3.655   1.415
    1SIL  Si10m11214   5.783   4.057   0.936
    1SIL  Si10n11215   5.537   4.030   1.298
    1SIL  Si10o11216   5.883   3.831   1.117
    1SIL  O021X11217   5.683   4.007   1.363
    1SIL  O021Y11218   5.730   4.195   1.000
    1SIL  O021Z11219   5.543   4.142   1.182
    1SIL  O021a11220   5.789   3.945   1.053
    1SIL  O021b11221   5.976   3.892   1.234
    1SIL  O021c11222   5.929   4.081   1.415
    1SIL  Si10p11223   5.537   4.483   0.936
    1SIL  Si10q11224   5.291   4.456   1.298
    1SIL  Si10r11225   5.637   4.256   1.117
    1SIL  O021d11226   5.437   4.432   1.363
    1SIL  O021e11227   5.484   4.621   1.000
    1SIL  O021f11228   5.298   4.568   1.182
    1SIL  O021g11229   5.543   4.371   1.053
    1SIL  O021h11230   5.730   4.318   1.234
    1SIL  O021i11231   5.683   4.506   1.415
    1SIL  Si10s11232   5.291   4.908   0.936
    1SIL  Si10t11233   5.045   4.882   1.298
    1SIL  Si10u11234   5.391   4.682   1.117
    1SIL  O021j11235   5.191   4.858   1.363
    1SIL  O021k11236   5.239   5.046   1.000
    1SIL  O021l11237   5.052   4.993   1.182
    1SIL  O021m11238   5.298   4.797   1.053
    1SIL  O021n11239   5.484   4.744   1.234
    1SIL  O021o11240   5.437   4.932   1.415
    1SIL  Si10v11241   5.045   5.334   0.936
    1SIL  Si10w11242   4.800   5.307   1.298
    1SIL  Si10x11243   5.145   5.108   1.117
    1SIL  O021p11244   4.946   5.284   1.363
    1SIL  O021q11245   4.993   5.472   1.000
    1SIL  O021r11246   4.806   5.419   1.182
    1SIL  O021s11247   5.052   5.222   1.053
    1SIL  O021t11248   5.239   5.169   1.234
    1SIL  O021u11249   5.191   5.357   1.415
    1SIL  Si10y11250   4.800   5.759   0.936
    1SIL  Si10z11251   4.554   5.733   1.298
    1SIL  Si11011252   4.900   5.533   1.117
    1SIL  O021v11253   4.700   5.709   1.363
    1SIL  O021w11254   4.747   5.898   1.000
    1SIL  O021x11255   4.560   5.844   1.182
    1SIL  O021y11256   4.806   5.648   1.053
    1SIL  O021z11257   4.993   5.595   1.234
    1SIL  O022011258   4.946   5.783   1.415
    1SIL  Si11111259   4.554   6.185   0.936
    1SIL  Si11211260   4.308   6.159   1.298
    1SIL  Si11311261   4.654   5.959   1.117
    1SIL  O022111262   4.454   6.135   1.363
    1SIL  O022211263   4.501   6.323   1.000
    1SIL  O022311264   4.315   6.270   1.182
    1SIL  O022411265   4.560   6.074   1.053
    1SIL  O022511266   4.747   6.020   1.234
    1SIL  O022611267   4.700   6.209   1.415
    1SIL  Si11411268   4.308   6.611   0.936
    1SIL  Si11511269   4.062   6.584   1.298
    1SIL  Si11611270   4.408   6.385   1.117
    1SIL  O022711271   4.208   6.561   1.363
    1SIL  O022811272   4.256   6.749   1.000
    1SIL  O022911273   4.069   6.696   1.182
    1SIL  O022A11274   4.315   6.499   1.053
    1SIL  O022B11275   4.501   6.446   1.234
    1SIL  O022C11276   4.454   6.634   1.415
    1SIL  Si11711277   4.062   7.036   0.936
    1SIL  Si11811278   3.817   7.010   1.298
    1SIL  Si11911279   4.162   6.810   1.117
    1SIL  O022D11280   3.963   6.986   1.363
    1SIL  O022E11281   4.010   7.175   1.000
    1SIL  O022F11282   3.823   7.121   1.182
    1SIL  O022G11283   4.069   6.925   1.053
    1SIL  O022H11284   4.256   6.872   1.234
    1SIL  O022I11285   4.208   7.060   1.415
    1SIL  Si11A11286   3.817   7.462   0.936
    1SIL  Si11B11287   3.571   7.436   1.298
    1SIL  Si11C11288   3.917   7.236   1.117
    1SIL  O022J11289   3.717   7.412   1.363
    1SIL  O022K11290   3.764   7.600   1.000
    1SIL  O022L11291   3.577   7.547   1.182
    1SIL  O022M11292   3.823   7.351   1.053
    1SIL  O022N11293   4.010   7.297   1.234
    1SIL  O022O11294   3.963   7.486   1.415
    1SIL  Si11D11295   3.571   7.888   0.936
    1SIL  Si11E11296   3.325   7.861   1.298
    1SIL  Si11F11297   3.671   7.662   1.117
    1SIL  O022P11298   3.471   7.838   1.363
    1SIL  O022Q11299   3.518   8.026   1.000
    1SIL  O022R11300   3.332   7.973   1.182
    1SIL  O022S11301   3.577   7.776   1.053
    1SIL  O022T11302   3.764   7.723   1.234
    1SIL  O022U11303   3.717   7.911   1.415
    1SIL  Si11G11304   3.325   8.313   0.936
    1SIL  Si11H11305   3.079   8.287   1.298
    1SIL  Si11I11306   3.425   8.087   1.117
    1SIL  O022V11307   3.225   8.263   1.363
    1SIL  O022W11308   3.273   8.452   1.000
    1SIL  O022X11309   3.086   8.398   1.182
    1SIL  O022Y11310   3.332   8.202   1.053
    1SIL  O022Z11311   3.518   8.149   1.234
    1SIL  O022a11312   3.471   8.337   1.415
    1SIL  Si11J11313   3.079   8.739   0.936
    1SIL  Si11K11314   2.834   8.713   1.298
    1SIL  Si11L11315   3.179   8.513   1.117
    1SIL  O022b11316   2.980   8.689   1.363
    1SIL  O022c11317   3.027   8.877   1.000
    1SIL  O022d11318   2.840   8.824   1.182
    1SIL  O022e11319   3.086   8.628   1.053
    1SIL  O022f11320   3.273   8.574   1.234
    1SIL  O022g11321   3.225   8.763   1.415
    1SIL  Si11M11322   2.834   9.165   0.936
    1SIL  Si11N11323   2.588   9.138   1.298
    1SIL  Si11O11324   2.934   8.939   1.117
    1SIL  O022h11325   2.734   9.115   1.363
    1SIL  O022i11326   2.781   9.303   1.000
    1SIL  O022j11327   2.595   9.250   1.182
    1SIL  O022k11328   2.840   9.053   1.053
    1SIL  O022l11329   3.027   9.000   1.234
    1SIL  O022m11330   2.980   9.188   1.415
    1SIL  Si11P11331   2.588   9.590   0.936
    1SIL  Si11Q11332   2.342   9.564   1.298
    1SIL  Si11R11333   2.688   9.364   1.117
    1SIL  O022n11334   2.488   9.540   1.363
    1SIL  O022o11335   2.535   9.729   1.000
    1SIL  O022p11336   2.349   9.675   1.182
    1SIL  O022q11337   2.595   9.479   1.053
    1SIL  O022r11338   2.781   9.426   1.234
    1SIL  O022s11339   2.734   9.614   1.415
    1SIL  Si11S11340   8.486   0.226   0.936
    1SIL  Si11T11341   8.240   0.200   1.298
    1SIL  Si11U11342   8.586   0.000   1.117
    1SIL  O022t11343   8.386   0.176   1.363
    1SIL  O022u11344   8.433   0.364   1.000
    1SIL  O022v11345   8.247   0.311   1.182
    1SIL  O022w11346   8.492   0.115   1.053
    1SIL  O022x11347   8.679   0.061   1.234
    1SIL  O022y11348   8.632   0.250   1.415
    1SIL  Si11V11349   8.240   0.652   0.936
    1SIL  Si11W11350   7.994   0.625   1.298
    1SIL  Si11X11351   8.340   0.426   1.117
    1SIL  O022z11352   8.140   0.602   1.363
    1SIL  O023011353   8.188   0.790   1.000
    1SIL  O023111354   8.001   0.737   1.182
    1SIL  O023211355   8.247   0.540   1.053
    1SIL  O023311356   8.433   0.487   1.234
    1SIL  O023411357   8.386   0.675   1.415
    1SIL  Si11Y11358   7.994   1.077   0.936
    1SIL  Si11Z11359   7.749   1.051   1.298
    1SIL  Si11a11360   8.094   0.851   1.117
    1SIL  O023511361   7.895   1.027   1.363
    1SIL  O023611362   7.942   1.216   1.000
    1SIL  O023711363   7.755   1.162   1.182
    1SIL  O023811364   8.001   0.966   1.053
    1SIL  O023911365   8.188   0.913   1.234
    1SIL  O023A11366   8.140   1.101   1.415
    1SIL  Si11b11367   7.749   1.503   0.936
    1SIL  Si11c11368   7.503   1.477   1.298
    1SIL  Si11d11369   7.849   1.277   1.117
    1SIL  O023B11370   7.649   1.453   1.363
    1SIL  O023C11371   7.696   1.641   1.000
    1SIL  O023D11372   7.509   1.588   1.182
    1SIL  O023E11373   7.755   1.392   1.053
    1SIL  O023F11374   7.942   1.338   1.234
    1SIL  O023G11375   7.895   1.527   1.415
    1SIL  Si11e11376   7.503   1.929   0.936
    1SIL  Si11f11377   7.257   1.902   1.298
    1SIL  Si11g11378   7.603   1.703   1.117
    1SIL  O023H11379   7.403   1.879   1.363
    1SIL  O023I11380   7.450   2.067   1.000
    1SIL  O023J11381   7.264   2.014   1.182
    1SIL  O023K11382   7.509   1.817   1.053
    1SIL  O023L11383   7.696   1.764   1.234
    1SIL  O023M11384   7.649   1.952   1.415
    1SIL  Si11h11385   7.257   2.354   0.936
    1SIL  Si11i11386   7.011   2.328   1.298
    1SIL  Si11j11387   7.357   2.128   1.117
    1SIL  O023N11388   7.157   2.304   1.363
    1SIL  O023O11389   7.205   2.493   1.000
    1SIL  O023P11390   7.018   2.439   1.182
    1SIL  O023Q11391   7.264   2.243   1.053
    1SIL  O023R11392   7.450   2.190   1.234
    1SIL  O023S11393   7.403   2.378   1.415
    1SIL  Si11k11394   7.011   2.780   0.936
    1SIL  Si11l11395   6.766   2.753   1.298
    1SIL  Si11m11396   7.111   2.554   1.117
    1SIL  O023T11397   6.912   2.730   1.363
    1SIL  O023U11398   6.959   2.918   1.000
    1SIL  O023V11399   6.772   2.865   1.182
    1SIL  O023W11400   7.018   2.668   1.053
    1SIL  O023X11401   7.205   2.615   1.234
    1SIL  O023Y11402   7.157   2.804   1.415
    1SIL  Si11n11403   6.766   3.206   0.936
    1SIL  Si11o11404   6.520   3.179   1.298
    1SIL  Si11p11405   6.866   2.980   1.117
    1SIL  O023Z11406   6.666   3.156   1.363
    1SIL  O023a11407   6.713   3.344   1.000
    1SIL  O023b11408   6.526   3.291   1.182
    1SIL  O023c11409   6.772   3.094   1.053
    1SIL  O023d11410   6.959   3.041   1.234
    1SIL  O023e11411   6.912   3.229   1.415
    1SIL  Si11q11412   6.520   3.631   0.936
    1SIL  Si11r11413   6.274   3.605   1.298
    1SIL  Si11s11414   6.620   3.405   1.117
    1SIL  O023f11415   6.420   3.581   1.363
    1SIL  O023g11416   6.467   3.769   1.000
    1SIL  O023h11417   6.281   3.716   1.182
    1SIL  O023i11418   6.526   3.520   1.053
    1SIL  O023j11419   6.713   3.467   1.234
    1SIL  O023k11420   6.666   3.655   1.415
    1SIL  Si11t11421   6.274   4.057   0.936
    1SIL  Si11u11422   6.028   4.030   1.298
    1SIL  Si11v11423   6.374   3.831   1.117
    1SIL  O023l11424   6.174   4.007   1.363
    1SIL  O023m11425   6.222   4.195   1.000
    1SIL  O023n11426   6.035   4.142   1.182
    1SIL  O023o11427   6.281   3.945   1.053
    1SIL  O023p11428   6.467   3.892   1.234
    1SIL  O023q11429   6.420   4.081   1.415
    1SIL  Si11w11430   6.028   4.483   0.936
    1SIL  Si11x11431   5.783   4.456   1.298
    1SIL  Si11y11432   6.128   4.256   1.117
    1SIL  O023r11433   5.929   4.432   1.363
    1SIL  O023s11434   5.976   4.621   1.000
    1SIL  O023t11435   5.789   4.568   1.182
    1SIL  O023u11436   6.035   4.371   1.053
    1SIL  O023v11437   6.222   4.318   1.234
    1SIL  O023w11438   6.174   4.506   1.415
    1SIL  Si11z11439   5.783   4.908   0.936
    1SIL  Si12011440   5.537   4.882   1.298
    1SIL  Si12111441   5.883   4.682   1.117
    1SIL  O023x11442   5.683   4.858   1.363
    1SIL  O023y11443   5.730   5.046   1.000
    1SIL  O023z11444   5.543   4.993   1.182
    1SIL  O024011445   5.789   4.797   1.053
    1SIL  O024111446   5.976   4.744   1.234
    1SIL  O024211447   5.929   4.932   1.415
    1SIL  Si12211448   5.537   5.334   0.936
    1SIL  Si12311449   5.291   5.307   1.298
    1SIL  Si12411450   5.637   5.108   1.117
    1SIL  O024311451   5.437   5.284   1.363
    1SIL  O024411452   5.484   5.472   1.000
    1SIL  O024511453   5.298   5.419   1.182
    1SIL  O024611454   5.543   5.222   1.053
    1SIL  O024711455   5.730   5.169   1.234
    1SIL  O024811456   5.683   5.357   1.415
    1SIL  Si12511457   5.291   5.759   0.936
    1SIL  Si12611458   5.045   5.733   1.298
    1SIL  Si12711459   5.391   5.533   1.117
    1SIL  O024911460   5.191   5.709   1.363
    1SIL  O024A11461   5.239   5.898   1.000
    1SIL  O024B11462   5.052   5.844   1.182
    1SIL  O024C11463   5.298   5.648   1.053
    1SIL  O024D11464   5.484   5.595   1.234
    1SIL  O024E11465   5.437   5.783   1.415
    1SIL  Si12811466   5.045   6.185   0.936
    1SIL  Si12911467   4.800   6.159   1.298
    1SIL  Si12A11468   5.145   5.959   1.117
    1SIL  O024F11469   4.946   6.135   1.363
    1SIL  O024G11470   4.993   6.323   1.000
    1SIL  O024H11471   4.806   6.270   1.182
    1SIL  O024I11472   5.052   6.074   1.053
    1SIL  O024J11473   5.239   6.020   1.234
    1SIL  O024K11474   5.191   6.209   1.415
    1SIL  Si12B11475   4.800   6.611   0.936
    1SIL  Si12C11476   4.554   6.584   1.298
    1SIL  Si12D11477   4.900   6.385   1.117
    1SIL  O024L11478   4.700   6.561   1.363
    1SIL  O024M11479   4.747   6.749   1.000
    1SIL  O024N11480   4.560   6.696   1.182
    1SIL  O024O11481   4.806   6.499   1.053
    1SIL  O024P11482   4.993   6.446   1.234
    1SIL  O024Q11483   4.946   6.634   1.415
    1SIL  Si12E11484   4.554   7.036   0.936
    1SIL  Si12F11485   4.308   7.010   1.298
    1SIL  Si12G11486   4.654   6.810   1.117
    1SIL  O024R11487   4.454   6.986   1.363
    1SIL  O024S11488   4.501   7.175   1.000
    1SIL  O024T11489   4.315   7.121   1.182
    1SIL  O024U11490   4.560   6.925   1.053
    1SIL  O024V11491   4.747   6.872   1.234
    1SIL  O024W11492   4.700   7.060   1.415
    1SIL  Si12H11493   4.308   7.462   0.936
    1SIL  Si12I11494   4.062   7.436   1.298
    1SIL  Si12J11495   4.408   7.236   1.117
    1SIL  O024X11496   4.208   7.412   1.363
    1SIL  O024Y11497   4.256   7.600   1.000
    1SIL  O024Z11498   4.069   7.547   1.182
    1SIL  O024a11499   4.315   7.351   1.053
    1SIL  O024b11500   4.501   7.297   1.234
    1SIL  O024c11501   4.454   7.486   1.415
    1SIL  Si12K11502   4.062   7.888   0.936
    1SIL  Si12L11503   3.817   7.861   1.298
    1SIL  Si12M11504   4.162   7.662   1.117
    1SIL  O024d11505   3.963   7.838   1.363
    1SIL  O024e11506   4.010   8.026   1.000
    1SIL  O024f11507   3.823   7.973   1.182
    1SIL  O024g11508   4.069   7.776   1.053
    1SIL  O024h11509   4.256   7.723   1.234
    1SIL  O024i11510   4.208   7.911   1.415
    1SIL  Si12N11511   3.817   8.313   0.936
    1SIL  Si12O11512   3.571   8.287   1.298
    1SIL  Si12P11513   3.917   8.087   1.117
    1SIL  O024j11514   3.717   8.263   1.363
    1SIL  O024k11515   3.764   8.452   1.000
    1SIL  O024l11516   3.577   8.398   1.182
    1SIL  O024m11517   3.823   8.202   1.053
    1SIL  O024n11518   4.010   8.149   1.234
    1SIL  O024o11519   3.963   8.337   1.415
    1SIL  Si12Q11520   3.571   8.739   0.936
    1SIL  Si12R11521   3.325   8.713   1.298
    1SIL  Si12S11522   3.671   8.513   1.117
    1SIL  O024p11523   3.471   8.689   1.363
    1SIL  O024q11524   3.518   8.877   1.000
    1SIL  O024r11525   3.332   8.824   1.182
    1SIL  O024s11526   3.577   8.628   1.053
    1SIL  O024t11527   3.764   8.574   1.234
    1SIL  O024u11528   3.717   8.763   1.415
    1SIL  Si12T11529   3.325   9.165   0.936
    1SIL  Si12U11530   3.079   9.138   1.298
    1SIL  Si12V11531   3.425   8.939   1.117
    1SIL  O024v11532   3.225   9.115   1.363
    1SIL  O024w11533   3.273   9.303   1.000
    1SIL  O024x11534   3.086   9.250   1.182
    1SIL  O024y11535   3.332   9.053   1.053
    1SIL  O024z11536   3.518   9.000   1.234
    1SIL  O025011537   3.471   9.188   1.415
    1SIL  Si12W11538   3.079   9.590   0.936
    1SIL  Si12X11539   2.834   9.564   1.298
    1SIL  Si12Y11540   3.179   9.364   1.117
    1SIL  O025111541   2.980   9.540   1.363
    1SIL  O025211542   3.027   9.729   1.000
    1SIL  O025311543   2.840   9.675   1.182
    1SIL  O025411544   3.086   9.479   1.053
    1SIL  O025511545   3.273   9.426   1.234
    1SIL  O025611546   3.225   9.614   1.415
    1SIL  Si12Z11547   8.977   0.226   0.936
    1SIL  Si12a11548   8.732   0.200   1.298
    1SIL  Si12b11549   9.077   0.000   1.117
    1SIL  O025711550   8.878   0.176   1.363
    1SIL  O025811551   8.925   0.364   1.000
    1SIL  O025911552   8.738   0.311   1.182
    1SIL  O025A11553   8.984   0.115   1.053
    1SIL  O025B11554   9.171   0.061   1.234
    1SIL  O025C11555   9.123   0.250   1.415
    1SIL  Si12c11556   8.732   0.652   0.936
    1SIL  Si12d11557   8.486   0.625   1.298
    1SIL  Si12e11558   8.832   0.426   1.117
    1SIL  O025D11559   8.632   0.602   1.363
    1SIL  O025E11560   8.679   0.790   1.000
    1SIL  O025F11561   8.492   0.737   1.182
    1SIL  O025G11562   8.738   0.540   1.053
    1SIL  O025H11563   8.925   0.487   1.234
    1SIL  O025I11564   8.878   0.675   1.415
    1SIL  Si12f11565   8.486   1.077   0.936
    1SIL  Si12g11566   8.240   1.051   1.298
    1SIL  Si12h11567   8.586   0.851   1.117
    1SIL  O025J11568   8.386   1.027   1.363
    1SIL  O025K11569   8.433   1.216   1.000
    1SIL  O025L11570   8.247   1.162   1.182
    1SIL  O025M11571   8.492   0.966   1.053
    1SIL  O025N11572   8.679   0.913   1.234
    1SIL  O025O11573   8.632   1.101   1.415
    1SIL  Si12i11574   8.240   1.503   0.936
    1SIL  Si12j11575   7.994   1.477   1.298
    1SIL  Si12k11576   8.340   1.277   1.117
    1SIL  O025P11577   8.140   1.453   1.363
    1SIL  O025Q11578   8.188   1.641   1.000
    1SIL  O025R11579   8.001   1.588   1.182
    1SIL  O025S11580   8.247   1.392   1.053
    1SIL  O025T11581   8.433   1.338   1.234
    1SIL  O025U11582   8.386   1.527   1.415
    1SIL  Si12l11583   7.994   1.929   0.936
    1SIL  Si12m11584   7.749   1.902   1.298
    1SIL  Si12n11585   8.094   1.703   1.117
    1SIL  O025V11586   7.895   1.879   1.363
    1SIL  O025W11587   7.942   2.067   1.000
    1SIL  O025X11588   7.755   2.014   1.182
    1SIL  O025Y11589   8.001   1.817   1.053
    1SIL  O025Z11590   8.188   1.764   1.234
    1SIL  O025a11591   8.140   1.952   1.415
    1SIL  Si12o11592   7.749   2.354   0.936
    1SIL  Si12p11593   7.503   2.328   1.298
    1SIL  Si12q11594   7.849   2.128   1.117
    1SIL  O025b11595   7.649   2.304   1.363
    1SIL  O025c11596   7.696   2.493   1.000
    1SIL  O025d11597   7.509   2.439   1.182
    1SIL  O025e11598   7.755   2.243   1.053
    1SIL  O025f11599   7.942   2.190   1.234
    1SIL  O025g11600   7.895   2.378   1.415
    1SIL  Si12r11601   7.503   2.780   0.936
    1SIL  Si12s11602   7.257   2.753   1.298
    1SIL  Si12t11603   7.603   2.554   1.117
    1SIL  O025h11604   7.403   2.730   1.363
    1SIL  O025i11605   7.450   2.918   1.000
    1SIL  O025j11606   7.264   2.865   1.182
    1SIL  O025k11607   7.509   2.668   1.053
    1SIL  O025l11608   7.696   2.615   1.234
    1SIL  O025m11609   7.649   2.804   1.415
    1SIL  Si12u11610   7.257   3.206   0.936
    1SIL  Si12v11611   7.011   3.179   1.298
    1SIL  Si12w11612   7.357   2.980   1.117
    1SIL  O025n11613   7.157   3.156   1.363
    1SIL  O025o11614   7.205   3.344   1.000
    1SIL  O025p11615   7.018   3.291   1.182
    1SIL  O025q11616   7.264   3.094   1.053
    1SIL  O025r11617   7.450   3.041   1.234
    1SIL  O025s11618   7.403   3.229   1.415
    1SIL  Si12x11619   7.011   3.631   0.936
    1SIL  Si12y11620   6.766   3.605   1.298
    1SIL  Si12z11621   7.111   3.405   1.117
    1SIL  O025t11622   6.912   3.581   1.363
    1SIL  O025u11623   6.959   3.769   1.000
    1SIL  O025v11624   6.772   3.716   1.182
    1SIL  O025w11625   7.018   3.520   1.053
    1SIL  O025x11626   7.205   3.467   1.234
    1SIL  O025y11627   7.157   3.655   1.415
    1SIL  Si13011628   6.766   4.057   0.936
    1SIL  Si13111629   6.520   4.030   1.298
    1SIL  Si13211630   6.866   3.831   1.117
    1SIL  O025z11631   6.666   4.007   1.363
    1SIL  O026011632   6.713   4.195   1.000
    1SIL  O026111633   6.526   4.142   1.182
    1SIL  O026211634   6.772   3.945   1.053
    1SIL  O026311635   6.959   3.892   1.234
    1SIL  O026411636   6.912   4.081   1.415
    1SIL  Si13311637   6.520   4.483   0.936
    1SIL  Si13411638   6.274   4.456   1.298
    1SIL  Si13511639   6.620   4.256   1.117
    1SIL  O026511640   6.420   4.432   1.363
    1SIL  O026611641   6.467   4.621   1.000
    1SIL  O026711642   6.281   4.568   1.182
    1SIL  O026811643   6.526   4.371   1.053
    1SIL  O026911644   6.713   4.318   1.234
    1SIL  O026A11645   6.666   4.506   1.415
    1SIL  Si13611646   6.274   4.908   0.936
    1SIL  Si13711647   6.028   4.882   1.298
    1SIL  Si13811648   6.374   4.682   1.117
    1SIL  O026B11649   6.174   4.858   1.363
    1SIL  O026C11650   6.222   5.046   1.000
    1SIL  O026D11651   6.035   4.993   1.182
    1SIL  O026E11652   6.281   4.797   1.053
    1SIL  O026F11653   6.467   4.744   1.234
    1SIL  O026G11654   6.420   4.932   1.415
    1SIL  Si13911655   6.028   5.334   0.936
    1SIL  Si13A11656   5.783   5.307   1.298
    1SIL  Si13B11657   6.128   5.108   1.117
    1SIL  O026H11658   5.929   5.284   1.363
    1SIL  O026I11659   5.976   5.472   1.000
    1SIL  O026J11660   5.789   5.419   1.182
    1SIL  O026K11661   6.035   5.222   1.053
    1SIL  O026L11662   6.222   5.169   1.234
    1SIL  O026M11663   6.174   5.357   1.415
    1SIL  Si13C11664   5.783   5.759   0.936
    1SIL  Si13D11665   5.537   5.733   1.298
    1SIL  Si13E11666   5.883   5.533   1.117
    1SIL  O026N11667   5.683   5.709   1.363
    1SIL  O026O11668   5.730   5.898   1.000
    1SIL  O026P11669   5.543   5.844   1.182
    1SIL  O026Q11670   5.789   5.648   1.053
    1SIL  O026R11671   5.976   5.595   1.234
    1SIL  O026S11672   5.929   5.783   1.415
    1SIL  Si13F11673   5.537   6.185   0.936
    1SIL  Si13G11674   5.291   6.159   1.298
    1SIL  Si13H11675   5.637   5.959   1.117
    1SIL  O026T11676   5.437   6.135   1.363
    1SIL  O026U11677   5.484   6.323   1.000
    1SIL  O026V11678   5.298   6.270   1.182
    1SIL  O026W11679   5.543   6.074   1.053
    1SIL  O026X11680   5.730   6.020   1.234
    1SIL  O026Y11681   5.683   6.209   1.415
    1SIL  Si13I11682   5.291   6.611   0.936
    1SIL  Si13J11683   5.045   6.584   1.298
    1SIL  Si13K11684   5.391   6.385   1.117
    1SIL  O026Z11685   5.191   6.561   1.363
    1SIL  O026a11686   5.239   6.749   1.000
    1SIL  O026b11687   5.052   6.696   1.182
    1SIL  O026c11688   5.298   6.499   1.053
    1SIL  O026d11689   5.484   6.446   1.234
    1SIL  O026e11690   5.437   6.634   1.415
    1SIL  Si13L11691   5.045   7.036   0.936
    1SIL  Si13M11692   4.800   7.010   1.298
    1SIL  Si13N11693   5.145   6.810   1.117
    1SIL  O026f11694   4.946   6.986   1.363
    1SIL  O026g11695   4.993   7.175   1.000
    1SIL  O026h11696   4.806   7.121   1.182
    1SIL  O026i11697   5.052   6.925   1.053
    1SIL  O026j11698   5.239   6.872   1.234
    1SIL  O026k11699   5.191   7.060   1.415
    1SIL  Si13O11700   4.800   7.462   0.936
    1SIL  Si13P11701   4.554   7.436   1.298
    1SIL  Si13Q11702   4.900   7.236   1.117
    1SIL  O026l11703   4.700   7.412   1.363
    1SIL  O026m11704   4.747   7.600   1.000
    1SIL  O026n11705   4.560   7.547   1.182
    1SIL  O026o11706   4.806   7.351   1.053
    1SIL  O026p11707   4.993   7.297   1.234
    1SIL  O026q11708   4.946   7.486   1.415
    1SIL  Si13R11709   4.554   7.888   0.936
    1SIL  Si13S11710   4.308   7.861   1.298
    1SIL  Si13T11711   4.654   7.662   1.117
    1SIL  O026r11712   4.454   7.838   1.363
    1SIL  O026s11713   4.501   8.026   1.000
    1SIL  O026t11714   4.315   7.973   1.182
    1SIL  O026u11715   4.560   7.776   1.053
    1SIL  O026v11716   4.747   7.723   1.234
    1SIL  O026w11717   4.700   7.911   1.415
    1SIL  Si13U11718   4.308   8.313   0.936
    1SIL  Si13V11719   4.062   8.287   1.298
    1SIL  Si13W11720   4.408   8.087   1.117
    1SIL  O026x11721   4.208   8.263   1.363
    1SIL  O026y11722   4.256   8.452   1.000
    1SIL  O026z11723   4.069   8.398   1.182
    1SIL  O027011724   4.315   8.202   1.053
    1SIL  O027111725   4.501   8.149   1.234
    1SIL  O027211726   4.454   8.337   1.415
    1SIL  Si13X11727   4.062   8.739   0.936
    1SIL  Si13Y11728   3.817   8.713   1.298
    1SIL  Si13Z11729   4.162   8.513   1.117
    1SIL  O027311730   3.963   8.689   1.363
    1SIL  O027411731   4.010   8.877   1.000
    1SIL  O027511732   3.823   8.824   1.182
    1SIL  O027611733   4.069   8.628   1.053
    1SIL  O027711734   4.256   8.574   1.234
    1SIL  O027811735   4.208   8.763   1.415
    1SIL  Si13a11736   3.817   9.165   0.936
    1SIL  Si13b11737   3.571   9.138   1.298
    1SIL  Si13c11738   3.917   8.939   1.117
    1SIL  O027911739   3.717   9.115   1.363
    1SIL  O027A11740   3.764   9.303   1.000
    1SIL  O027B11741   3.577   9.250   1.182
    1SIL  O027C11742   3.823   9.053   1.053
    1SIL  O027D11743   4.010   9.000   1.234
    1SIL  O027E11744   3.963   9.188   1.415
    1SIL  Si13d11745   3.571   9.590   0.936
    1SIL  Si13e11746   3.325   9.564   1.298
    1SIL  Si13f11747   3.671   9.364   1.117
    1SIL  O027F11748   3.471   9.540   1.363
    1SIL  O027G11749   3.518   9.729   1.000
    1SIL  O027H11750   3.332   9.675   1.182
    1SIL  O027I11751   3.577   9.479   1.053
    1SIL  O027J11752   3.764   9.426   1.234
    1SIL  O027K11753   3.717   9.614   1.415
    1SIL  Si13g11754   9.469   0.226   0.936
    1SIL  Si13h11755   9.223   0.200   1.298
    1SIL  Si13i11756   9.569   0.000   1.117
    1SIL  O027L11757   9.369   0.176   1.363
    1SIL  O027M11758   9.416   0.364   1.000
    1SIL  O027N11759   9.230   0.311   1.182
    1SIL  O027O11760   9.475   0.115   1.053
    1SIL  O027P11761   9.662   0.061   1.234
    1SIL  O027Q11762   9.615   0.250   1.415
    1SIL  Si13j11763   9.223   0.652   0.936
    1SIL  Si13k11764   8.977   0.625   1.298
    1SIL  Si13l11765   9.323   0.426   1.117
    1SIL  O027R11766   9.123   0.602   1.363
    1SIL  O027S11767   9.171   0.790   1.000
    1SIL  O027T11768   8.984   0.737   1.182
    1SIL  O027U11769   9.230   0.540   1.053
    1SIL  O027V11770   9.416   0.487   1.234
    1SIL  O027W11771   9.369   0.675   1.415
    1SIL  Si13m11772   8.977   1.077   0.936
    1SIL  Si13n11773   8.732   1.051   1.298
    1SIL  Si13o11774   9.077   0.851   1.117
    1SIL  O027X11775   8.878   1.027   1.363
    1SIL  O027Y11776   8.925   1.216   1.000
    1SIL  O027Z11777   8.738   1.162   1.182
    1SIL  O027a11778   8.984   0.966   1.053
    1SIL  O027b11779   9.171   0.913   1.234
    1SIL  O027c11780   9.123   1.101   1.415
    1SIL  Si13p11781   8.732   1.503   0.936
    1SIL  Si13q11782   8.486   1.477   1.298
    1SIL  Si13r11783   8.832   1.277   1.117
    1SIL  O027d11784   8.632   1.453   1.363
    1SIL  O027e11785   8.679   1.641   1.000
    1SIL  O027f11786   8.492   1.588   1.182
    1SIL  O027g11787   8.738   1.392   1.053
    1SIL  O027h11788   8.925   1.338   1.234
    1SIL  O027i11789   8.878   1.527   1.415
    1SIL  Si13s11790   8.486   1.929   0.936
    1SIL  Si13t11791   8.240   1.902   1.298
    1SIL  Si13u11792   8.586   1.703   1.117
    1SIL  O027j11793   8.386   1.879   1.363
    1SIL  O027k11794   8.433   2.067   1.000
    1SIL  O027l11795   8.247   2.014   1.182
    1SIL  O027m11796   8.492   1.817   1.053
    1SIL  O027n11797   8.679   1.764   1.234
    1SIL  O027o11798   8.632   1.952   1.415
    1SIL  Si13v11799   8.240   2.354   0.936
    1SIL  Si13w11800   7.994   2.328   1.298
    1SIL  Si13x11801   8.340   2.128   1.117
    1SIL  O027p11802   8.140   2.304   1.363
    1SIL  O027q11803   8.188   2.493   1.000
    1SIL  O027r11804   8.001   2.439   1.182
    1SIL  O027s11805   8.247   2.243   1.053
    1SIL  O027t11806   8.433   2.190   1.234
    1SIL  O027u11807   8.386   2.378   1.415
    1SIL  Si13y11808   7.994   2.780   0.936
    1SIL  Si13z11809   7.749   2.753   1.298
    1SIL  Si14011810   8.094   2.554   1.117
    1SIL  O027v11811   7.895   2.730   1.363
    1SIL  O027w11812   7.942   2.918   1.000
    1SIL  O027x11813   7.755   2.865   1.182
    1SIL  O027y11814   8.001   2.668   1.053
    1SIL  O027z11815   8.188   2.615   1.234
    1SIL  O028011816   8.140   2.804   1.415
    1SIL  Si14111817   7.749   3.206   0.936
    1SIL  Si14211818   7.503   3.179   1.298
    1SIL  Si14311819   7.849   2.980   1.117
    1SIL  O028111820   7.649   3.156   1.363
    1SIL  O028211821   7.696   3.344   1.000
    1SIL  O028311822   7.509   3.291   1.182
    1SIL  O028411823   7.755   3.094   1.053
    1SIL  O028511824   7.942   3.041   1.234
    1SIL  O028611825   7.895   3.229   1.415
    1SIL  Si14411826   7.503   3.631   0.936
    1SIL  Si14511827   7.257   3.605   1.298
    1SIL  Si14611828   7.603   3.405   1.117
    1SIL  O028711829   7.403   3.581   1.363
    1SIL  O028811830   7.450   3.769   1.000
    1SIL  O028911831   7.264   3.716   1.182
    1SIL  O028A11832   7.509   3.520   1.053
    1SIL  O028B11833   7.696   3.467   1.234
    1SIL  O028C11834   7.649   3.655   1.415
    1SIL  Si14711835   7.257   4.057   0.936
    1SIL  Si14811836   7.011   4.030   1.298
    1SIL  Si14911837   7.357   3.831   1.117
    1SIL  O028D11838   7.157   4.007   1.363
    1SIL  O028E11839   7.205   4.195   1.000
    1SIL  O028F11840   7.018   4.142   1.182
    1SIL  O028G11841   7.264   3.945   1.053
    1SIL  O028H11842   7.450   3.892   1.234
    1SIL  O028I11843   7.403   4.081   1.415
    1SIL  Si14A11844   7.011   4.483   0.936
    1SIL  Si14B11845   6.766   4.456   1.298
    1SIL  Si14C11846   7.111   4.256   1.117
    1SIL  O028J11847   6.912   4.432   1.363
    1SIL  O028K11848   6.959   4.621   1.000
    1SIL  O028L11849   6.772   4.568   1.182
    1SIL  O028M11850   7.018   4.371   1.053
    1SIL  O028N11851   7.205   4.318   1.234
    1SIL  O028O11852   7.157   4.506   1.415
    1SIL  Si14D11853   6.766   4.908   0.936
    1SIL  Si14E11854   6.520   4.882   1.298
    1SIL  Si14F11855   6.866   4.682   1.117
    1SIL  O028P11856   6.666   4.858   1.363
    1SIL  O028Q11857   6.713   5.046   1.000
    1SIL  O028R11858   6.526   4.993   1.182
    1SIL  O028S11859   6.772   4.797   1.053
    1SIL  O028T11860   6.959   4.744   1.234
    1SIL  O028U11861   6.912   4.932   1.415
    1SIL  Si14G11862   6.520   5.334   0.936
    1SIL  Si14H11863   6.274   5.307   1.298
    1SIL  Si14I11864   6.620   5.108   1.117
    1SIL  O028V11865   6.420   5.284   1.363
    1SIL  O028W11866   6.467   5.472   1.000
    1SIL  O028X11867   6.281   5.419   1.182
    1SIL  O028Y11868   6.526   5.222   1.053
    1SIL  O028Z11869   6.713   5.169   1.234
    1SIL  O028a11870   6.666   5.357   1.415
    1SIL  Si14J11871   6.274   5.759   0.936
    1SIL  Si14K11872   6.028   5.733   1.298
    1SIL  Si14L11873   6.374   5.533   1.117
    1SIL  O028b11874   6.174   5.709   1.363
    1SIL  O028c11875   6.222   5.898   1.000
    1SIL  O028d11876   6.035   5.844   1.182
    1SIL  O028e11877   6.281   5.648   1.053
    1SIL  O028f11878   6.467   5.595   1.234
    1SIL  O028g11879   6.420   5.783   1.415
    1SIL  Si14M11880   6.028   6.185   0.936
    1SIL  Si14N11881   5.783   6.159   1.298
    1SIL  Si14O11882   6.128   5.959   1.117
    1SIL  O028h11883   5.929   6.135   1.363
    1SIL  O028i11884   5.976   6.323   1.000
    1SIL  O028j11885   5.789   6.270   1.182
    1SIL  O028k11886   6.035   6.074   1.053
    1SIL  O028l11887   6.222   6.020   1.234
    1SIL  O028m11888   6.174   6.209   1.415
    1SIL  Si14P11889   5.783   6.611   0.936
    1SIL  Si14Q11890   5.537   6.584   1.298
    1SIL  Si14R11891   5.883   6.385   1.117
    1SIL  O028n11892   5.683   6.561   1.363
    1SIL  O028o11893   5.730   6.749   1.000
    1SIL  O028p11894   5.543   6.696   1.182
    1SIL  O028q11895   5.789   6.499   1.053
    1SIL  O028r11896   5.976   6.446   1.234
    1SIL  O028s11897   5.929   6.634   1.415
    1SIL  Si14S11898   5.537   7.036   0.936
    1SIL  Si14T11899   5.291   7.010   1.298
    1SIL  Si14U11900   5.637   6.810   1.117
    1SIL  O028t11901   5.437   6.986   1.363
    1SIL  O028u11902   5.484   7.175   1.000
    1SIL  O028v11903   5.298   7.121   1.182
    1SIL  O028w11904   5.543   6.925   1.053
    1SIL  O028x11905   5.730   6.872   1.234
    1SIL  O028y11906   5.683   7.060   1.415
    1SIL  Si14V11907   5.291   7.462   0.936
    1SIL  Si14W11908   5.045   7.436   1.298
    1SIL  Si14X11909   5.391   7.236   1.117
    1SIL  O028z11910   5.191   7.412   1.363
    1SIL  O029011911   5.239   7.600   1.000
    1SIL  O029111912   5.052   7.547   1.182
    1SIL  O029211913   5.298   7.351   1.053
    1SIL  O029311914   5.484   7.297   1.234
    1SIL  O029411915   5.437   7.486   1.415
    1SIL  Si14Y11916   5.045   7.888   0.936
    1SIL  Si14Z11917   4.800   7.861   1.298
    1SIL  Si14a11918   5.145   7.662   1.117
    1SIL  O029511919   4.946   7.838   1.363
    1SIL  O029611920   4.993   8.026   1.000
    1SIL  O029711921   4.806   7.973   1.182
    1SIL  O029811922   5.052   7.776   1.053
    1SIL  O029911923   5.239   7.723   1.234
    1SIL  O029A11924   5.191   7.911   1.415
    1SIL  Si14b11925   4.800   8.313   0.936
    1SIL  Si14c11926   4.554   8.287   1.298
    1SIL  Si14d11927   4.900   8.087   1.117
    1SIL  O029B11928   4.700   8.263   1.363
    1SIL  O029C11929   4.747   8.452   1.000
    1SIL  O029D11930   4.560   8.398   1.182
    1SIL  O029E11931   4.806   8.202   1.053
    1SIL  O029F11932   4.993   8.149   1.234
    1SIL  O029G11933   4.946   8.337   1.415
    1SIL  Si14e11934   4.554   8.739   0.936
    1SIL  Si14f11935   4.308   8.713   1.298
    1SIL  Si14g11936   4.654   8.513   1.117
    1SIL  O029H11937   4.454   8.689   1.363
    1SIL  O029I11938   4.501   8.877   1.000
    1SIL  O029J11939   4.315   8.824   1.182
    1SIL  O029K11940   4.560   8.628   1.053
    1SIL  O029L11941   4.747   8.574   1.234
    1SIL  O029M11942   4.700   8.763   1.415
    1SIL  Si14h11943   4.308   9.165   0.936
    1SIL  Si14i11944   4.062   9.138   1.298
    1SIL  Si14j11945   4.408   8.939   1.117
    1SIL  O029N11946   4.208   9.115   1.363
    1SIL  O029O11947   4.256   9.303   1.000
    1SIL  O029P11948   4.069   9.250   1.182
    1SIL  O029Q11949   4.315   9.053   1.053
    1SIL  O029R11950   4.501   9.000   1.234
    1SIL  O029S11951   4.454   9.188   1.415
    1SIL  Si14k11952   4.062   9.590   0.936
    1SIL  Si14l11953   3.817   9.564   1.298
    1SIL  Si14m11954   4.162   9.364   1.117
    1SIL  O029T11955   3.963   9.540   1.363
    1SIL  O029U11956   4.010   9.729   1.000
    1SIL  O029V11957   3.823   9.675   1.182
    1SIL  O029W11958   4.069   9.479   1.053
    1SIL  O029X11959   4.256   9.426   1.234
    1SIL  O029Y11960   4.208   9.614   1.415
    1SIL  Si14n11961   0.131   0.226   1.479
    1SIL  Si14o11962   9.715   0.200   1.841
    1SIL  Si14p11963   0.230   0.000   1.660
    1SIL  O029Z11964   0.031   0.176   1.906
    1SIL  O029a11965   0.078   0.364   1.544
    1SIL  O029b11966   9.721   0.311   1.725
    1SIL  O029c11967   0.137   0.115   1.596
    1SIL  O029d11968   0.324   0.061   1.777
    1SIL  O029e11969   0.276   0.250   1.958
    1SIL  Si14q11970   9.715   0.652   1.479
    1SIL  Si14r11971   9.469   0.625   1.841
    1SIL  Si14s11972   9.815   0.426   1.660
    1SIL  O029f11973   9.615   0.602   1.906
    1SIL  O029g11974   9.662   0.790   1.544
    1SIL  O029h11975   9.475   0.737   1.725
    1SIL  O029i11976   9.721   0.540   1.596
    1SIL  O029j11977   0.078   0.487   1.777
    1SIL  O029k11978   0.031   0.675   1.958
    1SIL  Si14t11979   9.469   1.077   1.479
    1SIL  Si14u11980   9.223   1.051   1.841
    1SIL  Si14v11981   9.569   0.851   1.660
    1SIL  O029l11982   9.369   1.027   1.906
    1SIL  O029m11983   9.416   1.216   1.544
    1SIL  O029n11984   9.230   1.162   1.725
    1SIL  O029o11985   9.475   0.966   1.596
    1SIL  O029p11986   9.662   0.913   1.777
    1SIL  O029q11987   9.615   1.101   1.958
    1SIL  Si14w11988   9.223   1.503   1.479
    1SIL  Si14x11989   8.977   1.477   1.841
    1SIL  Si14y11990   9.323   1.277   1.660
    1SIL  O029r11991   9.123   1.453   1.906
    1SIL  O029s11992   9.171   1.641   1.544
    1SIL  O029t11993   8.984   1.588   1.725
    1SIL  O029u11994   9.230   1.392   1.596
    1SIL  O029v11995   9.416   1.338   1.777
    1SIL  O029w11996   9.369   1.527   1.958
    1SIL  Si14z11997   8.977   1.929   1.479
    1SIL  Si15011998   8.732   1.902   1.841
    1SIL  Si15111999   9.077   1.703   1.660
    1SIL  O029x12000   8.878   1.879   1.906
    1SIL  O029y12001   8.925   2.067   1.544
    1SIL  O029z12002   8.738   2.014   1.725
    1SIL  O02A012003   8.984   1.817   1.596
    1SIL  O02A112004   9.171   1.764   1.777
    1SIL  O02A212005   9.123   1.952   1.958
    1SIL  Si15212006   8.732   2.354   1.479
    1SIL  Si15312007   8.486   2.328   1.841
    1SIL  Si15412008   8.832   2.128   1.660
    1SIL  O02A312009   8.632   2.304   1.906
    1SIL  O02A412010   8.679   2.493   1.544
    1SIL  O02A512011   8.492   2.439   1.725
    1SIL  O02A612012   8.738   2.243   1.596
    1SIL  O02A712013   8.925   2.190   1.777
    1SIL  O02A812014   8.878   2.378   1.958
    1SIL  Si15512015   8.486   2.780   1.479
    1SIL  Si15612016   8.240   2.753   1.841
    1SIL  Si15712017   8.586   2.554   1.660
    1SIL  O02A912018   8.386   2.730   1.906
    1SIL  O02AA12019   8.433   2.918   1.544
    1SIL  O02AB12020   8.247   2.865   1.725
    1SIL  O02AC12021   8.492   2.668   1.596
    1SIL  O02AD12022   8.679   2.615   1.777
    1SIL  O02AE12023   8.632   2.804   1.958
    1SIL  Si15812024   8.240   3.206   1.479
    1SIL  Si15912025   7.994   3.179   1.841
    1SIL  Si15A12026   8.340   2.980   1.660
    1SIL  O02AF12027   8.140   3.156   1.906
    1SIL  O02AG12028   8.188   3.344   1.544
    1SIL  O02AH12029   8.001   3.291   1.725
    1SIL  O02AI12030   8.247   3.094   1.596
    1SIL  O02AJ12031   8.433   3.041   1.777
    1SIL  O02AK12032   8.386   3.229   1.958
    1SIL  Si15B12033   7.994   3.631   1.479
    1SIL  Si15C12034   7.749   3.605   1.841
    1SIL  Si15D12035   8.094   3.405   1.660
    1SIL  O02AL12036   7.895   3.581   1.906
    1SIL  O02AM12037   7.942   3.769   1.544
    1SIL  O02AN12038   7.755   3.716   1.725
    1SIL  O02AO12039   8.001   3.520   1.596
    1SIL  O02AP12040   8.188   3.467   1.777
    1SIL  O02AQ12041   8.140   3.655   1.958
    1SIL  Si15E12042   7.749   4.057   1.479
    1SIL  Si15F12043   7.503   4.030   1.841
    1SIL  Si15G12044   7.849   3.831   1.660
    1SIL  O02AR12045   7.649   4.007   1.906
    1SIL  O02AS12046   7.696   4.195   1.544
    1SIL  O02AT12047   7.509   4.142   1.725
    1SIL  O02AU12048   7.755   3.945   1.596
    1SIL  O02AV12049   7.942   3.892   1.777
    1SIL  O02AW12050   7.895   4.081   1.958
    1SIL  Si15H12051   7.503   4.483   1.479
    1SIL  Si15I12052   7.257   4.456   1.841
    1SIL  Si15J12053   7.603   4.256   1.660
    1SIL  O02AX12054   7.403   4.432   1.906
    1SIL  O02AY12055   7.450   4.621   1.544
    1SIL  O02AZ12056   7.264   4.568   1.725
    1SIL  O02Aa12057   7.509   4.371   1.596
    1SIL  O02Ab12058   7.696   4.318   1.777
    1SIL  O02Ac12059   7.649   4.506   1.958
    1SIL  Si15K12060   7.257   4.908   1.479
    1SIL  Si15L12061   7.011   4.882   1.841
    1SIL  Si15M12062   7.357   4.682   1.660
    1SIL  O02Ad12063   7.157   4.858   1.906
    1SIL  O02Ae12064   7.205   5.046   1.544
    1SIL  O02Af12065   7.018   4.993   1.725
    1SIL  O02Ag12066   7.264   4.797   1.596
    1SIL  O02Ah12067   7.450   4.744   1.777
    1SIL  O02Ai12068   7.403   4.932   1.958
    1SIL  Si15N12069   7.011   5.334   1.479
    1SIL  Si15O12070   6.766   5.307   1.841
    1SIL  Si15P12071   7.111   5.108   1.660
    1SIL  O02Aj12072   6.912   5.284   1.906
    1SIL  O02Ak12073   6.959   5.472   1.544
    1SIL  O02Al12074   6.772   5.419   1.725
    1SIL  O02Am12075   7.018   5.222   1.596
    1SIL  O02An12076   7.205   5.169   1.777
    1SIL  O02Ao12077   7.157   5.357   1.958
    1SIL  Si15Q12078   6.766   5.759   1.479
    1SIL  Si15R12079   6.520   5.733   1.841
    1SIL  Si15S12080   6.866   5.533   1.660
    1SIL  O02Ap12081   6.666   5.709   1.906
    1SIL  O02Aq12082   6.713   5.898   1.544
    1SIL  O02Ar12083   6.526   5.844   1.725
    1SIL  O02As12084   6.772   5.648   1.596
    1SIL  O02At12085   6.959   5.595   1.777
    1SIL  O02Au12086   6.912   5.783   1.958
    1SIL  Si15T12087   6.520   6.185   1.479
    1SIL  Si15U12088   6.274   6.159   1.841
    1SIL  Si15V12089   6.620   5.959   1.660
    1SIL  O02Av12090   6.420   6.135   1.906
    1SIL  O02Aw12091   6.467   6.323   1.544
    1SIL  O02Ax12092   6.281   6.270   1.725
    1SIL  O02Ay12093   6.526   6.074   1.596
    1SIL  O02Az12094   6.713   6.020   1.777
    1SIL  O02B012095   6.666   6.209   1.958
    1SIL  Si15W12096   6.274   6.611   1.479
    1SIL  Si15X12097   6.028   6.584   1.841
    1SIL  Si15Y12098   6.374   6.385   1.660
    1SIL  O02B112099   6.174   6.561   1.906
    1SIL  O02B212100   6.222   6.749   1.544
    1SIL  O02B312101   6.035   6.696   1.725
    1SIL  O02B412102   6.281   6.499   1.596
    1SIL  O02B512103   6.467   6.446   1.777
    1SIL  O02B612104   6.420   6.634   1.958
    1SIL  Si15Z12105   6.028   7.036   1.479
    1SIL  Si15a12106   5.783   7.010   1.841
    1SIL  Si15b12107   6.128   6.810   1.660
    1SIL  O02B712108   5.929   6.986   1.906
    1SIL  O02B812109   5.976   7.175   1.544
    1SIL  O02B912110   5.789   7.121   1.725
    1SIL  O02BA12111   6.035   6.925   1.596
    1SIL  O02BB12112   6.222   6.872   1.777
    1SIL  O02BC12113   6.174   7.060   1.958
    1SIL  Si15c12114   5.783   7.462   1.479
    1SIL  Si15d12115   5.537   7.436   1.841
    1SIL  Si15e12116   5.883   7.236   1.660
    1SIL  O02BD12117   5.683   7.412   1.906
    1SIL  O02BE12118   5.730   7.600   1.544
    1SIL  O02BF12119   5.543   7.547   1.725
    1SIL  O02BG12120   5.789   7.351   1.596
    1SIL  O02BH12121   5.976   7.297   1.777
    1SIL  O02BI12122   5.929   7.486   1.958
    1SIL  Si15f12123   5.537   7.888   1.479
    1SIL  Si15g12124   5.291   7.861   1.841
    1SIL  Si15h12125   5.637   7.662   1.660
    1SIL  O02BJ12126   5.437   7.838   1.906
    1SIL  O02BK12127   5.484   8.026   1.544
    1SIL  O02BL12128   5.298   7.973   1.725
    1SIL  O02BM12129   5.543   7.776   1.596
    1SIL  O02BN12130   5.730   7.723   1.777
    1SIL  O02BO12131   5.683   7.911   1.958
    1SIL  Si15i12132   5.291   8.313   1.479
    1SIL  Si15j12133   5.045   8.287   1.841
    1SIL  Si15k12134   5.391   8.087   1.660
    1SIL  O02BP12135   5.191   8.263   1.906
    1SIL  O02BQ12136   5.239   8.452   1.544
    1SIL  O02BR12137   5.052   8.398   1.725
    1SIL  O02BS12138   5.298   8.202   1.596
    1SIL  O02BT12139   5.484   8.149   1.777
    1SIL  O02BU12140   5.437   8.337   1.958
    1SIL  Si15l12141   5.045   8.739   1.479
    1SIL  Si15m12142   4.800   8.713   1.841
    1SIL  Si15n12143   5.145   8.513   1.660
    1SIL  O02BV12144   4.946   8.689   1.906
    1SIL  O02BW12145   4.993   8.877   1.544
    1SIL  O02BX12146   4.806   8.824   1.725
    1SIL  O02BY12147   5.052   8.628   1.596
    1SIL  O02BZ12148   5.239   8.574   1.777
    1SIL  O02Ba12149   5.191   8.763   1.958
    1SIL  Si15o12150   4.800   9.165   1.479
    1SIL  Si15p12151   4.554   9.138   1.841
    1SIL  Si15q12152   4.900   8.939   1.660
    1SIL  O02Bb12153   4.700   9.115   1.906
    1SIL  O02Bc12154   4.747   9.303   1.544
    1SIL  O02Bd12155   4.560   9.250   1.725
    1SIL  O02Be12156   4.806   9.053   1.596
    1SIL  O02Bf12157   4.993   9.000   1.777
    1SIL  O02Bg12158   4.946   9.188   1.958
    1SIL  Si15r12159   4.554   9.590   1.479
    1SIL  Si15s12160   4.308   9.564   1.841
    1SIL  Si15t12161   4.654   9.364   1.660
    1SIL  O02Bh12162   4.454   9.540   1.906
    1SIL  O02Bi12163   4.501   9.729   1.544
    1SIL  O02Bj12164   4.315   9.675   1.725
    1SIL  O02Bk12165   4.560   9.479   1.596
    1SIL  O02Bl12166   4.747   9.426   1.777
    1SIL  O02Bm12167   4.700   9.614   1.958
    1SIL  Si15u12168   0.622   0.226   1.479
    1SIL  Si15v12169   0.376   0.200   1.841
    1SIL  Si15w12170   0.722   0.000   1.660
    1SIL  O02Bn12171   0.522   0.176   1.906
    1SIL  O02Bo12172   0.569   0.364   1.544
    1SIL  O02Bp12173   0.383   0.311   1.725
    1SIL  O02Bq12174   0.629   0.115   1.596
    1SIL  O02Br12175   0.815   0.061   1.777
    1SIL  O02Bs12176   0.768   0.250   1.958
    1SIL  Si15x12177   0.376   0.652   1.479
    1SIL  Si15y12178   0.131   0.625   1.841
    1SIL  Si15z12179   0.476   0.426   1.660
    1SIL  O02Bt12180   0.276   0.602   1.906
    1SIL  O02Bu12181   0.324   0.790   1.544
    1SIL  O02Bv12182   0.137   0.737   1.725
    1SIL  O02Bw12183   0.383   0.540   1.596
    1SIL  O02Bx12184   0.569   0.487   1.777
    1SIL  O02By12185   0.522   0.675   1.958
    1SIL  Si16012186   0.131   1.077   1.479
    1SIL  Si16112187   9.715   1.051   1.841
    1SIL  Si16212188   0.230   0.851   1.660
    1SIL  O02Bz12189   0.031   1.027   1.906
    1SIL  O02C012190   0.078   1.216   1.544
    1SIL  O02C112191   9.721   1.162   1.725
    1SIL  O02C212192   0.137   0.966   1.596
    1SIL  O02C312193   0.324   0.913   1.777
    1SIL  O02C412194   0.276   1.101   1.958
    1SIL  Si16312195   9.715   1.503   1.479
    1SIL  Si16412196   9.469   1.477   1.841
    1SIL  Si16512197   9.815   1.277   1.660
    1SIL  O02C512198   9.615   1.453   1.906
    1SIL  O02C612199   9.662   1.641   1.544
    1SIL  O02C712200   9.475   1.588   1.725
    1SIL  O02C812201   9.721   1.392   1.596
    1SIL  O02C912202   0.078   1.338   1.777
    1SIL  O02CA12203   0.031   1.527   1.958
    1SIL  Si16612204   9.469   1.929   1.479
    1SIL  Si16712205   9.223   1.902   1.841
    1SIL  Si16812206   9.569   1.703   1.660
    1SIL  O02CB12207   9.369   1.879   1.906
    1SIL  O02CC12208   9.416   2.067   1.544
    1SIL  O02CD12209   9.230   2.014   1.725
    1SIL  O02CE12210   9.475   1.817   1.596
    1SIL  O02CF12211   9.662   1.764   1.777
    1SIL  O02CG12212   9.615   1.952   1.958
    1SIL  Si16912213   9.223   2.354   1.479
    1SIL  Si16A12214   8.977   2.328   1.841
    1SIL  Si16B12215   9.323   2.128   1.660
    1SIL  O02CH12216   9.123   2.304   1.906
    1SIL  O02CI12217   9.171   2.493   1.544
    1SIL  O02CJ12218   8.984   2.439   1.725
    1SIL  O02CK12219   9.230   2.243   1.596
    1SIL  O02CL12220   9.416   2.190   1.777
    1SIL  O02CM12221   9.369   2.378   1.958
    1SIL  Si16C12222   8.977   2.780   1.479
    1SIL  Si16D12223   8.732   2.753   1.841
    1SIL  Si16E12224   9.077   2.554   1.660
    1SIL  O02CN12225   8.878   2.730   1.906
    1SIL  O02CO12226   8.925   2.918   1.544
    1SIL  O02CP12227   8.738   2.865   1.725
    1SIL  O02CQ12228   8.984   2.668   1.596
    1SIL  O02CR12229   9.171   2.615   1.777
    1SIL  O02CS12230   9.123   2.804   1.958
    1SIL  Si16F12231   8.732   3.206   1.479
    1SIL  Si16G12232   8.486   3.179   1.841
    1SIL  Si16H12233   8.832   2.980   1.660
    1SIL  O02CT12234   8.632   3.156   1.906
    1SIL  O02CU12235   8.679   3.344   1.544
    1SIL  O02CV12236   8.492   3.291   1.725
    1SIL  O02CW12237   8.738   3.094   1.596
    1SIL  O02CX12238   8.925   3.041   1.777
    1SIL  O02CY12239   8.878   3.229   1.958
    1SIL  Si16I12240   8.486   3.631   1.479
    1SIL  Si16J12241   8.240   3.605   1.841
    1SIL  Si16K12242   8.586   3.405   1.660
    1SIL  O02CZ12243   8.386   3.581   1.906
    1SIL  O02Ca12244   8.433   3.769   1.544
    1SIL  O02Cb12245   8.247   3.716   1.725
    1SIL  O02Cc12246   8.492   3.520   1.596
    1SIL  O02Cd12247   8.679   3.467   1.777
    1SIL  O02Ce12248   8.632   3.655   1.958
    1SIL  Si16L12249   8.240   4.057   1.479
    1SIL  Si16M12250   7.994   4.030   1.841
    1SIL  Si16N12251   8.340   3.831   1.660
    1SIL  O02Cf12252   8.140   4.007   1.906
    1SIL  O02Cg12253   8.188   4.195   1.544
    1SIL  O02Ch12254   8.001   4.142   1.725
    1SIL  O02Ci12255   8.247   3.945   1.596
    1SIL  O02Cj12256   8.433   3.892   1.777
    1SIL  O02Ck12257   8.386   4.081   1.958
    1SIL  Si16O12258   7.994   4.483   1.479
    1SIL  Si16P12259   7.749   4.456   1.841
    1SIL  Si16Q12260   8.094   4.256   1.660
    1SIL  O02Cl12261   7.895   4.432   1.906
    1SIL  O02Cm12262   7.942   4.621   1.544
    1SIL  O02Cn12263   7.755   4.568   1.725
    1SIL  O02Co12264   8.001   4.371   1.596
    1SIL  O02Cp12265   8.188   4.318   1.777
    1SIL  O02Cq12266   8.140   4.506   1.958
    1SIL  Si16R12267   7.749   4.908   1.479
    1SIL  Si16S12268   7.503   4.882   1.841
    1SIL  Si16T12269   7.849   4.682   1.660
    1SIL  O02Cr12270   7.649   4.858   1.906
    1SIL  O02Cs12271   7.696   5.046   1.544
    1SIL  O02Ct12272   7.509   4.993   1.725
    1SIL  O02Cu12273   7.755   4.797   1.596
    1SIL  O02Cv12274   7.942   4.744   1.777
    1SIL  O02Cw12275   7.895   4.932   1.958
    1SIL  Si16U12276   7.503   5.334   1.479
    1SIL  Si16V12277   7.257   5.307   1.841
    1SIL  Si16W12278   7.603   5.108   1.660
    1SIL  O02Cx12279   7.403   5.284   1.906
    1SIL  O02Cy12280   7.450   5.472   1.544
    1SIL  O02Cz12281   7.264   5.419   1.725
    1SIL  O02D012282   7.509   5.222   1.596
    1SIL  O02D112283   7.696   5.169   1.777
    1SIL  O02D212284   7.649   5.357   1.958
    1SIL  Si16X12285   7.257   5.759   1.479
    1SIL  Si16Y12286   7.011   5.733   1.841
    1SIL  Si16Z12287   7.357   5.533   1.660
    1SIL  O02D312288   7.157   5.709   1.906
    1SIL  O02D412289   7.205   5.898   1.544
    1SIL  O02D512290   7.018   5.844   1.725
    1SIL  O02D612291   7.264   5.648   1.596
    1SIL  O02D712292   7.450   5.595   1.777
    1SIL  O02D812293   7.403   5.783   1.958
    1SIL  Si16a12294   7.011   6.185   1.479
    1SIL  Si16b12295   6.766   6.159   1.841
    1SIL  Si16c12296   7.111   5.959   1.660
    1SIL  O02D912297   6.912   6.135   1.906
    1SIL  O02DA12298   6.959   6.323   1.544
    1SIL  O02DB12299   6.772   6.270   1.725
    1SIL  O02DC12300   7.018   6.074   1.596
    1SIL  O02DD12301   7.205   6.020   1.777
    1SIL  O02DE12302   7.157   6.209   1.958
    1SIL  Si16d12303   6.766   6.611   1.479
    1SIL  Si16e12304   6.520   6.584   1.841
    1SIL  Si16f12305   6.866   6.385   1.660
    1SIL  O02DF12306   6.666   6.561   1.906
    1SIL  O02DG12307   6.713   6.749   1.544
    1SIL  O02DH12308   6.526   6.696   1.725
    1SIL  O02DI12309   6.772   6.499   1.596
    1SIL  O02DJ12310   6.959   6.446   1.777
    1SIL  O02DK12311   6.912   6.634   1.958
    1SIL  Si16g12312   6.520   7.036   1.479
    1SIL  Si16h12313   6.274   7.010   1.841
    1SIL  Si16i12314   6.620   6.810   1.660
    1SIL  O02DL12315   6.420   6.986   1.906
    1SIL  O02DM12316   6.467   7.175   1.544
    1SIL  O02DN12317   6.281   7.121   1.725
    1SIL  O02DO12318   6.526   6.925   1.596
    1SIL  O02DP12319   6.713   6.872   1.777
    1SIL  O02DQ12320   6.666   7.060   1.958
    1SIL  Si16j12321   6.274   7.462   1.479
    1SIL  Si16k12322   6.028   7.436   1.841
    1SIL  Si16l12323   6.374   7.236   1.660
    1SIL  O02DR12324   6.174   7.412   1.906
    1SIL  O02DS12325   6.222   7.600   1.544
    1SIL  O02DT12326   6.035   7.547   1.725
    1SIL  O02DU12327   6.281   7.351   1.596
    1SIL  O02DV12328   6.467   7.297   1.777
    1SIL  O02DW12329   6.420   7.486   1.958
    1SIL  Si16m12330   6.028   7.888   1.479
    1SIL  Si16n12331   5.783   7.861   1.841
    1SIL  Si16o12332   6.128   7.662   1.660
    1SIL  O02DX12333   5.929   7.838   1.906
    1SIL  O02DY12334   5.976   8.026   1.544
    1SIL  O02DZ12335   5.789   7.973   1.725
    1SIL  O02Da12336   6.035   7.776   1.596
    1SIL  O02Db12337   6.222   7.723   1.777
    1SIL  O02Dc12338   6.174   7.911   1.958
    1SIL  Si16p12339   5.783   8.313   1.479
    1SIL  Si16q12340   5.537   8.287   1.841
    1SIL  Si16r12341   5.883   8.087   1.660
    1SIL  O02Dd12342   5.683   8.263   1.906
    1SIL  O02De12343   5.730   8.452   1.544
    1SIL  O02Df12344   5.543   8.398   1.725
    1SIL  O02Dg12345   5.789   8.202   1.596
    1SIL  O02Dh12346   5.976   8.149   1.777
    1SIL  O02Di12347   5.929   8.337   1.958
    1SIL  Si16s12348   5.537   8.739   1.479
    1SIL  Si16t12349   5.291   8.713   1.841
    1SIL  Si16u12350   5.637   8.513   1.660
    1SIL  O02Dj12351   5.437   8.689   1.906
    1SIL  O02Dk12352   5.484   8.877   1.544
    1SIL  O02Dl12353   5.298   8.824   1.725
    1SIL  O02Dm12354   5.543   8.628   1.596
    1SIL  O02Dn12355   5.730   8.574   1.777
    1SIL  O02Do12356   5.683   8.763   1.958
    1SIL  Si16v12357   5.291   9.165   1.479
    1SIL  Si16w12358   5.045   9.138   1.841
    1SIL  Si16x12359   5.391   8.939   1.660
    1SIL  O02Dp12360   5.191   9.115   1.906
    1SIL  O02Dq12361   5.239   9.303   1.544
    1SIL  O02Dr12362   5.052   9.250   1.725
    1SIL  O02Ds12363   5.298   9.053   1.596
    1SIL  O02Dt12364   5.484   9.000   1.777
    1SIL  O02Du12365   5.437   9.188   1.958
    1SIL  Si16y12366   5.045   9.590   1.479
    1SIL  Si16z12367   4.800   9.564   1.841
    1SIL  Si17012368   5.145   9.364   1.660
    1SIL  O02Dv12369   4.946   9.540   1.906
    1SIL  O02Dw12370   4.993   9.729   1.544
    1SIL  O02Dx12371   4.806   9.675   1.725
    1SIL  O02Dy12372   5.052   9.479   1.596
    1SIL  O02Dz12373   5.239   9.426   1.777
    1SIL  O02E012374   5.191   9.614   1.958
    1SIL  Si17112375   1.114   0.226   1.479
    1SIL  Si17212376   0.868   0.200   1.841
    1SIL  Si17312377   1.213   0.000   1.660
    1SIL  O02E112378   1.014   0.176   1.906
    1SIL  O02E212379   1.061   0.364   1.544
    1SIL  O02E312380   0.874   0.311   1.725
    1SIL  O02E412381   1.120   0.115   1.596
    1SIL  O02E512382   1.307   0.061   1.777
    1SIL  O02E612383   1.259   0.250   1.958
    1SIL  Si17412384   0.868   0.652   1.479
    1SIL  Si17512385   0.622   0.625   1.841
    1SIL  Si17612386   0.968   0.426   1.660
    1SIL  O02E712387   0.768   0.602   1.906
    1SIL  O02E812388   0.815   0.790   1.544
    1SIL  O02E912389   0.629   0.737   1.725
    1SIL  O02EA12390   0.874   0.540   1.596
    1SIL  O02EB12391   1.061   0.487   1.777
    1SIL  O02EC12392   1.014   0.675   1.958
    1SIL  Si17712393   0.622   1.077   1.479
    1SIL  Si17812394   0.376   1.051   1.841
    1SIL  Si17912395   0.722   0.851   1.660
    1SIL  O02ED12396   0.522   1.027   1.906
    1SIL  O02EE12397   0.569   1.216   1.544
    1SIL  O02EF12398   0.383   1.162   1.725
    1SIL  O02EG12399   0.629   0.966   1.596
    1SIL  O02EH12400   0.815   0.913   1.777
    1SIL  O02EI12401   0.768   1.101   1.958
    1SIL  Si17A12402   0.376   1.503   1.479
    1SIL  Si17B12403   0.131   1.477   1.841
    1SIL  Si17C12404   0.476   1.277   1.660
    1SIL  O02EJ12405   0.276   1.453   1.906
    1SIL  O02EK12406   0.324   1.641   1.544
    1SIL  O02EL12407   0.137   1.588   1.725
    1SIL  O02EM12408   0.383   1.392   1.596
    1SIL  O02EN12409   0.569   1.338   1.777
    1SIL  O02EO12410   0.522   1.527   1.958
    1SIL  Si17D12411   0.131   1.929   1.479
    1SIL  Si17E12412   9.715   1.902   1.841
    1SIL  Si17F12413   0.230   1.703   1.660
    1SIL  O02EP12414   0.031   1.879   1.906
    1SIL  O02EQ12415   0.078   2.067   1.544
    1SIL  O02ER12416   9.721   2.014   1.725
    1SIL  O02ES12417   0.137   1.817   1.596
    1SIL  O02ET12418   0.324   1.764   1.777
    1SIL  O02EU12419   0.276   1.952   1.958
    1SIL  Si17G12420   9.715   2.354   1.479
    1SIL  Si17H12421   9.469   2.328   1.841
    1SIL  Si17I12422   9.815   2.128   1.660
    1SIL  O02EV12423   9.615   2.304   1.906
    1SIL  O02EW12424   9.662   2.493   1.544
    1SIL  O02EX12425   9.475   2.439   1.725
    1SIL  O02EY12426   9.721   2.243   1.596
    1SIL  O02EZ12427   0.078   2.190   1.777
    1SIL  O02Ea12428   0.031   2.378   1.958
    1SIL  Si17J12429   9.469   2.780   1.479
    1SIL  Si17K12430   9.223   2.753   1.841
    1SIL  Si17L12431   9.569   2.554   1.660
    1SIL  O02Eb12432   9.369   2.730   1.906
    1SIL  O02Ec12433   9.416   2.918   1.544
    1SIL  O02Ed12434   9.230   2.865   1.725
    1SIL  O02Ee12435   9.475   2.668   1.596
    1SIL  O02Ef12436   9.662   2.615   1.777
    1SIL  O02Eg12437   9.615   2.804   1.958
    1SIL  Si17M12438   9.223   3.206   1.479
    1SIL  Si17N12439   8.977   3.179   1.841
    1SIL  Si17O12440   9.323   2.980   1.660
    1SIL  O02Eh12441   9.123   3.156   1.906
    1SIL  O02Ei12442   9.171   3.344   1.544
    1SIL  O02Ej12443   8.984   3.291   1.725
    1SIL  O02Ek12444   9.230   3.094   1.596
    1SIL  O02El12445   9.416   3.041   1.777
    1SIL  O02Em12446   9.369   3.229   1.958
    1SIL  Si17P12447   8.977   3.631   1.479
    1SIL  Si17Q12448   8.732   3.605   1.841
    1SIL  Si17R12449   9.077   3.405   1.660
    1SIL  O02En12450   8.878   3.581   1.906
    1SIL  O02Eo12451   8.925   3.769   1.544
    1SIL  O02Ep12452   8.738   3.716   1.725
    1SIL  O02Eq12453   8.984   3.520   1.596
    1SIL  O02Er12454   9.171   3.467   1.777
    1SIL  O02Es12455   9.123   3.655   1.958
    1SIL  Si17S12456   8.732   4.057   1.479
    1SIL  Si17T12457   8.486   4.030   1.841
    1SIL  Si17U12458   8.832   3.831   1.660
    1SIL  O02Et12459   8.632   4.007   1.906
    1SIL  O02Eu12460   8.679   4.195   1.544
    1SIL  O02Ev12461   8.492   4.142   1.725
    1SIL  O02Ew12462   8.738   3.945   1.596
    1SIL  O02Ex12463   8.925   3.892   1.777
    1SIL  O02Ey12464   8.878   4.081   1.958
    1SIL  Si17V12465   8.486   4.483   1.479
    1SIL  Si17W12466   8.240   4.456   1.841
    1SIL  Si17X12467   8.586   4.256   1.660
    1SIL  O02Ez12468   8.386   4.432   1.906
    1SIL  O02F012469   8.433   4.621   1.544
    1SIL  O02F112470   8.247   4.568   1.725
    1SIL  O02F212471   8.492   4.371   1.596
    1SIL  O02F312472   8.679   4.318   1.777
    1SIL  O02F412473   8.632   4.506   1.958
    1SIL  Si17Y12474   8.240   4.908   1.479
    1SIL  Si17Z12475   7.994   4.882   1.841
    1SIL  Si17a12476   8.340   4.682   1.660
    1SIL  O02F512477   8.140   4.858   1.906
    1SIL  O02F612478   8.188   5.046   1.544
    1SIL  O02F712479   8.001   4.993   1.725
    1SIL  O02F812480   8.247   4.797   1.596
    1SIL  O02F912481   8.433   4.744   1.777
    1SIL  O02FA12482   8.386   4.932   1.958
    1SIL  Si17b12483   7.994   5.334   1.479
    1SIL  Si17c12484   7.749   5.307   1.841
    1SIL  Si17d12485   8.094   5.108   1.660
    1SIL  O02FB12486   7.895   5.284   1.906
    1SIL  O02FC12487   7.942   5.472   1.544
    1SIL  O02FD12488   7.755   5.419   1.725
    1SIL  O02FE12489   8.001   5.222   1.596
    1SIL  O02FF12490   8.188   5.169   1.777
    1SIL  O02FG12491   8.140   5.357   1.958
    1SIL  Si17e12492   7.749   5.759   1.479
    1SIL  Si17f12493   7.503   5.733   1.841
    1SIL  Si17g12494   7.849   5.533   1.660
    1SIL  O02FH12495   7.649   5.709   1.906
    1SIL  O02FI12496   7.696   5.898   1.544
    1SIL  O02FJ12497   7.509   5.844   1.725
    1SIL  O02FK12498   7.755   5.648   1.596
    1SIL  O02FL12499   7.942   5.595   1.777
    1SIL  O02FM12500   7.895   5.783   1.958
    1SIL  Si17h12501   7.503   6.185   1.479
    1SIL  Si17i12502   7.257   6.159   1.841
    1SIL  Si17j12503   7.603   5.959   1.660
    1SIL  O02FN12504   7.403   6.135   1.906
    1SIL  O02FO12505   7.450   6.323   1.544
    1SIL  O02FP12506   7.264   6.270   1.725
    1SIL  O02FQ12507   7.509   6.074   1.596
    1SIL  O02FR12508   7.696   6.020   1.777
    1SIL  O02FS12509   7.649   6.209   1.958
    1SIL  Si17k12510   7.257   6.611   1.479
    1SIL  Si17l12511   7.011   6.584   1.841
    1SIL  Si17m12512   7.357   6.385   1.660
    1SIL  O02FT12513   7.157   6.561   1.906
    1SIL  O02FU12514   7.205   6.749   1.544
    1SIL  O02FV12515   7.018   6.696   1.725
    1SIL  O02FW12516   7.264   6.499   1.596
    1SIL  O02FX12517   7.450   6.446   1.777
    1SIL  O02FY12518   7.403   6.634   1.958
    1SIL  Si17n12519   7.011   7.036   1.479
    1SIL  Si17o12520   6.766   7.010   1.841
    1SIL  Si17p12521   7.111   6.810   1.660
    1SIL  O02FZ12522   6.912   6.986   1.906
    1SIL  O02Fa12523   6.959   7.175   1.544
    1SIL  O02Fb12524   6.772   7.121   1.725
    1SIL  O02Fc12525   7.018   6.925   1.596
    1SIL  O02Fd12526   7.205   6.872   1.777
    1SIL  O02Fe12527   7.157   7.060   1.958
    1SIL  Si17q12528   6.766   7.462   1.479
    1SIL  Si17r12529   6.520   7.436   1.841
    1SIL  Si17s12530   6.866   7.236   1.660
    1SIL  O02Ff12531   6.666   7.412   1.906
    1SIL  O02Fg12532   6.713   7.600   1.544
    1SIL  O02Fh12533   6.526   7.547   1.725
    1SIL  O02Fi12534   6.772   7.351   1.596
    1SIL  O02Fj12535   6.959   7.297   1.777
    1SIL  O02Fk12536   6.912   7.486   1.958
    1SIL  Si17t12537   6.520   7.888   1.479
    1SIL  Si17u12538   6.274   7.861   1.841
    1SIL  Si17v12539   6.620   7.662   1.660
    1SIL  O02Fl12540   6.420   7.838   1.906
    1SIL  O02Fm12541   6.467   8.026   1.544
    1SIL  O02Fn12542   6.281   7.973   1.725
    1SIL  O02Fo12543   6.526   7.776   1.596
    1SIL  O02Fp12544   6.713   7.723   1.777
    1SIL  O02Fq12545   6.666   7.911   1.958
    1SIL  Si17w12546   6.274   8.313   1.479
    1SIL  Si17x12547   6.028   8.287   1.841
    1SIL  Si17y12548   6.374   8.087   1.660
    1SIL  O02Fr12549   6.174   8.263   1.906
    1SIL  O02Fs12550   6.222   8.452   1.544
    1SIL  O02Ft12551   6.035   8.398   1.725
    1SIL  O02Fu12552   6.281   8.202   1.596
    1SIL  O02Fv12553   6.467   8.149   1.777
    1SIL  O02Fw12554   6.420   8.337   1.958
    1SIL  Si17z12555   6.028   8.739   1.479
    1SIL  Si18012556   5.783   8.713   1.841
    1SIL  Si18112557   6.128   8.513   1.660
    1SIL  O02Fx12558   5.929   8.689   1.906
    1SIL  O02Fy12559   5.976   8.877   1.544
    1SIL  O02Fz12560   5.789   8.824   1.725
    1SIL  O02G012561   6.035   8.628   1.596
    1SIL  O02G112562   6.222   8.574   1.777
    1SIL  O02G212563   6.174   8.763   1.958
    1SIL  Si18212564   5.783   9.165   1.479
    1SIL  Si18312565   5.537   9.138   1.841
    1SIL  Si18412566   5.883   8.939   1.660
    1SIL  O02G312567   5.683   9.115   1.906
    1SIL  O02G412568   5.730   9.303   1.544
    1SIL  O02G512569   5.543   9.250   1.725
    1SIL  O02G612570   5.789   9.053   1.596
    1SIL  O02G712571   5.976   9.000   1.777
    1SIL  O02G812572   5.929   9.188   1.958
    1SIL  Si18512573   5.537   9.590   1.479
    1SIL  Si18612574   5.291   9.564   1.841
    1SIL  Si18712575   5.637   9.364   1.660
    1SIL  O02G912576   5.437   9.540   1.906
    1SIL  O02GA12577   5.484   9.729   1.544
    1SIL  O02GB12578   5.298   9.675   1.725
    1SIL  O02GC12579   5.543   9.479   1.596
    1SIL  O02GD12580   5.730   9.426   1.777
    1SIL  O02GE12581   5.683   9.614   1.958
    1SIL  Si18812582   1.605   0.226   1.479
    1SIL  Si18912583   1.359   0.200   1.841
    1SIL  Si18A12584   1.705   0.000   1.660
    1SIL  O02GF12585   1.505   0.176   1.906
    1SIL  O02GG12586   1.552   0.364   1.544
    1SIL  O02GH12587   1.366   0.311   1.725
    1SIL  O02GI12588   1.612   0.115   1.596
    1SIL  O02GJ12589   1.798   0.061   1.777
    1SIL  O02GK12590   1.751   0.250   1.958
    1SIL  Si18B12591   1.359   0.652   1.479
    1SIL  Si18C12592   1.114   0.625   1.841
    1SIL  Si18D12593   1.459   0.426   1.660
    1SIL  O02GL12594   1.259   0.602   1.906
    1SIL  O02GM12595   1.307   0.790   1.544
    1SIL  O02GN12596   1.120   0.737   1.725
    1SIL  O02GO12597   1.366   0.540   1.596
    1SIL  O02GP12598   1.552   0.487   1.777
    1SIL  O02GQ12599   1.505   0.675   1.958
    1SIL  Si18E12600   1.114   1.077   1.479
    1SIL  Si18F12601   0.868   1.051   1.841
    1SIL  Si18G12602   1.213   0.851   1.660
    1SIL  O02GR12603   1.014   1.027   1.906
    1SIL  O02GS12604   1.061   1.216   1.544
    1SIL  O02GT12605   0.874   1.162   1.725
    1SIL  O02GU12606   1.120   0.966   1.596
    1SIL  O02GV12607   1.307   0.913   1.777
    1SIL  O02GW12608   1.259   1.101   1.958
    1SIL  Si18H12609   0.868   1.503   1.479
    1SIL  Si18I12610   0.622   1.477   1.841
    1SIL  Si18J12611   0.968   1.277   1.660
    1SIL  O02GX12612   0.768   1.453   1.906
    1SIL  O02GY12613   0.815   1.641   1.544
    1SIL  O02GZ12614   0.629   1.588   1.725
    1SIL  O02Ga12615   0.874   1.392   1.596
    1SIL  O02Gb12616   1.061   1.338   1.777
    1SIL  O02Gc12617   1.014   1.527   1.958
    1SIL  Si18K12618   0.622   1.929   1.479
    1SIL  Si18L12619   0.376   1.902   1.841
    1SIL  Si18M12620   0.722   1.703   1.660
    1SIL  O02Gd12621   0.522   1.879   1.906
    1SIL  O02Ge12622   0.569   2.067   1.544
    1SIL  O02Gf12623   0.383   2.014   1.725
    1SIL  O02Gg12624   0.629   1.817   1.596
    1SIL  O02Gh12625   0.815   1.764   1.777
    1SIL  O02Gi12626   0.768   1.952   1.958
    1SIL  Si18N12627   0.376   2.354   1.479
    1SIL  Si18O12628   0.131   2.328   1.841
    1SIL  Si18P12629   0.476   2.128   1.660
    1SIL  O02Gj12630   0.276   2.304   1.906
    1SIL  O02Gk12631   0.324   2.493   1.544
    1SIL  O02Gl12632   0.137   2.439   1.725
    1SIL  O02Gm12633   0.383   2.243   1.596
    1SIL  O02Gn12634   0.569   2.190   1.777
    1SIL  O02Go12635   0.522   2.378   1.958
    1SIL  Si18Q12636   0.131   2.780   1.479
    1SIL  Si18R12637   9.715   2.753   1.841
    1SIL  Si18S12638   0.230   2.554   1.660
    1SIL  O02Gp12639   0.031   2.730   1.906
    1SIL  O02Gq12640   0.078   2.918   1.544
    1SIL  O02Gr12641   9.721   2.865   1.725
    1SIL  O02Gs12642   0.137   2.668   1.596
    1SIL  O02Gt12643   0.324   2.615   1.777
    1SIL  O02Gu12644   0.276   2.804   1.958
    1SIL  Si18T12645   9.715   3.206   1.479
    1SIL  Si18U12646   9.469   3.179   1.841
    1SIL  Si18V12647   9.815   2.980   1.660
    1SIL  O02Gv12648   9.615   3.156   1.906
    1SIL  O02Gw12649   9.662   3.344   1.544
    1SIL  O02Gx12650   9.475   3.291   1.725
    1SIL  O02Gy12651   9.721   3.094   1.596
    1SIL  O02Gz12652   0.078   3.041   1.777
    1SIL  O02H012653   0.031   3.229   1.958
    1SIL  Si18W12654   9.469   3.631   1.479
    1SIL  Si18X12655   9.223   3.605   1.841
    1SIL  Si18Y12656   9.569   3.405   1.660
    1SIL  O02H112657   9.369   3.581   1.906
    1SIL  O02H212658   9.416   3.769   1.544
    1SIL  O02H312659   9.230   3.716   1.725
    1SIL  O02H412660   9.475   3.520   1.596
    1SIL  O02H512661   9.662   3.467   1.777
    1SIL  O02H612662   9.615   3.655   1.958
    1SIL  Si18Z12663   9.223   4.057   1.479
    1SIL  Si18a12664   8.977   4.030   1.841
    1SIL  Si18b12665   9.323   3.831   1.660
    1SIL  O02H712666   9.123   4.007   1.906
    1SIL  O02H812667   9.171   4.195   1.544
    1SIL  O02H912668   8.984   4.142   1.725
    1SIL  O02HA12669   9.230   3.945   1.596
    1SIL  O02HB12670   9.416   3.892   1.777
    1SIL  O02HC12671   9.369   4.081   1.958
    1SIL  Si18c12672   8.977   4.483   1.479
    1SIL  Si18d12673   8.732   4.456   1.841
    1SIL  Si18e12674   9.077   4.256   1.660
    1SIL  O02HD12675   8.878   4.432   1.906
    1SIL  O02HE12676   8.925   4.621   1.544
    1SIL  O02HF12677   8.738   4.568   1.725
    1SIL  O02HG12678   8.984   4.371   1.596
    1SIL  O02HH12679   9.171   4.318   1.777
    1SIL  O02HI12680   9.123   4.506   1.958
    1SIL  Si18f12681   8.732   4.908   1.479
    1SIL  Si18g12682   8.486   4.882   1.841
    1SIL  Si18h12683   8.832   4.682   1.660
    1SIL  O02HJ12684   8.632   4.858   1.906
    1SIL  O02HK12685   8.679   5.046   1.544
    1SIL  O02HL12686   8.492   4.993   1.725
    1SIL  O02HM12687   8.738   4.797   1.596
    1SIL  O02HN12688   8.925   4.744   1.777
    1SIL  O02HO12689   8.878   4.932   1.958
    1SIL  Si18i12690   8.486   5.334   1.479
    1SIL  Si18j12691   8.240   5.307   1.841
    1SIL  Si18k12692   8.586   5.108   1.660
    1SIL  O02HP12693   8.386   5.284   1.906
    1SIL  O02HQ12694   8.433   5.472   1.544
    1SIL  O02HR12695   8.247   5.419   1.725
    1SIL  O02HS12696   8.492   5.222   1.596
    1SIL  O02HT12697   8.679   5.169   1.777
    1SIL  O02HU12698   8.632   5.357   1.958
    1SIL  Si18l12699   8.240   5.759   1.479
    1SIL  Si18m12700   7.994   5.733   1.841
    1SIL  Si18n12701   8.340   5.533   1.660
    1SIL  O02HV12702   8.140   5.709   1.906
    1SIL  O02HW12703   8.188   5.898   1.544
    1SIL  O02HX12704   8.001   5.844   1.725
    1SIL  O02HY12705   8.247   5.648   1.596
    1SIL  O02HZ12706   8.433   5.595   1.777
    1SIL  O02Ha12707   8.386   5.783   1.958
    1SIL  Si18o12708   7.994   6.185   1.479
    1SIL  Si18p12709   7.749   6.159   1.841
    1SIL  Si18q12710   8.094   5.959   1.660
    1SIL  O02Hb12711   7.895   6.135   1.906
    1SIL  O02Hc12712   7.942   6.323   1.544
    1SIL  O02Hd12713   7.755   6.270   1.725
    1SIL  O02He12714   8.001   6.074   1.596
    1SIL  O02Hf12715   8.188   6.020   1.777
    1SIL  O02Hg12716   8.140   6.209   1.958
    1SIL  Si18r12717   7.749   6.611   1.479
    1SIL  Si18s12718   7.503   6.584   1.841
    1SIL  Si18t12719   7.849   6.385   1.660
    1SIL  O02Hh12720   7.649   6.561   1.906
    1SIL  O02Hi12721   7.696   6.749   1.544
    1SIL  O02Hj12722   7.509   6.696   1.725
    1SIL  O02Hk12723   7.755   6.499   1.596
    1SIL  O02Hl12724   7.942   6.446   1.777
    1SIL  O02Hm12725   7.895   6.634   1.958
    1SIL  Si18u12726   7.503   7.036   1.479
    1SIL  Si18v12727   7.257   7.010   1.841
    1SIL  Si18w12728   7.603   6.810   1.660
    1SIL  O02Hn12729   7.403   6.986   1.906
    1SIL  O02Ho12730   7.450   7.175   1.544
    1SIL  O02Hp12731   7.264   7.121   1.725
    1SIL  O02Hq12732   7.509   6.925   1.596
    1SIL  O02Hr12733   7.696   6.872   1.777
    1SIL  O02Hs12734   7.649   7.060   1.958
    1SIL  Si18x12735   7.257   7.462   1.479
    1SIL  Si18y12736   7.011   7.436   1.841
    1SIL  Si18z12737   7.357   7.236   1.660
    1SIL  O02Ht12738   7.157   7.412   1.906
    1SIL  O02Hu12739   7.205   7.600   1.544
    1SIL  O02Hv12740   7.018   7.547   1.725
    1SIL  O02Hw12741   7.264   7.351   1.596
    1SIL  O02Hx12742   7.450   7.297   1.777
    1SIL  O02Hy12743   7.403   7.486   1.958
    1SIL  Si19012744   7.011   7.888   1.479
    1SIL  Si19112745   6.766   7.861   1.841
    1SIL  Si19212746   7.111   7.662   1.660
    1SIL  O02Hz12747   6.912   7.838   1.906
    1SIL  O02I012748   6.959   8.026   1.544
    1SIL  O02I112749   6.772   7.973   1.725
    1SIL  O02I212750   7.018   7.776   1.596
    1SIL  O02I312751   7.205   7.723   1.777
    1SIL  O02I412752   7.157   7.911   1.958
    1SIL  Si19312753   6.766   8.313   1.479
    1SIL  Si19412754   6.520   8.287   1.841
    1SIL  Si19512755   6.866   8.087   1.660
    1SIL  O02I512756   6.666   8.263   1.906
    1SIL  O02I612757   6.713   8.452   1.544
    1SIL  O02I712758   6.526   8.398   1.725
    1SIL  O02I812759   6.772   8.202   1.596
    1SIL  O02I912760   6.959   8.149   1.777
    1SIL  O02IA12761   6.912   8.337   1.958
    1SIL  Si19612762   6.520   8.739   1.479
    1SIL  Si19712763   6.274   8.713   1.841
    1SIL  Si19812764   6.620   8.513   1.660
    1SIL  O02IB12765   6.420   8.689   1.906
    1SIL  O02IC12766   6.467   8.877   1.544
    1SIL  O02ID12767   6.281   8.824   1.725
    1SIL  O02IE12768   6.526   8.628   1.596
    1SIL  O02IF12769   6.713   8.574   1.777
    1SIL  O02IG12770   6.666   8.763   1.958
    1SIL  Si19912771   6.274   9.165   1.479
    1SIL  Si19A12772   6.028   9.138   1.841
    1SIL  Si19B12773   6.374   8.939   1.660
    1SIL  O02IH12774   6.174   9.115   1.906
    1SIL  O02II12775   6.222   9.303   1.544
    1SIL  O02IJ12776   6.035   9.250   1.725
    1SIL  O02IK12777   6.281   9.053   1.596
    1SIL  O02IL12778   6.467   9.000   1.777
    1SIL  O02IM12779   6.420   9.188   1.958
    1SIL  Si19C12780   6.028   9.590   1.479
    1SIL  Si19D12781   5.783   9.564   1.841
    1SIL  Si19E12782   6.128   9.364   1.660
    1SIL  O02IN12783   5.929   9.540   1.906
    1SIL  O02IO12784   5.976   9.729   1.544
    1SIL  O02IP12785   5.789   9.675   1.725
    1SIL  O02IQ12786   6.035   9.479   1.596
    1SIL  O02IR12787   6.222   9.426   1.777
    1SIL  O02IS12788   6.174   9.614   1.958
    1SIL  Si19F12789   2.097   0.226   1.479
    1SIL  Si19G12790   1.851   0.200   1.841
    1SIL  Si19H12791   2.196   0.000   1.660
    1SIL  O02IT12792   1.997   0.176   1.906
    1SIL  O02IU12793   2.044   0.364   1.544
    1SIL  O02IV12794   1.857   0.311   1.725
    1SIL  O02IW12795   2.103   0.115   1.596
    1SIL  O02IX12796   2.290   0.061   1.777
    1SIL  O02IY12797   2.242   0.250   1.958
    1SIL  Si19I12798   1.851   0.652   1.479
    1SIL  Si19J12799   1.605   0.625   1.841
    1SIL  Si19K12800   1.951   0.426   1.660
    1SIL  O02IZ12801   1.751   0.602   1.906
    1SIL  O02Ia12802   1.798   0.790   1.544
    1SIL  O02Ib12803   1.612   0.737   1.725
    1SIL  O02Ic12804   1.857   0.540   1.596
    1SIL  O02Id12805   2.044   0.487   1.777
    1SIL  O02Ie12806   1.997   0.675   1.958
    1SIL  Si19L12807   1.605   1.077   1.479
    1SIL  Si19M12808   1.359   1.051   1.841
    1SIL  Si19N12809   1.705   0.851   1.660
    1SIL  O02If12810   1.505   1.027   1.906
    1SIL  O02Ig12811   1.552   1.216   1.544
    1SIL  O02Ih12812   1.366   1.162   1.725
    1SIL  O02Ii12813   1.612   0.966   1.596
    1SIL  O02Ij12814   1.798   0.913   1.777
    1SIL  O02Ik12815   1.751   1.101   1.958
    1SIL  Si19O12816   1.359   1.503   1.479
    1SIL  Si19P12817   1.114   1.477   1.841
    1SIL  Si19Q12818   1.459   1.277   1.660
    1SIL  O02Il12819   1.259   1.453   1.906
    1SIL  O02Im12820   1.307   1.641   1.544
    1SIL  O02In12821   1.120   1.588   1.725
    1SIL  O02Io12822   1.366   1.392   1.596
    1SIL  O02Ip12823   1.552   1.338   1.777
    1SIL  O02Iq12824   1.505   1.527   1.958
    1SIL  Si19R12825   1.114   1.929   1.479
    1SIL  Si19S12826   0.868   1.902   1.841
    1SIL  Si19T12827   1.213   1.703   1.660
    1SIL  O02Ir12828   1.014   1.879   1.906
    1SIL  O02Is12829   1.061   2.067   1.544
    1SIL  O02It12830   0.874   2.014   1.725
    1SIL  O02Iu12831   1.120   1.817   1.596
    1SIL  O02Iv12832   1.307   1.764   1.777
    1SIL  O02Iw12833   1.259   1.952   1.958
    1SIL  Si19U12834   0.868   2.354   1.479
    1SIL  Si19V12835   0.622   2.328   1.841
    1SIL  Si19W12836   0.968   2.128   1.660
    1SIL  O02Ix12837   0.768   2.304   1.906
    1SIL  O02Iy12838   0.815   2.493   1.544
    1SIL  O02Iz12839   0.629   2.439   1.725
    1SIL  O02J012840   0.874   2.243   1.596
    1SIL  O02J112841   1.061   2.190   1.777
    1SIL  O02J212842   1.014   2.378   1.958
    1SIL  Si19X12843   0.622   2.780   1.479
    1SIL  Si19Y12844   0.376   2.753   1.841
    1SIL  Si19Z12845   0.722   2.554   1.660
    1SIL  O02J312846   0.522   2.730   1.906
    1SIL  O02J412847   0.569   2.918   1.544
    1SIL  O02J512848   0.383   2.865   1.725
    1SIL  O02J612849   0.629   2.668   1.596
    1SIL  O02J712850   0.815   2.615   1.777
    1SIL  O02J812851   0.768   2.804   1.958
    1SIL  Si19a12852   0.376   3.206   1.479
    1SIL  Si19b12853   0.131   3.179   1.841
    1SIL  Si19c12854   0.476   2.980   1.660
    1SIL  O02J912855   0.276   3.156   1.906
    1SIL  O02JA12856   0.324   3.344   1.544
    1SIL  O02JB12857   0.137   3.291   1.725
    1SIL  O02JC12858   0.383   3.094   1.596
    1SIL  O02JD12859   0.569   3.041   1.777
    1SIL  O02JE12860   0.522   3.229   1.958
    1SIL  Si19d12861   0.131   3.631   1.479
    1SIL  Si19e12862   9.715   3.605   1.841
    1SIL  Si19f12863   0.230   3.405   1.660
    1SIL  O02JF12864   0.031   3.581   1.906
    1SIL  O02JG12865   0.078   3.769   1.544
    1SIL  O02JH12866   9.721   3.716   1.725
    1SIL  O02JI12867   0.137   3.520   1.596
    1SIL  O02JJ12868   0.324   3.467   1.777
    1SIL  O02JK12869   0.276   3.655   1.958
    1SIL  Si19g12870   9.715   4.057   1.479
    1SIL  Si19h12871   9.469   4.030   1.841
    1SIL  Si19i12872   9.815   3.831   1.660
    1SIL  O02JL12873   9.615   4.007   1.906
    1SIL  O02JM12874   9.662   4.195   1.544
    1SIL  O02JN12875   9.475   4.142   1.725
    1SIL  O02JO12876   9.721   3.945   1.596
    1SIL  O02JP12877   0.078   3.892   1.777
    1SIL  O02JQ12878   0.031   4.081   1.958
    1SIL  Si19j12879   9.469   4.483   1.479
    1SIL  Si19k12880   9.223   4.456   1.841
    1SIL  Si19l12881   9.569   4.256   1.660
    1SIL  O02JR12882   9.369   4.432   1.906
    1SIL  O02JS12883   9.416   4.621   1.544
    1SIL  O02JT12884   9.230   4.568   1.725
    1SIL  O02JU12885   9.475   4.371   1.596
    1SIL  O02JV12886   9.662   4.318   1.777
    1SIL  O02JW12887   9.615   4.506   1.958
    1SIL  Si19m12888   9.223   4.908   1.479
    1SIL  Si19n12889   8.977   4.882   1.841
    1SIL  Si19o12890   9.323   4.682   1.660
    1SIL  O02JX12891   9.123   4.858   1.906
    1SIL  O02JY12892   9.171   5.046   1.544
    1SIL  O02JZ12893   8.984   4.993   1.725
    1SIL  O02Ja12894   9.230   4.797   1.596
    1SIL  O02Jb12895   9.416   4.744   1.777
    1SIL  O02Jc12896   9.369   4.932   1.958
    1SIL  Si19p12897   8.977   5.334   1.479
    1SIL  Si19q12898   8.732   5.307   1.841
    1SIL  Si19r12899   9.077   5.108   1.660
    1SIL  O02Jd12900   8.878   5.284   1.906
    1SIL  O02Je12901   8.925   5.472   1.544
    1SIL  O02Jf12902   8.738   5.419   1.725
    1SIL  O02Jg12903   8.984   5.222   1.596
    1SIL  O02Jh12904   9.171   5.169   1.777
    1SIL  O02Ji12905   9.123   5.357   1.958
    1SIL  Si19s12906   8.732   5.759   1.479
    1SIL  Si19t12907   8.486   5.733   1.841
    1SIL  Si19u12908   8.832   5.533   1.660
    1SIL  O02Jj12909   8.632   5.709   1.906
    1SIL  O02Jk12910   8.679   5.898   1.544
    1SIL  O02Jl12911   8.492   5.844   1.725
    1SIL  O02Jm12912   8.738   5.648   1.596
    1SIL  O02Jn12913   8.925   5.595   1.777
    1SIL  O02Jo12914   8.878   5.783   1.958
    1SIL  Si19v12915   8.486   6.185   1.479
    1SIL  Si19w12916   8.240   6.159   1.841
    1SIL  Si19x12917   8.586   5.959   1.660
    1SIL  O02Jp12918   8.386   6.135   1.906
    1SIL  O02Jq12919   8.433   6.323   1.544
    1SIL  O02Jr12920   8.247   6.270   1.725
    1SIL  O02Js12921   8.492   6.074   1.596
    1SIL  O02Jt12922   8.679   6.020   1.777
    1SIL  O02Ju12923   8.632   6.209   1.958
    1SIL  Si19y12924   8.240   6.611   1.479
    1SIL  Si19z12925   7.994   6.584   1.841
    1SIL  Si1A012926   8.340   6.385   1.660
    1SIL  O02Jv12927   8.140   6.561   1.906
    1SIL  O02Jw12928   8.188   6.749   1.544
    1SIL  O02Jx12929   8.001   6.696   1.725
    1SIL  O02Jy12930   8.247   6.499   1.596
    1SIL  O02Jz12931   8.433   6.446   1.777
    1SIL  O02K012932   8.386   6.634   1.958
    1SIL  Si1A112933   7.994   7.036   1.479
    1SIL  Si1A212934   7.749   7.010   1.841
    1SIL  Si1A312935   8.094   6.810   1.660
    1SIL  O02K112936   7.895   6.986   1.906
    1SIL  O02K212937   7.942   7.175   1.544
    1SIL  O02K312938   7.755   7.121   1.725
    1SIL  O02K412939   8.001   6.925   1.596
    1SIL  O02K512940   8.188   6.872   1.777
    1SIL  O02K612941   8.140   7.060   1.958
    1SIL  Si1A412942   7.749   7.462   1.479
    1SIL  Si1A512943   7.503   7.436   1.841
    1SIL  Si1A612944   7.849   7.236   1.660
    1SIL  O02K712945   7.649   7.412   1.906
    1SIL  O02K812946   7.696   7.600   1.544
    1SIL  O02K912947   7.509   7.547   1.725
    1SIL  O02KA12948   7.755   7.351   1.596
    1SIL  O02KB12949   7.942   7.297   1.777
    1SIL  O02KC12950   7.895   7.486   1.958
    1SIL  Si1A712951   7.503   7.888   1.479
    1SIL  Si1A812952   7.257   7.861   1.841
    1SIL  Si1A912953   7.603   7.662   1.660
    1SIL  O02KD12954   7.403   7.838   1.906
    1SIL  O02KE12955   7.450   8.026   1.544
    1SIL  O02KF12956   7.264   7.973   1.725
    1SIL  O02KG12957   7.509   7.776   1.596
    1SIL  O02KH12958   7.696   7.723   1.777
    1SIL  O02KI12959   7.649   7.911   1.958
    1SIL  Si1AA12960   7.257   8.313   1.479
    1SIL  Si1AB12961   7.011   8.287   1.841
    1SIL  Si1AC12962   7.357   8.087   1.660
    1SIL  O02KJ12963   7.157   8.263   1.906
    1SIL  O02KK12964   7.205   8.452   1.544
    1SIL  O02KL12965   7.018   8.398   1.725
    1SIL  O02KM12966   7.264   8.202   1.596
    1SIL  O02KN12967   7.450   8.149   1.777
    1SIL  O02KO12968   7.403   8.337   1.958
    1SIL  Si1AD12969   7.011   8.739   1.479
    1SIL  Si1AE12970   6.766   8.713   1.841
    1SIL  Si1AF12971   7.111   8.513   1.660
    1SIL  O02KP12972   6.912   8.689   1.906
    1SIL  O02KQ12973   6.959   8.877   1.544
    1SIL  O02KR12974   6.772   8.824   1.725
    1SIL  O02KS12975   7.018   8.628   1.596
    1SIL  O02KT12976   7.205   8.574   1.777
    1SIL  O02KU12977   7.157   8.763   1.958
    1SIL  Si1AG12978   6.766   9.165   1.479
    1SIL  Si1AH12979   6.520   9.138   1.841
    1SIL  Si1AI12980   6.866   8.939   1.660
    1SIL  O02KV12981   6.666   9.115   1.906
    1SIL  O02KW12982   6.713   9.303   1.544
    1SIL  O02KX12983   6.526   9.250   1.725
    1SIL  O02KY12984   6.772   9.053   1.596
    1SIL  O02KZ12985   6.959   9.000   1.777
    1SIL  O02Ka12986   6.912   9.188   1.958
    1SIL  Si1AJ12987   6.520   9.590   1.479
    1SIL  Si1AK12988   6.274   9.564   1.841
    1SIL  Si1AL12989   6.620   9.364   1.660
    1SIL  O02Kb12990   6.420   9.540   1.906
    1SIL  O02Kc12991   6.467   9.729   1.544
    1SIL  O02Kd12992   6.281   9.675   1.725
    1SIL  O02Ke12993   6.526   9.479   1.596
    1SIL  O02Kf12994   6.713   9.426   1.777
    1SIL  O02Kg12995   6.666   9.614   1.958
    1SIL  Si1AM12996   2.588   0.226   1.479
    1SIL  Si1AN12997   2.342   0.200   1.841
    1SIL  Si1AO12998   2.688   0.000   1.660
    1SIL  O02Kh12999   2.488   0.176   1.906
    1SIL  O02Ki13000   2.535   0.364   1.544
    1SIL  O02Kj13001   2.349   0.311   1.725
    1SIL  O02Kk13002   2.595   0.115   1.596
    1SIL  O02Kl13003   2.781   0.061   1.777
    1SIL  O02Km13004   2.734   0.250   1.958
    1SIL  Si1AP13005   2.342   0.652   1.479
    1SIL  Si1AQ13006   2.097   0.625   1.841
    1SIL  Si1AR13007   2.442   0.426   1.660
    1SIL  O02Kn13008   2.242   0.602   1.906
    1SIL  O02Ko13009   2.290   0.790   1.544
    1SIL  O02Kp13010   2.103   0.737   1.725
    1SIL  O02Kq13011   2.349   0.540   1.596
    1SIL  O02Kr13012   2.535   0.487   1.777
    1SIL  O02Ks13013   2.488   0.675   1.958
    1SIL  Si1AS13014   2.097   1.077   1.479
    1SIL  Si1AT13015   1.851   1.051   1.841
    1SIL  Si1AU13016   2.196   0.851   1.660
    1SIL  O02Kt13017   1.997   1.027   1.906
    1SIL  O02Ku13018   2.044   1.216   1.544
    1SIL  O02Kv13019   1.857   1.162   1.725
    1SIL  O02Kw13020   2.103   0.966   1.596
    1SIL  O02Kx13021   2.290   0.913   1.777
    1SIL  O02Ky13022   2.242   1.101   1.958
    1SIL  Si1AV13023   1.851   1.503   1.479
    1SIL  Si1AW13024   1.605   1.477   1.841
    1SIL  Si1AX13025   1.951   1.277   1.660
    1SIL  O02Kz13026   1.751   1.453   1.906
    1SIL  O02L013027   1.798   1.641   1.544
    1SIL  O02L113028   1.612   1.588   1.725
    1SIL  O02L213029   1.857   1.392   1.596
    1SIL  O02L313030   2.044   1.338   1.777
    1SIL  O02L413031   1.997   1.527   1.958
    1SIL  Si1AY13032   1.605   1.929   1.479
    1SIL  Si1AZ13033   1.359   1.902   1.841
    1SIL  Si1Aa13034   1.705   1.703   1.660
    1SIL  O02L513035   1.505   1.879   1.906
    1SIL  O02L613036   1.552   2.067   1.544
    1SIL  O02L713037   1.366   2.014   1.725
    1SIL  O02L813038   1.612   1.817   1.596
    1SIL  O02L913039   1.798   1.764   1.777
    1SIL  O02LA13040   1.751   1.952   1.958
    1SIL  Si1Ab13041   1.359   2.354   1.479
    1SIL  Si1Ac13042   1.114   2.328   1.841
    1SIL  Si1Ad13043   1.459   2.128   1.660
    1SIL  O02LB13044   1.259   2.304   1.906
    1SIL  O02LC13045   1.307   2.493   1.544
    1SIL  O02LD13046   1.120   2.439   1.725
    1SIL  O02LE13047   1.366   2.243   1.596
    1SIL  O02LF13048   1.552   2.190   1.777
    1SIL  O02LG13049   1.505   2.378   1.958
    1SIL  Si1Ae13050   1.114   2.780   1.479
    1SIL  Si1Af13051   0.868   2.753   1.841
    1SIL  Si1Ag13052   1.213   2.554   1.660
    1SIL  O02LH13053   1.014   2.730   1.906
    1SIL  O02LI13054   1.061   2.918   1.544
    1SIL  O02LJ13055   0.874   2.865   1.725
    1SIL  O02LK13056   1.120   2.668   1.596
    1SIL  O02LL13057   1.307   2.615   1.777
    1SIL  O02LM13058   1.259   2.804   1.958
    1SIL  Si1Ah13059   0.868   3.206   1.479
    1SIL  Si1Ai13060   0.622   3.179   1.841
    1SIL  Si1Aj13061   0.968   2.980   1.660
    1SIL  O02LN13062   0.768   3.156   1.906
    1SIL  O02LO13063   0.815   3.344   1.544
    1SIL  O02LP13064   0.629   3.291   1.725
    1SIL  O02LQ13065   0.874   3.094   1.596
    1SIL  O02LR13066   1.061   3.041   1.777
    1SIL  O02LS13067   1.014   3.229   1.958
    1SIL  Si1Ak13068   0.622   3.631   1.479
    1SIL  Si1Al13069   0.376   3.605   1.841
    1SIL  Si1Am13070   0.722   3.405   1.660
    1SIL  O02LT13071   0.522   3.581   1.906
    1SIL  O02LU13072   0.569   3.769   1.544
    1SIL  O02LV13073   0.383   3.716   1.725
    1SIL  O02LW13074   0.629   3.520   1.596
    1SIL  O02LX13075   0.815   3.467   1.777
    1SIL  O02LY13076   0.768   3.655   1.958
    1SIL  Si1An13077   0.376   4.057   1.479
    1SIL  Si1Ao13078   0.131   4.030   1.841
    1SIL  Si1Ap13079   0.476   3.831   1.660
    1SIL  O02LZ13080   0.276   4.007   1.906
    1SIL  O02La13081   0.324   4.195   1.544
    1SIL  O02Lb13082   0.137   4.142   1.725
    1SIL  O02Lc13083   0.383   3.945   1.596
    1SIL  O02Ld13084   0.569   3.892   1.777
    1SIL  O02Le13085   0.522   4.081   1.958
    1SIL  Si1Aq13086   0.131   4.483   1.479
    1SIL  Si1Ar13087   9.715   4.456   1.841
    1SIL  Si1As13088   0.230   4.256   1.660
    1SIL  O02Lf13089   0.031   4.432   1.906
    1SIL  O02Lg13090   0.078   4.621   1.544
    1SIL  O02Lh13091   9.721   4.568   1.725
    1SIL  O02Li13092   0.137   4.371   1.596
    1SIL  O02Lj13093   0.324   4.318   1.777
    1SIL  O02Lk13094   0.276   4.506   1.958
    1SIL  Si1At13095   9.715   4.908   1.479
    1SIL  Si1Au13096   9.469   4.882   1.841
    1SIL  Si1Av13097   9.815   4.682   1.660
    1SIL  O02Ll13098   9.615   4.858   1.906
    1SIL  O02Lm13099   9.662   5.046   1.544
    1SIL  O02Ln13100   9.475   4.993   1.725
    1SIL  O02Lo13101   9.721   4.797   1.596
    1SIL  O02Lp13102   0.078   4.744   1.777
    1SIL  O02Lq13103   0.031   4.932   1.958
    1SIL  Si1Aw13104   9.469   5.334   1.479
    1SIL  Si1Ax13105   9.223   5.307   1.841
    1SIL  Si1Ay13106   9.569   5.108   1.660
    1SIL  O02Lr13107   9.369   5.284   1.906
    1SIL  O02Ls13108   9.416   5.472   1.544
    1SIL  O02Lt13109   9.230   5.419   1.725
    1SIL  O02Lu13110   9.475   5.222   1.596
    1SIL  O02Lv13111   9.662   5.169   1.777
    1SIL  O02Lw13112   9.615   5.357   1.958
    1SIL  Si1Az13113   9.223   5.759   1.479
    1SIL  Si1B013114   8.977   5.733   1.841
    1SIL  Si1B113115   9.323   5.533   1.660
    1SIL  O02Lx13116   9.123   5.709   1.906
    1SIL  O02Ly13117   9.171   5.898   1.544
    1SIL  O02Lz13118   8.984   5.844   1.725
    1SIL  O02M013119   9.230   5.648   1.596
    1SIL  O02M113120   9.416   5.595   1.777
    1SIL  O02M213121   9.369   5.783   1.958
    1SIL  Si1B213122   8.977   6.185   1.479
    1SIL  Si1B313123   8.732   6.159   1.841
    1SIL  Si1B413124   9.077   5.959   1.660
    1SIL  O02M313125   8.878   6.135   1.906
    1SIL  O02M413126   8.925   6.323   1.544
    1SIL  O02M513127   8.738   6.270   1.725
    1SIL  O02M613128   8.984   6.074   1.596
    1SIL  O02M713129   9.171   6.020   1.777
    1SIL  O02M813130   9.123   6.209   1.958
    1SIL  Si1B513131   8.732   6.611   1.479
    1SIL  Si1B613132   8.486   6.584   1.841
    1SIL  Si1B713133   8.832   6.385   1.660
    1SIL  O02M913134   8.632   6.561   1.906
    1SIL  O02MA13135   8.679   6.749   1.544
    1SIL  O02MB13136   8.492   6.696   1.725
    1SIL  O02MC13137   8.738   6.499   1.596
    1SIL  O02MD13138   8.925   6.446   1.777
    1SIL  O02ME13139   8.878   6.634   1.958
    1SIL  Si1B813140   8.486   7.036   1.479
    1SIL  Si1B913141   8.240   7.010   1.841
    1SIL  Si1BA13142   8.586   6.810   1.660
    1SIL  O02MF13143   8.386   6.986   1.906
    1SIL  O02MG13144   8.433   7.175   1.544
    1SIL  O02MH13145   8.247   7.121   1.725
    1SIL  O02MI13146   8.492   6.925   1.596
    1SIL  O02MJ13147   8.679   6.872   1.777
    1SIL  O02MK13148   8.632   7.060   1.958
    1SIL  Si1BB13149   8.240   7.462   1.479
    1SIL  Si1BC13150   7.994   7.436   1.841
    1SIL  Si1BD13151   8.340   7.236   1.660
    1SIL  O02ML13152   8.140   7.412   1.906
    1SIL  O02MM13153   8.188   7.600   1.544
    1SIL  O02MN13154   8.001   7.547   1.725
    1SIL  O02MO13155   8.247   7.351   1.596
    1SIL  O02MP13156   8.433   7.297   1.777
    1SIL  O02MQ13157   8.386   7.486   1.958
    1SIL  Si1BE13158   7.994   7.888   1.479
    1SIL  Si1BF13159   7.749   7.861   1.841
    1SIL  Si1BG13160   8.094   7.662   1.660
    1SIL  O02MR13161   7.895   7.838   1.906
    1SIL  O02MS13162   7.942   8.026   1.544
    1SIL  O02MT13163   7.755   7.973   1.725
    1SIL  O02MU13164   8.001   7.776   1.596
    1SIL  O02MV13165   8.188   7.723   1.777
    1SIL  O02MW13166   8.140   7.911   1.958
    1SIL  Si1BH13167   7.749   8.313   1.479
    1SIL  Si1BI13168   7.503   8.287   1.841
    1SIL  Si1BJ13169   7.849   8.087   1.660
    1SIL  O02MX13170   7.649   8.263   1.906
    1SIL  O02MY13171   7.696   8.452   1.544
    1SIL  O02MZ13172   7.509   8.398   1.725
    1SIL  O02Ma13173   7.755   8.202   1.596
    1SIL  O02Mb13174   7.942   8.149   1.777
    1SIL  O02Mc13175   7.895   8.337   1.958
    1SIL  Si1BK13176   7.503   8.739   1.479
    1SIL  Si1BL13177   7.257   8.713   1.841
    1SIL  Si1BM13178   7.603   8.513   1.660
    1SIL  O02Md13179   7.403   8.689   1.906
    1SIL  O02Me13180   7.450   8.877   1.544
    1SIL  O02Mf13181   7.264   8.824   1.725
    1SIL  O02Mg13182   7.509   8.628   1.596
    1SIL  O02Mh13183   7.696   8.574   1.777
    1SIL  O02Mi13184   7.649   8.763   1.958
    1SIL  Si1BN13185   7.257   9.165   1.479
    1SIL  Si1BO13186   7.011   9.138   1.841
    1SIL  Si1BP13187   7.357   8.939   1.660
    1SIL  O02Mj13188   7.157   9.115   1.906
    1SIL  O02Mk13189   7.205   9.303   1.544
    1SIL  O02Ml13190   7.018   9.250   1.725
    1SIL  O02Mm13191   7.264   9.053   1.596
    1SIL  O02Mn13192   7.450   9.000   1.777
    1SIL  O02Mo13193   7.403   9.188   1.958
    1SIL  Si1BQ13194   7.011   9.590   1.479
    1SIL  Si1BR13195   6.766   9.564   1.841
    1SIL  Si1BS13196   7.111   9.364   1.660
    1SIL  O02Mp13197   6.912   9.540   1.906
    1SIL  O02Mq13198   6.959   9.729   1.544
    1SIL  O02Mr13199   6.772   9.675   1.725
    1SIL  O02Ms13200   7.018   9.479   1.596
    1SIL  O02Mt13201   7.205   9.426   1.777
    1SIL  O02Mu13202   7.157   9.614   1.958
    1SIL  Si1BT13203   3.079   0.226   1.479
    1SIL  Si1BU13204   2.834   0.200   1.841
    1SIL  Si1BV13205   3.179   0.000   1.660
    1SIL  O02Mv13206   2.980   0.176   1.906
    1SIL  O02Mw13207   3.027   0.364   1.544
    1SIL  O02Mx13208   2.840   0.311   1.725
    1SIL  O02My13209   3.086   0.115   1.596
    1SIL  O02Mz13210   3.273   0.061   1.777
    1SIL  O02N013211   3.225   0.250   1.958
    1SIL  Si1BW13212   2.834   0.652   1.479
    1SIL  Si1BX13213   2.588   0.625   1.841
    1SIL  Si1BY13214   2.934   0.426   1.660
    1SIL  O02N113215   2.734   0.602   1.906
    1SIL  O02N213216   2.781   0.790   1.544
    1SIL  O02N313217   2.595   0.737   1.725
    1SIL  O02N413218   2.840   0.540   1.596
    1SIL  O02N513219   3.027   0.487   1.777
    1SIL  O02N613220   2.980   0.675   1.958
    1SIL  Si1BZ13221   2.588   1.077   1.479
    1SIL  Si1Ba13222   2.342   1.051   1.841
    1SIL  Si1Bb13223   2.688   0.851   1.660
    1SIL  O02N713224   2.488   1.027   1.906
    1SIL  O02N813225   2.535   1.216   1.544
    1SIL  O02N913226   2.349   1.162   1.725
    1SIL  O02NA13227   2.595   0.966   1.596
    1SIL  O02NB13228   2.781   0.913   1.777
    1SIL  O02NC13229   2.734   1.101   1.958
    1SIL  Si1Bc13230   2.342   1.503   1.479
    1SIL  Si1Bd13231   2.097   1.477   1.841
    1SIL  Si1Be13232   2.442   1.277   1.660
    1SIL  O02ND13233   2.242   1.453   1.906
    1SIL  O02NE13234   2.290   1.641   1.544
    1SIL  O02NF13235   2.103   1.588   1.725
    1SIL  O02NG13236   2.349   1.392   1.596
    1SIL  O02NH13237   2.535   1.338   1.777
    1SIL  O02NI13238   2.488   1.527   1.958
    1SIL  Si1Bf13239   2.097   1.929   1.479
    1SIL  Si1Bg13240   1.851   1.902   1.841
    1SIL  Si1Bh13241   2.196   1.703   1.660
    1SIL  O02NJ13242   1.997   1.879   1.906
    1SIL  O02NK13243   2.044   2.067   1.544
    1SIL  O02NL13244   1.857   2.014   1.725
    1SIL  O02NM13245   2.103   1.817   1.596
    1SIL  O02NN13246   2.290   1.764   1.777
    1SIL  O02NO13247   2.242   1.952   1.958
    1SIL  Si1Bi13248   1.851   2.354   1.479
    1SIL  Si1Bj13249   1.605   2.328   1.841
    1SIL  Si1Bk13250   1.951   2.128   1.660
    1SIL  O02NP13251   1.751   2.304   1.906
    1SIL  O02NQ13252   1.798   2.493   1.544
    1SIL  O02NR13253   1.612   2.439   1.725
    1SIL  O02NS13254   1.857   2.243   1.596
    1SIL  O02NT13255   2.044   2.190   1.777
    1SIL  O02NU13256   1.997   2.378   1.958
    1SIL  Si1Bl13257   1.605   2.780   1.479
    1SIL  Si1Bm13258   1.359   2.753   1.841
    1SIL  Si1Bn13259   1.705   2.554   1.660
    1SIL  O02NV13260   1.505   2.730   1.906
    1SIL  O02NW13261   1.552   2.918   1.544
    1SIL  O02NX13262   1.366   2.865   1.725
    1SIL  O02NY13263   1.612   2.668   1.596
    1SIL  O02NZ13264   1.798   2.615   1.777
    1SIL  O02Na13265   1.751   2.804   1.958
    1SIL  Si1Bo13266   1.359   3.206   1.479
    1SIL  Si1Bp13267   1.114   3.179   1.841
    1SIL  Si1Bq13268   1.459   2.980   1.660
    1SIL  O02Nb13269   1.259   3.156   1.906
    1SIL  O02Nc13270   1.307   3.344   1.544
    1SIL  O02Nd13271   1.120   3.291   1.725
    1SIL  O02Ne13272   1.366   3.094   1.596
    1SIL  O02Nf13273   1.552   3.041   1.777
    1SIL  O02Ng13274   1.505   3.229   1.958
    1SIL  Si1Br13275   1.114   3.631   1.479
    1SIL  Si1Bs13276   0.868   3.605   1.841
    1SIL  Si1Bt13277   1.213   3.405   1.660
    1SIL  O02Nh13278   1.014   3.581   1.906
    1SIL  O02Ni13279   1.061   3.769   1.544
    1SIL  O02Nj13280   0.874   3.716   1.725
    1SIL  O02Nk13281   1.120   3.520   1.596
    1SIL  O02Nl13282   1.307   3.467   1.777
    1SIL  O02Nm13283   1.259   3.655   1.958
    1SIL  Si1Bu13284   0.868   4.057   1.479
    1SIL  Si1Bv13285   0.622   4.030   1.841
    1SIL  Si1Bw13286   0.968   3.831   1.660
    1SIL  O02Nn13287   0.768   4.007   1.906
    1SIL  O02No13288   0.815   4.195   1.544
    1SIL  O02Np13289   0.629   4.142   1.725
    1SIL  O02Nq13290   0.874   3.945   1.596
    1SIL  O02Nr13291   1.061   3.892   1.777
    1SIL  O02Ns13292   1.014   4.081   1.958
    1SIL  Si1Bx13293   0.622   4.483   1.479
    1SIL  Si1By13294   0.376   4.456   1.841
    1SIL  Si1Bz13295   0.722   4.256   1.660
    1SIL  O02Nt13296   0.522   4.432   1.906
    1SIL  O02Nu13297   0.569   4.621   1.544
    1SIL  O02Nv13298   0.383   4.568   1.725
    1SIL  O02Nw13299   0.629   4.371   1.596
    1SIL  O02Nx13300   0.815   4.318   1.777
    1SIL  O02Ny13301   0.768   4.506   1.958
    1SIL  Si1C013302   0.376   4.908   1.479
    1SIL  Si1C113303   0.131   4.882   1.841
    1SIL  Si1C213304   0.476   4.682   1.660
    1SIL  O02Nz13305   0.276   4.858   1.906
    1SIL  O02O013306   0.324   5.046   1.544
    1SIL  O02O113307   0.137   4.993   1.725
    1SIL  O02O213308   0.383   4.797   1.596
    1SIL  O02O313309   0.569   4.744   1.777
    1SIL  O02O413310   0.522   4.932   1.958
    1SIL  Si1C313311   0.131   5.334   1.479
    1SIL  Si1C413312   9.715   5.307   1.841
    1SIL  Si1C513313   0.230   5.108   1.660
    1SIL  O02O513314   0.031   5.284   1.906
    1SIL  O02O613315   0.078   5.472   1.544
    1SIL  O02O713316   9.721   5.419   1.725
    1SIL  O02O813317   0.137   5.222   1.596
    1SIL  O02O913318   0.324   5.169   1.777
    1SIL  O02OA13319   0.276   5.357   1.958
    1SIL  Si1C613320   9.715   5.759   1.479
    1SIL  Si1C713321   9.469   5.733   1.841
    1SIL  Si1C813322   9.815   5.533   1.660
    1SIL  O02OB13323   9.615   5.709   1.906
    1SIL  O02OC13324   9.662   5.898   1.544
    1SIL  O02OD13325   9.475   5.844   1.725
    1SIL  O02OE13326   9.721   5.648   1.596
    1SIL  O02OF13327   0.078   5.595   1.777
    1SIL  O02OG13328   0.031   5.783   1.958
    1SIL  Si1C913329   9.469   6.185   1.479
    1SIL  Si1CA13330   9.223   6.159   1.841
    1SIL  Si1CB13331   9.569   5.959   1.660
    1SIL  O02OH13332   9.369   6.135   1.906
    1SIL  O02OI13333   9.416   6.323   1.544
    1SIL  O02OJ13334   9.230   6.270   1.725
    1SIL  O02OK13335   9.475   6.074   1.596
    1SIL  O02OL13336   9.662   6.020   1.777
    1SIL  O02OM13337   9.615   6.209   1.958
    1SIL  Si1CC13338   9.223   6.611   1.479
    1SIL  Si1CD13339   8.977   6.584   1.841
    1SIL  Si1CE13340   9.323   6.385   1.660
    1SIL  O02ON13341   9.123   6.561   1.906
    1SIL  O02OO13342   9.171   6.749   1.544
    1SIL  O02OP13343   8.984   6.696   1.725
    1SIL  O02OQ13344   9.230   6.499   1.596
    1SIL  O02OR13345   9.416   6.446   1.777
    1SIL  O02OS13346   9.369   6.634   1.958
    1SIL  Si1CF13347   8.977   7.036   1.479
    1SIL  Si1CG13348   8.732   7.010   1.841
    1SIL  Si1CH13349   9.077   6.810   1.660
    1SIL  O02OT13350   8.878   6.986   1.906
    1SIL  O02OU13351   8.925   7.175   1.544
    1SIL  O02OV13352   8.738   7.121   1.725
    1SIL  O02OW13353   8.984   6.925   1.596
    1SIL  O02OX13354   9.171   6.872   1.777
    1SIL  O02OY13355   9.123   7.060   1.958
    1SIL  Si1CI13356   8.732   7.462   1.479
    1SIL  Si1CJ13357   8.486   7.436   1.841
    1SIL  Si1CK13358   8.832   7.236   1.660
    1SIL  O02OZ13359   8.632   7.412   1.906
    1SIL  O02Oa13360   8.679   7.600   1.544
    1SIL  O02Ob13361   8.492   7.547   1.725
    1SIL  O02Oc13362   8.738   7.351   1.596
    1SIL  O02Od13363   8.925   7.297   1.777
    1SIL  O02Oe13364   8.878   7.486   1.958
    1SIL  Si1CL13365   8.486   7.888   1.479
    1SIL  Si1CM13366   8.240   7.861   1.841
    1SIL  Si1CN13367   8.586   7.662   1.660
    1SIL  O02Of13368   8.386   7.838   1.906
    1SIL  O02Og13369   8.433   8.026   1.544
    1SIL  O02Oh13370   8.247   7.973   1.725
    1SIL  O02Oi13371   8.492   7.776   1.596
    1SIL  O02Oj13372   8.679   7.723   1.777
    1SIL  O02Ok13373   8.632   7.911   1.958
    1SIL  Si1CO13374   8.240   8.313   1.479
    1SIL  Si1CP13375   7.994   8.287   1.841
    1SIL  Si1CQ13376   8.340   8.087   1.660
    1SIL  O02Ol13377   8.140   8.263   1.906
    1SIL  O02Om13378   8.188   8.452   1.544
    1SIL  O02On13379   8.001   8.398   1.725
    1SIL  O02Oo13380   8.247   8.202   1.596
    1SIL  O02Op13381   8.433   8.149   1.777
    1SIL  O02Oq13382   8.386   8.337   1.958
    1SIL  Si1CR13383   7.994   8.739   1.479
    1SIL  Si1CS13384   7.749   8.713   1.841
    1SIL  Si1CT13385   8.094   8.513   1.660
    1SIL  O02Or13386   7.895   8.689   1.906
    1SIL  O02Os13387   7.942   8.877   1.544
    1SIL  O02Ot13388   7.755   8.824   1.725
    1SIL  O02Ou13389   8.001   8.628   1.596
    1SIL  O02Ov13390   8.188   8.574   1.777
    1SIL  O02Ow13391   8.140   8.763   1.958
    1SIL  Si1CU13392   7.749   9.165   1.479
    1SIL  Si1CV13393   7.503   9.138   1.841
    1SIL  Si1CW13394   7.849   8.939   1.660
    1SIL  O02Ox13395   7.649   9.115   1.906
    1SIL  O02Oy13396   7.696   9.303   1.544
    1SIL  O02Oz13397   7.509   9.250   1.725
    1SIL  O02P013398   7.755   9.053   1.596
    1SIL  O02P113399   7.942   9.000   1.777
    1SIL  O02P213400   7.895   9.188   1.958
    1SIL  Si1CX13401   7.503   9.590   1.479
    1SIL  Si1CY13402   7.257   9.564   1.841
    1SIL  Si1CZ13403   7.603   9.364   1.660
    1SIL  O02P313404   7.403   9.540   1.906
    1SIL  O02P413405   7.450   9.729   1.544
    1SIL  O02P513406   7.264   9.675   1.725
    1SIL  O02P613407   7.509   9.479   1.596
    1SIL  O02P713408   7.696   9.426   1.777
    1SIL  O02P813409   7.649   9.614   1.958
    1SIL  Si1Ca13410   3.571   0.226   1.479
    1SIL  Si1Cb13411   3.325   0.200   1.841
    1SIL  Si1Cc13412   3.671   0.000   1.660
    1SIL  O02P913413   3.471   0.176   1.906
    1SIL  O02PA13414   3.518   0.364   1.544
    1SIL  O02PB13415   3.332   0.311   1.725
    1SIL  O02PC13416   3.577   0.115   1.596
    1SIL  O02PD13417   3.764   0.061   1.777
    1SIL  O02PE13418   3.717   0.250   1.958
    1SIL  Si1Cd13419   3.325   0.652   1.479
    1SIL  Si1Ce13420   3.079   0.625   1.841
    1SIL  Si1Cf13421   3.425   0.426   1.660
    1SIL  O02PF13422   3.225   0.602   1.906
    1SIL  O02PG13423   3.273   0.790   1.544
    1SIL  O02PH13424   3.086   0.737   1.725
    1SIL  O02PI13425   3.332   0.540   1.596
    1SIL  O02PJ13426   3.518   0.487   1.777
    1SIL  O02PK13427   3.471   0.675   1.958
    1SIL  Si1Cg13428   3.079   1.077   1.479
    1SIL  Si1Ch13429   2.834   1.051   1.841
    1SIL  Si1Ci13430   3.179   0.851   1.660
    1SIL  O02PL13431   2.980   1.027   1.906
    1SIL  O02PM13432   3.027   1.216   1.544
    1SIL  O02PN13433   2.840   1.162   1.725
    1SIL  O02PO13434   3.086   0.966   1.596
    1SIL  O02PP13435   3.273   0.913   1.777
    1SIL  O02PQ13436   3.225   1.101   1.958
    1SIL  Si1Cj13437   2.834   1.503   1.479
    1SIL  Si1Ck13438   2.588   1.477   1.841
    1SIL  Si1Cl13439   2.934   1.277   1.660
    1SIL  O02PR13440   2.734   1.453   1.906
    1SIL  O02PS13441   2.781   1.641   1.544
    1SIL  O02PT13442   2.595   1.588   1.725
    1SIL  O02PU13443   2.840   1.392   1.596
    1SIL  O02PV13444   3.027   1.338   1.777
    1SIL  O02PW13445   2.980   1.527   1.958
    1SIL  Si1Cm13446   2.588   1.929   1.479
    1SIL  Si1Cn13447   2.342   1.902   1.841
    1SIL  Si1Co13448   2.688   1.703   1.660
    1SIL  O02PX13449   2.488   1.879   1.906
    1SIL  O02PY13450   2.535   2.067   1.544
    1SIL  O02PZ13451   2.349   2.014   1.725
    1SIL  O02Pa13452   2.595   1.817   1.596
    1SIL  O02Pb13453   2.781   1.764   1.777
    1SIL  O02Pc13454   2.734   1.952   1.958
    1SIL  Si1Cp13455   2.342   2.354   1.479
    1SIL  Si1Cq13456   2.097   2.328   1.841
    1SIL  Si1Cr13457   2.442   2.128   1.660
    1SIL  O02Pd13458   2.242   2.304   1.906
    1SIL  O02Pe13459   2.290   2.493   1.544
    1SIL  O02Pf13460   2.103   2.439   1.725
    1SIL  O02Pg13461   2.349   2.243   1.596
    1SIL  O02Ph13462   2.535   2.190   1.777
    1SIL  O02Pi13463   2.488   2.378   1.958
    1SIL  Si1Cs13464   2.097   2.780   1.479
    1SIL  Si1Ct13465   1.851   2.753   1.841
    1SIL  Si1Cu13466   2.196   2.554   1.660
    1SIL  O02Pj13467   1.997   2.730   1.906
    1SIL  O02Pk13468   2.044   2.918   1.544
    1SIL  O02Pl13469   1.857   2.865   1.725
    1SIL  O02Pm13470   2.103   2.668   1.596
    1SIL  O02Pn13471   2.290   2.615   1.777
    1SIL  O02Po13472   2.242   2.804   1.958
    1SIL  Si1Cv13473   1.851   3.206   1.479
    1SIL  Si1Cw13474   1.605   3.179   1.841
    1SIL  Si1Cx13475   1.951   2.980   1.660
    1SIL  O02Pp13476   1.751   3.156   1.906
    1SIL  O02Pq13477   1.798   3.344   1.544
    1SIL  O02Pr13478   1.612   3.291   1.725
    1SIL  O02Ps13479   1.857   3.094   1.596
    1SIL  O02Pt13480   2.044   3.041   1.777
    1SIL  O02Pu13481   1.997   3.229   1.958
    1SIL  Si1Cy13482   1.605   3.631   1.479
    1SIL  Si1Cz13483   1.359   3.605   1.841
    1SIL  Si1D013484   1.705   3.405   1.660
    1SIL  O02Pv13485   1.505   3.581   1.906
    1SIL  O02Pw13486   1.552   3.769   1.544
    1SIL  O02Px13487   1.366   3.716   1.725
    1SIL  O02Py13488   1.612   3.520   1.596
    1SIL  O02Pz13489   1.798   3.467   1.777
    1SIL  O02Q013490   1.751   3.655   1.958
    1SIL  Si1D113491   1.359   4.057   1.479
    1SIL  Si1D213492   1.114   4.030   1.841
    1SIL  Si1D313493   1.459   3.831   1.660
    1SIL  O02Q113494   1.259   4.007   1.906
    1SIL  O02Q213495   1.307   4.195   1.544
    1SIL  O02Q313496   1.120   4.142   1.725
    1SIL  O02Q413497   1.366   3.945   1.596
    1SIL  O02Q513498   1.552   3.892   1.777
    1SIL  O02Q613499   1.505   4.081   1.958
    1SIL  Si1D413500   1.114   4.483   1.479
    1SIL  Si1D513501   0.868   4.456   1.841
    1SIL  Si1D613502   1.213   4.256   1.660
    1SIL  O02Q713503   1.014   4.432   1.906
    1SIL  O02Q813504   1.061   4.621   1.544
    1SIL  O02Q913505   0.874   4.568   1.725
    1SIL  O02QA13506   1.120   4.371   1.596
    1SIL  O02QB13507   1.307   4.318   1.777
    1SIL  O02QC13508   1.259   4.506   1.958
    1SIL  Si1D713509   0.868   4.908   1.479
    1SIL  Si1D813510   0.622   4.882   1.841
    1SIL  Si1D913511   0.968   4.682   1.660
    1SIL  O02QD13512   0.768   4.858   1.906
    1SIL  O02QE13513   0.815   5.046   1.544
    1SIL  O02QF13514   0.629   4.993   1.725
    1SIL  O02QG13515   0.874   4.797   1.596
    1SIL  O02QH13516   1.061   4.744   1.777
    1SIL  O02QI13517   1.014   4.932   1.958
    1SIL  Si1DA13518   0.622   5.334   1.479
    1SIL  Si1DB13519   0.376   5.307   1.841
    1SIL  Si1DC13520   0.722   5.108   1.660
    1SIL  O02QJ13521   0.522   5.284   1.906
    1SIL  O02QK13522   0.569   5.472   1.544
    1SIL  O02QL13523   0.383   5.419   1.725
    1SIL  O02QM13524   0.629   5.222   1.596
    1SIL  O02QN13525   0.815   5.169   1.777
    1SIL  O02QO13526   0.768   5.357   1.958
    1SIL  Si1DD13527   0.376   5.759   1.479
    1SIL  Si1DE13528   0.131   5.733   1.841
    1SIL  Si1DF13529   0.476   5.533   1.660
    1SIL  O02QP13530   0.276   5.709   1.906
    1SIL  O02QQ13531   0.324   5.898   1.544
    1SIL  O02QR13532   0.137   5.844   1.725
    1SIL  O02QS13533   0.383   5.648   1.596
    1SIL  O02QT13534   0.569   5.595   1.777
    1SIL  O02QU13535   0.522   5.783   1.958
    1SIL  Si1DG13536   0.131   6.185   1.479
    1SIL  Si1DH13537   9.715   6.159   1.841
    1SIL  Si1DI13538   0.230   5.959   1.660
    1SIL  O02QV13539   0.031   6.135   1.906
    1SIL  O02QW13540   0.078   6.323   1.544
    1SIL  O02QX13541   9.721   6.270   1.725
    1SIL  O02QY13542   0.137   6.074   1.596
    1SIL  O02QZ13543   0.324   6.020   1.777
    1SIL  O02Qa13544   0.276   6.209   1.958
    1SIL  Si1DJ13545   9.715   6.611   1.479
    1SIL  Si1DK13546   9.469   6.584   1.841
    1SIL  Si1DL13547   9.815   6.385   1.660
    1SIL  O02Qb13548   9.615   6.561   1.906
    1SIL  O02Qc13549   9.662   6.749   1.544
    1SIL  O02Qd13550   9.475   6.696   1.725
    1SIL  O02Qe13551   9.721   6.499   1.596
    1SIL  O02Qf13552   0.078   6.446   1.777
    1SIL  O02Qg13553   0.031   6.634   1.958
    1SIL  Si1DM13554   9.469   7.036   1.479
    1SIL  Si1DN13555   9.223   7.010   1.841
    1SIL  Si1DO13556   9.569   6.810   1.660
    1SIL  O02Qh13557   9.369   6.986   1.906
    1SIL  O02Qi13558   9.416   7.175   1.544
    1SIL  O02Qj13559   9.230   7.121   1.725
    1SIL  O02Qk13560   9.475   6.925   1.596
    1SIL  O02Ql13561   9.662   6.872   1.777
    1SIL  O02Qm13562   9.615   7.060   1.958
    1SIL  Si1DP13563   9.223   7.462   1.479
    1SIL  Si1DQ13564   8.977   7.436   1.841
    1SIL  Si1DR13565   9.323   7.236   1.660
    1SIL  O02Qn13566   9.123   7.412   1.906
    1SIL  O02Qo13567   9.171   7.600   1.544
    1SIL  O02Qp13568   8.984   7.547   1.725
    1SIL  O02Qq13569   9.230   7.351   1.596
    1SIL  O02Qr13570   9.416   7.297   1.777
    1SIL  O02Qs13571   9.369   7.486   1.958
    1SIL  Si1DS13572   8.977   7.888   1.479
    1SIL  Si1DT13573   8.732   7.861   1.841
    1SIL  Si1DU13574   9.077   7.662   1.660
    1SIL  O02Qt13575   8.878   7.838   1.906
    1SIL  O02Qu13576   8.925   8.026   1.544
    1SIL  O02Qv13577   8.738   7.973   1.725
    1SIL  O02Qw13578   8.984   7.776   1.596
    1SIL  O02Qx13579   9.171   7.723   1.777
    1SIL  O02Qy13580   9.123   7.911   1.958
    1SIL  Si1DV13581   8.732   8.313   1.479
    1SIL  Si1DW13582   8.486   8.287   1.841
    1SIL  Si1DX13583   8.832   8.087   1.660
    1SIL  O02Qz13584   8.632   8.263   1.906
    1SIL  O02R013585   8.679   8.452   1.544
    1SIL  O02R113586   8.492   8.398   1.725
    1SIL  O02R213587   8.738   8.202   1.596
    1SIL  O02R313588   8.925   8.149   1.777
    1SIL  O02R413589   8.878   8.337   1.958
    1SIL  Si1DY13590   8.486   8.739   1.479
    1SIL  Si1DZ13591   8.240   8.713   1.841
    1SIL  Si1Da13592   8.586   8.513   1.660
    1SIL  O02R513593   8.386   8.689   1.906
    1SIL  O02R613594   8.433   8.877   1.544
    1SIL  O02R713595   8.247   8.824   1.725
    1SIL  O02R813596   8.492   8.628   1.596
    1SIL  O02R913597   8.679   8.574   1.777
    1SIL  O02RA13598   8.632   8.763   1.958
    1SIL  Si1Db13599   8.240   9.165   1.479
    1SIL  Si1Dc13600   7.994   9.138   1.841
    1SIL  Si1Dd13601   8.340   8.939   1.660
    1SIL  O02RB13602   8.140   9.115   1.906
    1SIL  O02RC13603   8.188   9.303   1.544
    1SIL  O02RD13604   8.001   9.250   1.725
    1SIL  O02RE13605   8.247   9.053   1.596
    1SIL  O02RF13606   8.433   9.000   1.777
    1SIL  O02RG13607   8.386   9.188   1.958
    1SIL  Si1De13608   7.994   9.590   1.479
    1SIL  Si1Df13609   7.749   9.564   1.841
    1SIL  Si1Dg13610   8.094   9.364   1.660
    1SIL  O02RH13611   7.895   9.540   1.906
    1SIL  O02RI13612   7.942   9.729   1.544
    1SIL  O02RJ13613   7.755   9.675   1.725
    1SIL  O02RK13614   8.001   9.479   1.596
    1SIL  O02RL13615   8.188   9.426   1.777
    1SIL  O02RM13616   8.140   9.614   1.958
    1SIL  Si1Dh13617   4.062   0.226   1.479
    1SIL  Si1Di13618   3.817   0.200   1.841
    1SIL  Si1Dj13619   4.162   0.000   1.660
    1SIL  O02RN13620   3.963   0.176   1.906
    1SIL  O02RO13621   4.010   0.364   1.544
    1SIL  O02RP13622   3.823   0.311   1.725
    1SIL  O02RQ13623   4.069   0.115   1.596
    1SIL  O02RR13624   4.256   0.061   1.777
    1SIL  O02RS13625   4.208   0.250   1.958
    1SIL  Si1Dk13626   3.817   0.652   1.479
    1SIL  Si1Dl13627   3.571   0.625   1.841
    1SIL  Si1Dm13628   3.917   0.426   1.660
    1SIL  O02RT13629   3.717   0.602   1.906
    1SIL  O02RU13630   3.764   0.790   1.544
    1SIL  O02RV13631   3.577   0.737   1.725
    1SIL  O02RW13632   3.823   0.540   1.596
    1SIL  O02RX13633   4.010   0.487   1.777
    1SIL  O02RY13634   3.963   0.675   1.958
    1SIL  Si1Dn13635   3.571   1.077   1.479
    1SIL  Si1Do13636   3.325   1.051   1.841
    1SIL  Si1Dp13637   3.671   0.851   1.660
    1SIL  O02RZ13638   3.471   1.027   1.906
    1SIL  O02Ra13639   3.518   1.216   1.544
    1SIL  O02Rb13640   3.332   1.162   1.725
    1SIL  O02Rc13641   3.577   0.966   1.596
    1SIL  O02Rd13642   3.764   0.913   1.777
    1SIL  O02Re13643   3.717   1.101   1.958
    1SIL  Si1Dq13644   3.325   1.503   1.479
    1SIL  Si1Dr13645   3.079   1.477   1.841
    1SIL  Si1Ds13646   3.425   1.277   1.660
    1SIL  O02Rf13647   3.225   1.453   1.906
    1SIL  O02Rg13648   3.273   1.641   1.544
    1SIL  O02Rh13649   3.086   1.588   1.725
    1SIL  O02Ri13650   3.332   1.392   1.596
    1SIL  O02Rj13651   3.518   1.338   1.777
    1SIL  O02Rk13652   3.471   1.527   1.958
    1SIL  Si1Dt13653   3.079   1.929   1.479
    1SIL  Si1Du13654   2.834   1.902   1.841
    1SIL  Si1Dv13655   3.179   1.703   1.660
    1SIL  O02Rl13656   2.980   1.879   1.906
    1SIL  O02Rm13657   3.027   2.067   1.544
    1SIL  O02Rn13658   2.840   2.014   1.725
    1SIL  O02Ro13659   3.086   1.817   1.596
    1SIL  O02Rp13660   3.273   1.764   1.777
    1SIL  O02Rq13661   3.225   1.952   1.958
    1SIL  Si1Dw13662   2.834   2.354   1.479
    1SIL  Si1Dx13663   2.588   2.328   1.841
    1SIL  Si1Dy13664   2.934   2.128   1.660
    1SIL  O02Rr13665   2.734   2.304   1.906
    1SIL  O02Rs13666   2.781   2.493   1.544
    1SIL  O02Rt13667   2.595   2.439   1.725
    1SIL  O02Ru13668   2.840   2.243   1.596
    1SIL  O02Rv13669   3.027   2.190   1.777
    1SIL  O02Rw13670   2.980   2.378   1.958
    1SIL  Si1Dz13671   2.588   2.780   1.479
    1SIL  Si1E013672   2.342   2.753   1.841
    1SIL  Si1E113673   2.688   2.554   1.660
    1SIL  O02Rx13674   2.488   2.730   1.906
    1SIL  O02Ry13675   2.535   2.918   1.544
    1SIL  O02Rz13676   2.349   2.865   1.725
    1SIL  O02S013677   2.595   2.668   1.596
    1SIL  O02S113678   2.781   2.615   1.777
    1SIL  O02S213679   2.734   2.804   1.958
    1SIL  Si1E213680   2.342   3.206   1.479
    1SIL  Si1E313681   2.097   3.179   1.841
    1SIL  Si1E413682   2.442   2.980   1.660
    1SIL  O02S313683   2.242   3.156   1.906
    1SIL  O02S413684   2.290   3.344   1.544
    1SIL  O02S513685   2.103   3.291   1.725
    1SIL  O02S613686   2.349   3.094   1.596
    1SIL  O02S713687   2.535   3.041   1.777
    1SIL  O02S813688   2.488   3.229   1.958
    1SIL  Si1E513689   2.097   3.631   1.479
    1SIL  Si1E613690   1.851   3.605   1.841
    1SIL  Si1E713691   2.196   3.405   1.660
    1SIL  O02S913692   1.997   3.581   1.906
    1SIL  O02SA13693   2.044   3.769   1.544
    1SIL  O02SB13694   1.857   3.716   1.725
    1SIL  O02SC13695   2.103   3.520   1.596
    1SIL  O02SD13696   2.290   3.467   1.777
    1SIL  O02SE13697   2.242   3.655   1.958
    1SIL  Si1E813698   1.851   4.057   1.479
    1SIL  Si1E913699   1.605   4.030   1.841
    1SIL  Si1EA13700   1.951   3.831   1.660
    1SIL  O02SF13701   1.751   4.007   1.906
    1SIL  O02SG13702   1.798   4.195   1.544
    1SIL  O02SH13703   1.612   4.142   1.725
    1SIL  O02SI13704   1.857   3.945   1.596
    1SIL  O02SJ13705   2.044   3.892   1.777
    1SIL  O02SK13706   1.997   4.081   1.958
    1SIL  Si1EB13707   1.605   4.483   1.479
    1SIL  Si1EC13708   1.359   4.456   1.841
    1SIL  Si1ED13709   1.705   4.256   1.660
    1SIL  O02SL13710   1.505   4.432   1.906
    1SIL  O02SM13711   1.552   4.621   1.544
    1SIL  O02SN13712   1.366   4.568   1.725
    1SIL  O02SO13713   1.612   4.371   1.596
    1SIL  O02SP13714   1.798   4.318   1.777
    1SIL  O02SQ13715   1.751   4.506   1.958
    1SIL  Si1EE13716   1.359   4.908   1.479
    1SIL  Si1EF13717   1.114   4.882   1.841
    1SIL  Si1EG13718   1.459   4.682   1.660
    1SIL  O02SR13719   1.259   4.858   1.906
    1SIL  O02SS13720   1.307   5.046   1.544
    1SIL  O02ST13721   1.120   4.993   1.725
    1SIL  O02SU13722   1.366   4.797   1.596
    1SIL  O02SV13723   1.552   4.744   1.777
    1SIL  O02SW13724   1.505   4.932   1.958
    1SIL  Si1EH13725   1.114   5.334   1.479
    1SIL  Si1EI13726   0.868   5.307   1.841
    1SIL  Si1EJ13727   1.213   5.108   1.660
    1SIL  O02SX13728   1.014   5.284   1.906
    1SIL  O02SY13729   1.061   5.472   1.544
    1SIL  O02SZ13730   0.874   5.419   1.725
    1SIL  O02Sa13731   1.120   5.222   1.596
    1SIL  O02Sb13732   1.307   5.169   1.777
    1SIL  O02Sc13733   1.259   5.357   1.958
    1SIL  Si1EK13734   0.868   5.759   1.479
    1SIL  Si1EL13735   0.622   5.733   1.841
    1SIL  Si1EM13736   0.968   5.533   1.660
    1SIL  O02Sd13737   0.768   5.709   1.906
    1SIL  O02Se13738   0.815   5.898   1.544
    1SIL  O02Sf13739   0.629   5.844   1.725
    1SIL  O02Sg13740   0.874   5.648   1.596
    1SIL  O02Sh13741   1.061   5.595   1.777
    1SIL  O02Si13742   1.014   5.783   1.958
    1SIL  Si1EN13743   0.622   6.185   1.479
    1SIL  Si1EO13744   0.376   6.159   1.841
    1SIL  Si1EP13745   0.722   5.959   1.660
    1SIL  O02Sj13746   0.522   6.135   1.906
    1SIL  O02Sk13747   0.569   6.323   1.544
    1SIL  O02Sl13748   0.383   6.270   1.725
    1SIL  O02Sm13749   0.629   6.074   1.596
    1SIL  O02Sn13750   0.815   6.020   1.777
    1SIL  O02So13751   0.768   6.209   1.958
    1SIL  Si1EQ13752   0.376   6.611   1.479
    1SIL  Si1ER13753   0.131   6.584   1.841
    1SIL  Si1ES13754   0.476   6.385   1.660
    1SIL  O02Sp13755   0.276   6.561   1.906
    1SIL  O02Sq13756   0.324   6.749   1.544
    1SIL  O02Sr13757   0.137   6.696   1.725
    1SIL  O02Ss13758   0.383   6.499   1.596
    1SIL  O02St13759   0.569   6.446   1.777
    1SIL  O02Su13760   0.522   6.634   1.958
    1SIL  Si1ET13761   0.131   7.036   1.479
    1SIL  Si1EU13762   9.715   7.010   1.841
    1SIL  Si1EV13763   0.230   6.810   1.660
    1SIL  O02Sv13764   0.031   6.986   1.906
    1SIL  O02Sw13765   0.078   7.175   1.544
    1SIL  O02Sx13766   9.721   7.121   1.725
    1SIL  O02Sy13767   0.137   6.925   1.596
    1SIL  O02Sz13768   0.324   6.872   1.777
    1SIL  O02T013769   0.276   7.060   1.958
    1SIL  Si1EW13770   9.715   7.462   1.479
    1SIL  Si1EX13771   9.469   7.436   1.841
    1SIL  Si1EY13772   9.815   7.236   1.660
    1SIL  O02T113773   9.615   7.412   1.906
    1SIL  O02T213774   9.662   7.600   1.544
    1SIL  O02T313775   9.475   7.547   1.725
    1SIL  O02T413776   9.721   7.351   1.596
    1SIL  O02T513777   0.078   7.297   1.777
    1SIL  O02T613778   0.031   7.486   1.958
    1SIL  Si1EZ13779   9.469   7.888   1.479
    1SIL  Si1Ea13780   9.223   7.861   1.841
    1SIL  Si1Eb13781   9.569   7.662   1.660
    1SIL  O02T713782   9.369   7.838   1.906
    1SIL  O02T813783   9.416   8.026   1.544
    1SIL  O02T913784   9.230   7.973   1.725
    1SIL  O02TA13785   9.475   7.776   1.596
    1SIL  O02TB13786   9.662   7.723   1.777
    1SIL  O02TC13787   9.615   7.911   1.958
    1SIL  Si1Ec13788   9.223   8.313   1.479
    1SIL  Si1Ed13789   8.977   8.287   1.841
    1SIL  Si1Ee13790   9.323   8.087   1.660
    1SIL  O02TD13791   9.123   8.263   1.906
    1SIL  O02TE13792   9.171   8.452   1.544
    1SIL  O02TF13793   8.984   8.398   1.725
    1SIL  O02TG13794   9.230   8.202   1.596
    1SIL  O02TH13795   9.416   8.149   1.777
    1SIL  O02TI13796   9.369   8.337   1.958
    1SIL  Si1Ef13797   8.977   8.739   1.479
    1SIL  Si1Eg13798   8.732   8.713   1.841
    1SIL  Si1Eh13799   9.077   8.513   1.660
    1SIL  O02TJ13800   8.878   8.689   1.906
    1SIL  O02TK13801   8.925   8.877   1.544
    1SIL  O02TL13802   8.738   8.824   1.725
    1SIL  O02TM13803   8.984   8.628   1.596
    1SIL  O02TN13804   9.171   8.574   1.777
    1SIL  O02TO13805   9.123   8.763   1.958
    1SIL  Si1Ei13806   8.732   9.165   1.479
    1SIL  Si1Ej13807   8.486   9.138   1.841
    1SIL  Si1Ek13808   8.832   8.939   1.660
    1SIL  O02TP13809   8.632   9.115   1.906
    1SIL  O02TQ13810   8.679   9.303   1.544
    1SIL  O02TR13811   8.492   9.250   1.725
    1SIL  O02TS13812   8.738   9.053   1.596
    1SIL  O02TT13813   8.925   9.000   1.777
    1SIL  O02TU13814   8.878   9.188   1.958
    1SIL  Si1El13815   8.486   9.590   1.479
    1SIL  Si1Em13816   8.240   9.564   1.841
    1SIL  Si1En13817   8.586   9.364   1.660
    1SIL  O02TV13818   8.386   9.540   1.906
    1SIL  O02TW13819   8.433   9.729   1.544
    1SIL  O02TX13820   8.247   9.675   1.725
    1SIL  O02TY13821   8.492   9.479   1.596
    1SIL  O02TZ13822   8.679   9.426   1.777
    1SIL  O02Ta13823   8.632   9.614   1.958
    1SIL  Si1Eo13824   4.554   0.226   1.479
    1SIL  Si1Ep13825   4.308   0.200   1.841
    1SIL  Si1Eq13826   4.654   0.000   1.660
    1SIL  O02Tb13827   4.454   0.176   1.906
    1SIL  O02Tc13828   4.501   0.364   1.544
    1SIL  O02Td13829   4.315   0.311   1.725
    1SIL  O02Te13830   4.560   0.115   1.596
    1SIL  O02Tf13831   4.747   0.061   1.777
    1SIL  O02Tg13832   4.700   0.250   1.958
    1SIL  Si1Er13833   4.308   0.652   1.479
    1SIL  Si1Es13834   4.062   0.625   1.841
    1SIL  Si1Et13835   4.408   0.426   1.660
    1SIL  O02Th13836   4.208   0.602   1.906
    1SIL  O02Ti13837   4.256   0.790   1.544
    1SIL  O02Tj13838   4.069   0.737   1.725
    1SIL  O02Tk13839   4.315   0.540   1.596
    1SIL  O02Tl13840   4.501   0.487   1.777
    1SIL  O02Tm13841   4.454   0.675   1.958
    1SIL  Si1Eu13842   4.062   1.077   1.479
    1SIL  Si1Ev13843   3.817   1.051   1.841
    1SIL  Si1Ew13844   4.162   0.851   1.660
    1SIL  O02Tn13845   3.963   1.027   1.906
    1SIL  O02To13846   4.010   1.216   1.544
    1SIL  O02Tp13847   3.823   1.162   1.725
    1SIL  O02Tq13848   4.069   0.966   1.596
    1SIL  O02Tr13849   4.256   0.913   1.777
    1SIL  O02Ts13850   4.208   1.101   1.958
    1SIL  Si1Ex13851   3.817   1.503   1.479
    1SIL  Si1Ey13852   3.571   1.477   1.841
    1SIL  Si1Ez13853   3.917   1.277   1.660
    1SIL  O02Tt13854   3.717   1.453   1.906
    1SIL  O02Tu13855   3.764   1.641   1.544
    1SIL  O02Tv13856   3.577   1.588   1.725
    1SIL  O02Tw13857   3.823   1.392   1.596
    1SIL  O02Tx13858   4.010   1.338   1.777
    1SIL  O02Ty13859   3.963   1.527   1.958
    1SIL  Si1F013860   3.571   1.929   1.479
    1SIL  Si1F113861   3.325   1.902   1.841
    1SIL  Si1F213862   3.671   1.703   1.660
    1SIL  O02Tz13863   3.471   1.879   1.906
    1SIL  O02U013864   3.518   2.067   1.544
    1SIL  O02U113865   3.332   2.014   1.725
    1SIL  O02U213866   3.577   1.817   1.596
    1SIL  O02U313867   3.764   1.764   1.777
    1SIL  O02U413868   3.717   1.952   1.958
    1SIL  Si1F313869   3.325   2.354   1.479
    1SIL  Si1F413870   3.079   2.328   1.841
    1SIL  Si1F513871   3.425   2.128   1.660
    1SIL  O02U513872   3.225   2.304   1.906
    1SIL  O02U613873   3.273   2.493   1.544
    1SIL  O02U713874   3.086   2.439   1.725
    1SIL  O02U813875   3.332   2.243   1.596
    1SIL  O02U913876   3.518   2.190   1.777
    1SIL  O02UA13877   3.471   2.378   1.958
    1SIL  Si1F613878   3.079   2.780   1.479
    1SIL  Si1F713879   2.834   2.753   1.841
    1SIL  Si1F813880   3.179   2.554   1.660
    1SIL  O02UB13881   2.980   2.730   1.906
    1SIL  O02UC13882   3.027   2.918   1.544
    1SIL  O02UD13883   2.840   2.865   1.725
    1SIL  O02UE13884   3.086   2.668   1.596
    1SIL  O02UF13885   3.273   2.615   1.777
    1SIL  O02UG13886   3.225   2.804   1.958
    1SIL  Si1F913887   2.834   3.206   1.479
    1SIL  Si1FA13888   2.588   3.179   1.841
    1SIL  Si1FB13889   2.934   2.980   1.660
    1SIL  O02UH13890   2.734   3.156   1.906
    1SIL  O02UI13891   2.781   3.344   1.544
    1SIL  O02UJ13892   2.595   3.291   1.725
    1SIL  O02UK13893   2.840   3.094   1.596
    1SIL  O02UL13894   3.027   3.041   1.777
    1SIL  O02UM13895   2.980   3.229   1.958
    1SIL  Si1FC13896   2.588   3.631   1.479
    1SIL  Si1FD13897   2.342   3.605   1.841
    1SIL  Si1FE13898   2.688   3.405   1.660
    1SIL  O02UN13899   2.488   3.581   1.906
    1SIL  O02UO13900   2.535   3.769   1.544
    1SIL  O02UP13901   2.349   3.716   1.725
    1SIL  O02UQ13902   2.595   3.520   1.596
    1SIL  O02UR13903   2.781   3.467   1.777
    1SIL  O02US13904   2.734   3.655   1.958
    1SIL  Si1FF13905   2.342   4.057   1.479
    1SIL  Si1FG13906   2.097   4.030   1.841
    1SIL  Si1FH13907   2.442   3.831   1.660
    1SIL  O02UT13908   2.242   4.007   1.906
    1SIL  O02UU13909   2.290   4.195   1.544
    1SIL  O02UV13910   2.103   4.142   1.725
    1SIL  O02UW13911   2.349   3.945   1.596
    1SIL  O02UX13912   2.535   3.892   1.777
    1SIL  O02UY13913   2.488   4.081   1.958
    1SIL  Si1FI13914   2.097   4.483   1.479
    1SIL  Si1FJ13915   1.851   4.456   1.841
    1SIL  Si1FK13916   2.196   4.256   1.660
    1SIL  O02UZ13917   1.997   4.432   1.906
    1SIL  O02Ua13918   2.044   4.621   1.544
    1SIL  O02Ub13919   1.857   4.568   1.725
    1SIL  O02Uc13920   2.103   4.371   1.596
    1SIL  O02Ud13921   2.290   4.318   1.777
    1SIL  O02Ue13922   2.242   4.506   1.958
    1SIL  Si1FL13923   1.851   4.908   1.479
    1SIL  Si1FM13924   1.605   4.882   1.841
    1SIL  Si1FN13925   1.951   4.682   1.660
    1SIL  O02Uf13926   1.751   4.858   1.906
    1SIL  O02Ug13927   1.798   5.046   1.544
    1SIL  O02Uh13928   1.612   4.993   1.725
    1SIL  O02Ui13929   1.857   4.797   1.596
    1SIL  O02Uj13930   2.044   4.744   1.777
    1SIL  O02Uk13931   1.997   4.932   1.958
    1SIL  Si1FO13932   1.605   5.334   1.479
    1SIL  Si1FP13933   1.359   5.307   1.841
    1SIL  Si1FQ13934   1.705   5.108   1.660
    1SIL  O02Ul13935   1.505   5.284   1.906
    1SIL  O02Um13936   1.552   5.472   1.544
    1SIL  O02Un13937   1.366   5.419   1.725
    1SIL  O02Uo13938   1.612   5.222   1.596
    1SIL  O02Up13939   1.798   5.169   1.777
    1SIL  O02Uq13940   1.751   5.357   1.958
    1SIL  Si1FR13941   1.359   5.759   1.479
    1SIL  Si1FS13942   1.114   5.733   1.841
    1SIL  Si1FT13943   1.459   5.533   1.660
    1SIL  O02Ur13944   1.259   5.709   1.906
    1SIL  O02Us13945   1.307   5.898   1.544
    1SIL  O02Ut13946   1.120   5.844   1.725
    1SIL  O02Uu13947   1.366   5.648   1.596
    1SIL  O02Uv13948   1.552   5.595   1.777
    1SIL  O02Uw13949   1.505   5.783   1.958
    1SIL  Si1FU13950   1.114   6.185   1.479
    1SIL  Si1FV13951   0.868   6.159   1.841
    1SIL  Si1FW13952   1.213   5.959   1.660
    1SIL  O02Ux13953   1.014   6.135   1.906
    1SIL  O02Uy13954   1.061   6.323   1.544
    1SIL  O02Uz13955   0.874   6.270   1.725
    1SIL  O02V013956   1.120   6.074   1.596
    1SIL  O02V113957   1.307   6.020   1.777
    1SIL  O02V213958   1.259   6.209   1.958
    1SIL  Si1FX13959   0.868   6.611   1.479
    1SIL  Si1FY13960   0.622   6.584   1.841
    1SIL  Si1FZ13961   0.968   6.385   1.660
    1SIL  O02V313962   0.768   6.561   1.906
    1SIL  O02V413963   0.815   6.749   1.544
    1SIL  O02V513964   0.629   6.696   1.725
    1SIL  O02V613965   0.874   6.499   1.596
    1SIL  O02V713966   1.061   6.446   1.777
    1SIL  O02V813967   1.014   6.634   1.958
    1SIL  Si1Fa13968   0.622   7.036   1.479
    1SIL  Si1Fb13969   0.376   7.010   1.841
    1SIL  Si1Fc13970   0.722   6.810   1.660
    1SIL  O02V913971   0.522   6.986   1.906
    1SIL  O02VA13972   0.569   7.175   1.544
    1SIL  O02VB13973   0.383   7.121   1.725
    1SIL  O02VC13974   0.629   6.925   1.596
    1SIL  O02VD13975   0.815   6.872   1.777
    1SIL  O02VE13976   0.768   7.060   1.958
    1SIL  Si1Fd13977   0.376   7.462   1.479
    1SIL  Si1Fe13978   0.131   7.436   1.841
    1SIL  Si1Ff13979   0.476   7.236   1.660
    1SIL  O02VF13980   0.276   7.412   1.906
    1SIL  O02VG13981   0.324   7.600   1.544
    1SIL  O02VH13982   0.137   7.547   1.725
    1SIL  O02VI13983   0.383   7.351   1.596
    1SIL  O02VJ13984   0.569   7.297   1.777
    1SIL  O02VK13985   0.522   7.486   1.958
    1SIL  Si1Fg13986   0.131   7.888   1.479
    1SIL  Si1Fh13987   9.715   7.861   1.841
    1SIL  Si1Fi13988   0.230   7.662   1.660
    1SIL  O02VL13989   0.031   7.838   1.906
    1SIL  O02VM13990   0.078   8.026   1.544
    1SIL  O02VN13991   9.721   7.973   1.725
    1SIL  O02VO13992   0.137   7.776   1.596
    1SIL  O02VP13993   0.324   7.723   1.777
    1SIL  O02VQ13994   0.276   7.911   1.958
    1SIL  Si1Fj13995   9.715   8.313   1.479
    1SIL  Si1Fk13996   9.469   8.287   1.841
    1SIL  Si1Fl13997   9.815   8.087   1.660
    1SIL  O02VR13998   9.615   8.263   1.906
    1SIL  O02VS13999   9.662   8.452   1.544
    1SIL  O02VT14000   9.475   8.398   1.725
    1SIL  O02VU14001   9.721   8.202   1.596
    1SIL  O02VV14002   0.078   8.149   1.777
    1SIL  O02VW14003   0.031   8.337   1.958
    1SIL  Si1Fm14004   9.469   8.739   1.479
    1SIL  Si1Fn14005   9.223   8.713   1.841
    1SIL  Si1Fo14006   9.569   8.513   1.660
    1SIL  O02VX14007   9.369   8.689   1.906
    1SIL  O02VY14008   9.416   8.877   1.544
    1SIL  O02VZ14009   9.230   8.824   1.725
    1SIL  O02Va14010   9.475   8.628   1.596
    1SIL  O02Vb14011   9.662   8.574   1.777
    1SIL  O02Vc14012   9.615   8.763   1.958
    1SIL  Si1Fp14013   9.223   9.165   1.479
    1SIL  Si1Fq14014   8.977   9.138   1.841
    1SIL  Si1Fr14015   9.323   8.939   1.660
    1SIL  O02Vd14016   9.123   9.115   1.906
    1SIL  O02Ve14017   9.171   9.303   1.544
    1SIL  O02Vf14018   8.984   9.250   1.725
    1SIL  O02Vg14019   9.230   9.053   1.596
    1SIL  O02Vh14020   9.416   9.000   1.777
    1SIL  O02Vi14021   9.369   9.188   1.958
    1SIL  Si1Fs14022   8.977   9.590   1.479
    1SIL  Si1Ft14023   8.732   9.564   1.841
    1SIL  Si1Fu14024   9.077   9.364   1.660
    1SIL  O02Vj14025   8.878   9.540   1.906
    1SIL  O02Vk14026   8.925   9.729   1.544
    1SIL  O02Vl14027   8.738   9.675   1.725
    1SIL  O02Vm14028   8.984   9.479   1.596
    1SIL  O02Vn14029   9.171   9.426   1.777
    1SIL  O02Vo14030   9.123   9.614   1.958
    1SIL  Si1Fv14031   5.045   0.226   1.479
    1SIL  Si1Fw14032   4.800   0.200   1.841
    1SIL  Si1Fx14033   5.145   0.000   1.660
    1SIL  O02Vp14034   4.946   0.176   1.906
    1SIL  O02Vq14035   4.993   0.364   1.544
    1SIL  O02Vr14036   4.806   0.311   1.725
    1SIL  O02Vs14037   5.052   0.115   1.596
    1SIL  O02Vt14038   5.239   0.061   1.777
    1SIL  O02Vu14039   5.191   0.250   1.958
    1SIL  Si1Fy14040   4.800   0.652   1.479
    1SIL  Si1Fz14041   4.554   0.625   1.841
    1SIL  Si1G014042   4.900   0.426   1.660
    1SIL  O02Vv14043   4.700   0.602   1.906
    1SIL  O02Vw14044   4.747   0.790   1.544
    1SIL  O02Vx14045   4.560   0.737   1.725
    1SIL  O02Vy14046   4.806   0.540   1.596
    1SIL  O02Vz14047   4.993   0.487   1.777
    1SIL  O02W014048   4.946   0.675   1.958
    1SIL  Si1G114049   4.554   1.077   1.479
    1SIL  Si1G214050   4.308   1.051   1.841
    1SIL  Si1G314051   4.654   0.851   1.660
    1SIL  O02W114052   4.454   1.027   1.906
    1SIL  O02W214053   4.501   1.216   1.544
    1SIL  O02W314054   4.315   1.162   1.725
    1SIL  O02W414055   4.560   0.966   1.596
    1SIL  O02W514056   4.747   0.913   1.777
    1SIL  O02W614057   4.700   1.101   1.958
    1SIL  Si1G414058   4.308   1.503   1.479
    1SIL  Si1G514059   4.062   1.477   1.841
    1SIL  Si1G614060   4.408   1.277   1.660
    1SIL  O02W714061   4.208   1.453   1.906
    1SIL  O02W814062   4.256   1.641   1.544
    1SIL  O02W914063   4.069   1.588   1.725
    1SIL  O02WA14064   4.315   1.392   1.596
    1SIL  O02WB14065   4.501   1.338   1.777
    1SIL  O02WC14066   4.454   1.527   1.958
    1SIL  Si1G714067   4.062   1.929   1.479
    1SIL  Si1G814068   3.817   1.902   1.841
    1SIL  Si1G914069   4.162   1.703   1.660
    1SIL  O02WD14070   3.963   1.879   1.906
    1SIL  O02WE14071   4.010   2.067   1.544
    1SIL  O02WF14072   3.823   2.014   1.725
    1SIL  O02WG14073   4.069   1.817   1.596
    1SIL  O02WH14074   4.256   1.764   1.777
    1SIL  O02WI14075   4.208   1.952   1.958
    1SIL  Si1GA14076   3.817   2.354   1.479
    1SIL  Si1GB14077   3.571   2.328   1.841
    1SIL  Si1GC14078   3.917   2.128   1.660
    1SIL  O02WJ14079   3.717   2.304   1.906
    1SIL  O02WK14080   3.764   2.493   1.544
    1SIL  O02WL14081   3.577   2.439   1.725
    1SIL  O02WM14082   3.823   2.243   1.596
    1SIL  O02WN14083   4.010   2.190   1.777
    1SIL  O02WO14084   3.963   2.378   1.958
    1SIL  Si1GD14085   3.571   2.780   1.479
    1SIL  Si1GE14086   3.325   2.753   1.841
    1SIL  Si1GF14087   3.671   2.554   1.660
    1SIL  O02WP14088   3.471   2.730   1.906
    1SIL  O02WQ14089   3.518   2.918   1.544
    1SIL  O02WR14090   3.332   2.865   1.725
    1SIL  O02WS14091   3.577   2.668   1.596
    1SIL  O02WT14092   3.764   2.615   1.777
    1SIL  O02WU14093   3.717   2.804   1.958
    1SIL  Si1GG14094   3.325   3.206   1.479
    1SIL  Si1GH14095   3.079   3.179   1.841
    1SIL  Si1GI14096   3.425   2.980   1.660
    1SIL  O02WV14097   3.225   3.156   1.906
    1SIL  O02WW14098   3.273   3.344   1.544
    1SIL  O02WX14099   3.086   3.291   1.725
    1SIL  O02WY14100   3.332   3.094   1.596
    1SIL  O02WZ14101   3.518   3.041   1.777
    1SIL  O02Wa14102   3.471   3.229   1.958
    1SIL  Si1GJ14103   3.079   3.631   1.479
    1SIL  Si1GK14104   2.834   3.605   1.841
    1SIL  Si1GL14105   3.179   3.405   1.660
    1SIL  O02Wb14106   2.980   3.581   1.906
    1SIL  O02Wc14107   3.027   3.769   1.544
    1SIL  O02Wd14108   2.840   3.716   1.725
    1SIL  O02We14109   3.086   3.520   1.596
    1SIL  O02Wf14110   3.273   3.467   1.777
    1SIL  O02Wg14111   3.225   3.655   1.958
    1SIL  Si1GM14112   2.834   4.057   1.479
    1SIL  Si1GN14113   2.588   4.030   1.841
    1SIL  Si1GO14114   2.934   3.831   1.660
    1SIL  O02Wh14115   2.734   4.007   1.906
    1SIL  O02Wi14116   2.781   4.195   1.544
    1SIL  O02Wj14117   2.595   4.142   1.725
    1SIL  O02Wk14118   2.840   3.945   1.596
    1SIL  O02Wl14119   3.027   3.892   1.777
    1SIL  O02Wm14120   2.980   4.081   1.958
    1SIL  Si1GP14121   2.588   4.483   1.479
    1SIL  Si1GQ14122   2.342   4.456   1.841
    1SIL  Si1GR14123   2.688   4.256   1.660
    1SIL  O02Wn14124   2.488   4.432   1.906
    1SIL  O02Wo14125   2.535   4.621   1.544
    1SIL  O02Wp14126   2.349   4.568   1.725
    1SIL  O02Wq14127   2.595   4.371   1.596
    1SIL  O02Wr14128   2.781   4.318   1.777
    1SIL  O02Ws14129   2.734   4.506   1.958
    1SIL  Si1GS14130   2.342   4.908   1.479
    1SIL  Si1GT14131   2.097   4.882   1.841
    1SIL  Si1GU14132   2.442   4.682   1.660
    1SIL  O02Wt14133   2.242   4.858   1.906
    1SIL  O02Wu14134   2.290   5.046   1.544
    1SIL  O02Wv14135   2.103   4.993   1.725
    1SIL  O02Ww14136   2.349   4.797   1.596
    1SIL  O02Wx14137   2.535   4.744   1.777
    1SIL  O02Wy14138   2.488   4.932   1.958
    1SIL  Si1GV14139   2.097   5.334   1.479
    1SIL  Si1GW14140   1.851   5.307   1.841
    1SIL  Si1GX14141   2.196   5.108   1.660
    1SIL  O02Wz14142   1.997   5.284   1.906
    1SIL  O02X014143   2.044   5.472   1.544
    1SIL  O02X114144   1.857   5.419   1.725
    1SIL  O02X214145   2.103   5.222   1.596
    1SIL  O02X314146   2.290   5.169   1.777
    1SIL  O02X414147   2.242   5.357   1.958
    1SIL  Si1GY14148   1.851   5.759   1.479
    1SIL  Si1GZ14149   1.605   5.733   1.841
    1SIL  Si1Ga14150   1.951   5.533   1.660
    1SIL  O02X514151   1.751   5.709   1.906
    1SIL  O02X614152   1.798   5.898   1.544
    1SIL  O02X714153   1.612   5.844   1.725
    1SIL  O02X814154   1.857   5.648   1.596
    1SIL  O02X914155   2.044   5.595   1.777
    1SIL  O02XA14156   1.997   5.783   1.958
    1SIL  Si1Gb14157   1.605   6.185   1.479
    1SIL  Si1Gc14158   1.359   6.159   1.841
    1SIL  Si1Gd14159   1.705   5.959   1.660
    1SIL  O02XB14160   1.505   6.135   1.906
    1SIL  O02XC14161   1.552   6.323   1.544
    1SIL  O02XD14162   1.366   6.270   1.725
    1SIL  O02XE14163   1.612   6.074   1.596
    1SIL  O02XF14164   1.798   6.020   1.777
    1SIL  O02XG14165   1.751   6.209   1.958
    1SIL  Si1Ge14166   1.359   6.611   1.479
    1SIL  Si1Gf14167   1.114   6.584   1.841
    1SIL  Si1Gg14168   1.459   6.385   1.660
    1SIL  O02XH14169   1.259   6.561   1.906
    1SIL  O02XI14170   1.307   6.749   1.544
    1SIL  O02XJ14171   1.120   6.696   1.725
    1SIL  O02XK14172   1.366   6.499   1.596
    1SIL  O02XL14173   1.552   6.446   1.777
    1SIL  O02XM14174   1.505   6.634   1.958
    1SIL  Si1Gh14175   1.114   7.036   1.479
    1SIL  Si1Gi14176   0.868   7.010   1.841
    1SIL  Si1Gj14177   1.213   6.810   1.660
    1SIL  O02XN14178   1.014   6.986   1.906
    1SIL  O02XO14179   1.061   7.175   1.544
    1SIL  O02XP14180   0.874   7.121   1.725
    1SIL  O02XQ14181   1.120   6.925   1.596
    1SIL  O02XR14182   1.307   6.872   1.777
    1SIL  O02XS14183   1.259   7.060   1.958
    1SIL  Si1Gk14184   0.868   7.462   1.479
    1SIL  Si1Gl14185   0.622   7.436   1.841
    1SIL  Si1Gm14186   0.968   7.236   1.660
    1SIL  O02XT14187   0.768   7.412   1.906
    1SIL  O02XU14188   0.815   7.600   1.544
    1SIL  O02XV14189   0.629   7.547   1.725
    1SIL  O02XW14190   0.874   7.351   1.596
    1SIL  O02XX14191   1.061   7.297   1.777
    1SIL  O02XY14192   1.014   7.486   1.958
    1SIL  Si1Gn14193   0.622   7.888   1.479
    1SIL  Si1Go14194   0.376   7.861   1.841
    1SIL  Si1Gp14195   0.722   7.662   1.660
    1SIL  O02XZ14196   0.522   7.838   1.906
    1SIL  O02Xa14197   0.569   8.026   1.544
    1SIL  O02Xb14198   0.383   7.973   1.725
    1SIL  O02Xc14199   0.629   7.776   1.596
    1SIL  O02Xd14200   0.815   7.723   1.777
    1SIL  O02Xe14201   0.768   7.911   1.958
    1SIL  Si1Gq14202   0.376   8.313   1.479
    1SIL  Si1Gr14203   0.131   8.287   1.841
    1SIL  Si1Gs14204   0.476   8.087   1.660
    1SIL  O02Xf14205   0.276   8.263   1.906
    1SIL  O02Xg14206   0.324   8.452   1.544
    1SIL  O02Xh14207   0.137   8.398   1.725
    1SIL  O02Xi14208   0.383   8.202   1.596
    1SIL  O02Xj14209   0.569   8.149   1.777
    1SIL  O02Xk14210   0.522   8.337   1.958
    1SIL  Si1Gt14211   0.131   8.739   1.479
    1SIL  Si1Gu14212   9.715   8.713   1.841
    1SIL  Si1Gv14213   0.230   8.513   1.660
    1SIL  O02Xl14214   0.031   8.689   1.906
    1SIL  O02Xm14215   0.078   8.877   1.544
    1SIL  O02Xn14216   9.721   8.824   1.725
    1SIL  O02Xo14217   0.137   8.628   1.596
    1SIL  O02Xp14218   0.324   8.574   1.777
    1SIL  O02Xq14219   0.276   8.763   1.958
    1SIL  Si1Gw14220   9.715   9.165   1.479
    1SIL  Si1Gx14221   9.469   9.138   1.841
    1SIL  Si1Gy14222   9.815   8.939   1.660
    1SIL  O02Xr14223   9.615   9.115   1.906
    1SIL  O02Xs14224   9.662   9.303   1.544
    1SIL  O02Xt14225   9.475   9.250   1.725
    1SIL  O02Xu14226   9.721   9.053   1.596
    1SIL  O02Xv14227   0.078   9.000   1.777
    1SIL  O02Xw14228   0.031   9.188   1.958
    1SIL  Si1Gz14229   9.469   9.590   1.479
    1SIL  Si1H014230   9.223   9.564   1.841
    1SIL  Si1H114231   9.569   9.364   1.660
    1SIL  O02Xx14232   9.369   9.540   1.906
    1SIL  O02Xy14233   9.416   9.729   1.544
    1SIL  O02Xz14234   9.230   9.675   1.725
    1SIL  O02Y014235   9.475   9.479   1.596
    1SIL  O02Y114236   9.662   9.426   1.777
    1SIL  O02Y214237   9.615   9.614   1.958
    1SIL  Si1H214238   5.537   0.226   1.479
    1SIL  Si1H314239   5.291   0.200   1.841
    1SIL  Si1H414240   5.637   0.000   1.660
    1SIL  O02Y314241   5.437   0.176   1.906
    1SIL  O02Y414242   5.484   0.364   1.544
    1SIL  O02Y514243   5.298   0.311   1.725
    1SIL  O02Y614244   5.543   0.115   1.596
    1SIL  O02Y714245   5.730   0.061   1.777
    1SIL  O02Y814246   5.683   0.250   1.958
    1SIL  Si1H514247   5.291   0.652   1.479
    1SIL  Si1H614248   5.045   0.625   1.841
    1SIL  Si1H714249   5.391   0.426   1.660
    1SIL  O02Y914250   5.191   0.602   1.906
    1SIL  O02YA14251   5.239   0.790   1.544
    1SIL  O02YB14252   5.052   0.737   1.725
    1SIL  O02YC14253   5.298   0.540   1.596
    1SIL  O02YD14254   5.484   0.487   1.777
    1SIL  O02YE14255   5.437   0.675   1.958
    1SIL  Si1H814256   5.045   1.077   1.479
    1SIL  Si1H914257   4.800   1.051   1.841
    1SIL  Si1HA14258   5.145   0.851   1.660
    1SIL  O02YF14259   4.946   1.027   1.906
    1SIL  O02YG14260   4.993   1.216   1.544
    1SIL  O02YH14261   4.806   1.162   1.725
    1SIL  O02YI14262   5.052   0.966   1.596
    1SIL  O02YJ14263   5.239   0.913   1.777
    1SIL  O02YK14264   5.191   1.101   1.958
    1SIL  Si1HB14265   4.800   1.503   1.479
    1SIL  Si1HC14266   4.554   1.477   1.841
    1SIL  Si1HD14267   4.900   1.277   1.660
    1SIL  O02YL14268   4.700   1.453   1.906
    1SIL  O02YM14269   4.747   1.641   1.544
    1SIL  O02YN14270   4.560   1.588   1.725
    1SIL  O02YO14271   4.806   1.392   1.596
    1SIL  O02YP14272   4.993   1.338   1.777
    1SIL  O02YQ14273   4.946   1.527   1.958
    1SIL  Si1HE14274   4.554   1.929   1.479
    1SIL  Si1HF14275   4.308   1.902   1.841
    1SIL  Si1HG14276   4.654   1.703   1.660
    1SIL  O02YR14277   4.454   1.879   1.906
    1SIL  O02YS14278   4.501   2.067   1.544
    1SIL  O02YT14279   4.315   2.014   1.725
    1SIL  O02YU14280   4.560   1.817   1.596
    1SIL  O02YV14281   4.747   1.764   1.777
    1SIL  O02YW14282   4.700   1.952   1.958
    1SIL  Si1HH14283   4.308   2.354   1.479
    1SIL  Si1HI14284   4.062   2.328   1.841
    1SIL  Si1HJ14285   4.408   2.128   1.660
    1SIL  O02YX14286   4.208   2.304   1.906
    1SIL  O02YY14287   4.256   2.493   1.544
    1SIL  O02YZ14288   4.069   2.439   1.725
    1SIL  O02Ya14289   4.315   2.243   1.596
    1SIL  O02Yb14290   4.501   2.190   1.777
    1SIL  O02Yc14291   4.454   2.378   1.958
    1SIL  Si1HK14292   4.062   2.780   1.479
    1SIL  Si1HL14293   3.817   2.753   1.841
    1SIL  Si1HM14294   4.162   2.554   1.660
    1SIL  O02Yd14295   3.963   2.730   1.906
    1SIL  O02Ye14296   4.010   2.918   1.544
    1SIL  O02Yf14297   3.823   2.865   1.725
    1SIL  O02Yg14298   4.069   2.668   1.596
    1SIL  O02Yh14299   4.256   2.615   1.777
    1SIL  O02Yi14300   4.208   2.804   1.958
    1SIL  Si1HN14301   3.817   3.206   1.479
    1SIL  Si1HO14302   3.571   3.179   1.841
    1SIL  Si1HP14303   3.917   2.980   1.660
    1SIL  O02Yj14304   3.717   3.156   1.906
    1SIL  O02Yk14305   3.764   3.344   1.544
    1SIL  O02Yl14306   3.577   3.291   1.725
    1SIL  O02Ym14307   3.823   3.094   1.596
    1SIL  O02Yn14308   4.010   3.041   1.777
    1SIL  O02Yo14309   3.963   3.229   1.958
    1SIL  Si1HQ14310   3.571   3.631   1.479
    1SIL  Si1HR14311   3.325   3.605   1.841
    1SIL  Si1HS14312   3.671   3.405   1.660
    1SIL  O02Yp14313   3.471   3.581   1.906
    1SIL  O02Yq14314   3.518   3.769   1.544
    1SIL  O02Yr14315   3.332   3.716   1.725
    1SIL  O02Ys14316   3.577   3.520   1.596
    1SIL  O02Yt14317   3.764   3.467   1.777
    1SIL  O02Yu14318   3.717   3.655   1.958
    1SIL  Si1HT14319   3.325   4.057   1.479
    1SIL  Si1HU14320   3.079   4.030   1.841
    1SIL  Si1HV14321   3.425   3.831   1.660
    1SIL  O02Yv14322   3.225   4.007   1.906
    1SIL  O02Yw14323   3.273   4.195   1.544
    1SIL  O02Yx14324   3.086   4.142   1.725
    1SIL  O02Yy14325   3.332   3.945   1.596
    1SIL  O02Yz14326   3.518   3.892   1.777
    1SIL  O02Z014327   3.471   4.081   1.958
    1SIL  Si1HW14328   3.079   4.483   1.479
    1SIL  Si1HX14329   2.834   4.456   1.841
    1SIL  Si1HY14330   3.179   4.256   1.660
    1SIL  O02Z114331   2.980   4.432   1.906
    1SIL  O02Z214332   3.027   4.621   1.544
    1SIL  O02Z314333   2.840   4.568   1.725
    1SIL  O02Z414334   3.086   4.371   1.596
    1SIL  O02Z514335   3.273   4.318   1.777
    1SIL  O02Z614336   3.225   4.506   1.958
    1SIL  Si1HZ14337   2.834   4.908   1.479
    1SIL  Si1Ha14338   2.588   4.882   1.841
    1SIL  Si1Hb14339   2.934   4.682   1.660
    1SIL  O02Z714340   2.734   4.858   1.906
    1SIL  O02Z814341   2.781   5.046   1.544
    1SIL  O02Z914342   2.595   4.993   1.725
    1SIL  O02ZA14343   2.840   4.797   1.596
    1SIL  O02ZB14344   3.027   4.744   1.777
    1SIL  O02ZC14345   2.980   4.932   1.958
    1SIL  Si1Hc14346   2.588   5.334   1.479
    1SIL  Si1Hd14347   2.342   5.307   1.841
    1SIL  Si1He14348   2.688   5.108   1.660
    1SIL  O02ZD14349   2.488   5.284   1.906
    1SIL  O02ZE14350   2.535   5.472   1.544
    1SIL  O02ZF14351   2.349   5.419   1.725
    1SIL  O02ZG14352   2.595   5.222   1.596
    1SIL  O02ZH14353   2.781   5.169   1.777
    1SIL  O02ZI14354   2.734   5.357   1.958
    1SIL  Si1Hf14355   2.342   5.759   1.479
    1SIL  Si1Hg14356   2.097   5.733   1.841
    1SIL  Si1Hh14357   2.442   5.533   1.660
    1SIL  O02ZJ14358   2.242   5.709   1.906
    1SIL  O02ZK14359   2.290   5.898   1.544
    1SIL  O02ZL14360   2.103   5.844   1.725
    1SIL  O02ZM14361   2.349   5.648   1.596
    1SIL  O02ZN14362   2.535   5.595   1.777
    1SIL  O02ZO14363   2.488   5.783   1.958
    1SIL  Si1Hi14364   2.097   6.185   1.479
    1SIL  Si1Hj14365   1.851   6.159   1.841
    1SIL  Si1Hk14366   2.196   5.959   1.660
    1SIL  O02ZP14367   1.997   6.135   1.906
    1SIL  O02ZQ14368   2.044   6.323   1.544
    1SIL  O02ZR14369   1.857   6.270   1.725
    1SIL  O02ZS14370   2.103   6.074   1.596
    1SIL  O02ZT14371   2.290   6.020   1.777
    1SIL  O02ZU14372   2.242   6.209   1.958
    1SIL  Si1Hl14373   1.851   6.611   1.479
    1SIL  Si1Hm14374   1.605   6.584   1.841
    1SIL  Si1Hn14375   1.951   6.385   1.660
    1SIL  O02ZV14376   1.751   6.561   1.906
    1SIL  O02ZW14377   1.798   6.749   1.544
    1SIL  O02ZX14378   1.612   6.696   1.725
    1SIL  O02ZY14379   1.857   6.499   1.596
    1SIL  O02ZZ14380   2.044   6.446   1.777
    1SIL  O02Za14381   1.997   6.634   1.958
    1SIL  Si1Ho14382   1.605   7.036   1.479
    1SIL  Si1Hp14383   1.359   7.010   1.841
    1SIL  Si1Hq14384   1.705   6.810   1.660
    1SIL  O02Zb14385   1.505   6.986   1.906
    1SIL  O02Zc14386   1.552   7.175   1.544
    1SIL  O02Zd14387   1.366   7.121   1.725
    1SIL  O02Ze14388   1.612   6.925   1.596
    1SIL  O02Zf14389   1.798   6.872   1.777
    1SIL  O02Zg14390   1.751   7.060   1.958
    1SIL  Si1Hr14391   1.359   7.462   1.479
    1SIL  Si1Hs14392   1.114   7.436   1.841
    1SIL  Si1Ht14393   1.459   7.236   1.660
    1SIL  O02Zh14394   1.259   7.412   1.906
    1SIL  O02Zi14395   1.307   7.600   1.544
    1SIL  O02Zj14396   1.120   7.547   1.725
    1SIL  O02Zk14397   1.366   7.351   1.596
    1SIL  O02Zl14398   1.552   7.297   1.777
    1SIL  O02Zm14399   1.505   7.486   1.958
    1SIL  Si1Hu14400   1.114   7.888   1.479
    1SIL  Si1Hv14401   0.868   7.861   1.841
    1SIL  Si1Hw14402   1.213   7.662   1.660
    1SIL  O02Zn14403   1.014   7.838   1.906
    1SIL  O02Zo14404   1.061   8.026   1.544
    1SIL  O02Zp14405   0.874   7.973   1.725
    1SIL  O02Zq14406   1.120   7.776   1.596
    1SIL  O02Zr14407   1.307   7.723   1.777
    1SIL  O02Zs14408   1.259   7.911   1.958
    1SIL  Si1Hx14409   0.868   8.313   1.479
    1SIL  Si1Hy14410   0.622   8.287   1.841
    1SIL  Si1Hz14411   0.968   8.087   1.660
    1SIL  O02Zt14412   0.768   8.263   1.906
    1SIL  O02Zu14413   0.815   8.452   1.544
    1SIL  O02Zv14414   0.629   8.398   1.725
    1SIL  O02Zw14415   0.874   8.202   1.596
    1SIL  O02Zx14416   1.061   8.149   1.777
    1SIL  O02Zy14417   1.014   8.337   1.958
    1SIL  Si1I014418   0.622   8.739   1.479
    1SIL  Si1I114419   0.376   8.713   1.841
    1SIL  Si1I214420   0.722   8.513   1.660
    1SIL  O02Zz14421   0.522   8.689   1.906
    1SIL  O02a014422   0.569   8.877   1.544
    1SIL  O02a114423   0.383   8.824   1.725
    1SIL  O02a214424   0.629   8.628   1.596
    1SIL  O02a314425   0.815   8.574   1.777
    1SIL  O02a414426   0.768   8.763   1.958
    1SIL  Si1I314427   0.376   9.165   1.479
    1SIL  Si1I414428   0.131   9.138   1.841
    1SIL  Si1I514429   0.476   8.939   1.660
    1SIL  O02a514430   0.276   9.115   1.906
    1SIL  O02a614431   0.324   9.303   1.544
    1SIL  O02a714432   0.137   9.250   1.725
    1SIL  O02a814433   0.383   9.053   1.596
    1SIL  O02a914434   0.569   9.000   1.777
    1SIL  O02aA14435   0.522   9.188   1.958
    1SIL  Si1I614436   0.131   9.590   1.479
    1SIL  Si1I714437   9.715   9.564   1.841
    1SIL  Si1I814438   0.230   9.364   1.660
    1SIL  O02aB14439   0.031   9.540   1.906
    1SIL  O02aC14440   0.078   9.729   1.544
    1SIL  O02aD14441   9.721   9.675   1.725
    1SIL  O02aE14442   0.137   9.479   1.596
    1SIL  O02aF14443   0.324   9.426   1.777
    1SIL  O02aG14444   0.276   9.614   1.958
    1SIL  Si1I914445   6.028   0.226   1.479
    1SIL  Si1IA14446   5.783   0.200   1.841
    1SIL  Si1IB14447   6.128   0.000   1.660
    1SIL  O02aH14448   5.929   0.176   1.906
    1SIL  O02aI14449   5.976   0.364   1.544
    1SIL  O02aJ14450   5.789   0.311   1.725
    1SIL  O02aK14451   6.035   0.115   1.596
    1SIL  O02aL14452   6.222   0.061   1.777
    1SIL  O02aM14453   6.174   0.250   1.958
    1SIL  Si1IC14454   5.783   0.652   1.479
    1SIL  Si1ID14455   5.537   0.625   1.841
    1SIL  Si1IE14456   5.883   0.426   1.660
    1SIL  O02aN14457   5.683   0.602   1.906
    1SIL  O02aO14458   5.730   0.790   1.544
    1SIL  O02aP14459   5.543   0.737   1.725
    1SIL  O02aQ14460   5.789   0.540   1.596
    1SIL  O02aR14461   5.976   0.487   1.777
    1SIL  O02aS14462   5.929   0.675   1.958
    1SIL  Si1IF14463   5.537   1.077   1.479
    1SIL  Si1IG14464   5.291   1.051   1.841
    1SIL  Si1IH14465   5.637   0.851   1.660
    1SIL  O02aT14466   5.437   1.027   1.906
    1SIL  O02aU14467   5.484   1.216   1.544
    1SIL  O02aV14468   5.298   1.162   1.725
    1SIL  O02aW14469   5.543   0.966   1.596
    1SIL  O02aX14470   5.730   0.913   1.777
    1SIL  O02aY14471   5.683   1.101   1.958
    1SIL  Si1II14472   5.291   1.503   1.479
    1SIL  Si1IJ14473   5.045   1.477   1.841
    1SIL  Si1IK14474   5.391   1.277   1.660
    1SIL  O02aZ14475   5.191   1.453   1.906
    1SIL  O02aa14476   5.239   1.641   1.544
    1SIL  O02ab14477   5.052   1.588   1.725
    1SIL  O02ac14478   5.298   1.392   1.596
    1SIL  O02ad14479   5.484   1.338   1.777
    1SIL  O02ae14480   5.437   1.527   1.958
    1SIL  Si1IL14481   5.045   1.929   1.479
    1SIL  Si1IM14482   4.800   1.902   1.841
    1SIL  Si1IN14483   5.145   1.703   1.660
    1SIL  O02af14484   4.946   1.879   1.906
    1SIL  O02ag14485   4.993   2.067   1.544
    1SIL  O02ah14486   4.806   2.014   1.725
    1SIL  O02ai14487   5.052   1.817   1.596
    1SIL  O02aj14488   5.239   1.764   1.777
    1SIL  O02ak14489   5.191   1.952   1.958
    1SIL  Si1IO14490   4.800   2.354   1.479
    1SIL  Si1IP14491   4.554   2.328   1.841
    1SIL  Si1IQ14492   4.900   2.128   1.660
    1SIL  O02al14493   4.700   2.304   1.906
    1SIL  O02am14494   4.747   2.493   1.544
    1SIL  O02an14495   4.560   2.439   1.725
    1SIL  O02ao14496   4.806   2.243   1.596
    1SIL  O02ap14497   4.993   2.190   1.777
    1SIL  O02aq14498   4.946   2.378   1.958
    1SIL  Si1IR14499   4.554   2.780   1.479
    1SIL  Si1IS14500   4.308   2.753   1.841
    1SIL  Si1IT14501   4.654   2.554   1.660
    1SIL  O02ar14502   4.454   2.730   1.906
    1SIL  O02as14503   4.501   2.918   1.544
    1SIL  O02at14504   4.315   2.865   1.725
    1SIL  O02au14505   4.560   2.668   1.596
    1SIL  O02av14506   4.747   2.615   1.777
    1SIL  O02aw14507   4.700   2.804   1.958
    1SIL  Si1IU14508   4.308   3.206   1.479
    1SIL  Si1IV14509   4.062   3.179   1.841
    1SIL  Si1IW14510   4.408   2.980   1.660
    1SIL  O02ax14511   4.208   3.156   1.906
    1SIL  O02ay14512   4.256   3.344   1.544
    1SIL  O02az14513   4.069   3.291   1.725
    1SIL  O02b014514   4.315   3.094   1.596
    1SIL  O02b114515   4.501   3.041   1.777
    1SIL  O02b214516   4.454   3.229   1.958
    1SIL  Si1IX14517   4.062   3.631   1.479
    1SIL  Si1IY14518   3.817   3.605   1.841
    1SIL  Si1IZ14519   4.162   3.405   1.660
    1SIL  O02b314520   3.963   3.581   1.906
    1SIL  O02b414521   4.010   3.769   1.544
    1SIL  O02b514522   3.823   3.716   1.725
    1SIL  O02b614523   4.069   3.520   1.596
    1SIL  O02b714524   4.256   3.467   1.777
    1SIL  O02b814525   4.208   3.655   1.958
    1SIL  Si1Ia14526   3.817   4.057   1.479
    1SIL  Si1Ib14527   3.571   4.030   1.841
    1SIL  Si1Ic14528   3.917   3.831   1.660
    1SIL  O02b914529   3.717   4.007   1.906
    1SIL  O02bA14530   3.764   4.195   1.544
    1SIL  O02bB14531   3.577   4.142   1.725
    1SIL  O02bC14532   3.823   3.945   1.596
    1SIL  O02bD14533   4.010   3.892   1.777
    1SIL  O02bE14534   3.963   4.081   1.958
    1SIL  Si1Id14535   3.571   4.483   1.479
    1SIL  Si1Ie14536   3.325   4.456   1.841
    1SIL  Si1If14537   3.671   4.256   1.660
    1SIL  O02bF14538   3.471   4.432   1.906
    1SIL  O02bG14539   3.518   4.621   1.544
    1SIL  O02bH14540   3.332   4.568   1.725
    1SIL  O02bI14541   3.577   4.371   1.596
    1SIL  O02bJ14542   3.764   4.318   1.777
    1SIL  O02bK14543   3.717   4.506   1.958
    1SIL  Si1Ig14544   3.325   4.908   1.479
    1SIL  Si1Ih14545   3.079   4.882   1.841
    1SIL  Si1Ii14546   3.425   4.682   1.660
    1SIL  O02bL14547   3.225   4.858   1.906
    1SIL  O02bM14548   3.273   5.046   1.544
    1SIL  O02bN14549   3.086   4.993   1.725
    1SIL  O02bO14550   3.332   4.797   1.596
    1SIL  O02bP14551   3.518   4.744   1.777
    1SIL  O02bQ14552   3.471   4.932   1.958
    1SIL  Si1Ij14553   3.079   5.334   1.479
    1SIL  Si1Ik14554   2.834   5.307   1.841
    1SIL  Si1Il14555   3.179   5.108   1.660
    1SIL  O02bR14556   2.980   5.284   1.906
    1SIL  O02bS14557   3.027   5.472   1.544
    1SIL  O02bT14558   2.840   5.419   1.725
    1SIL  O02bU14559   3.086   5.222   1.596
    1SIL  O02bV14560   3.273   5.169   1.777
    1SIL  O02bW14561   3.225   5.357   1.958
    1SIL  Si1Im14562   2.834   5.759   1.479
    1SIL  Si1In14563   2.588   5.733   1.841
    1SIL  Si1Io14564   2.934   5.533   1.660
    1SIL  O02bX14565   2.734   5.709   1.906
    1SIL  O02bY14566   2.781   5.898   1.544
    1SIL  O02bZ14567   2.595   5.844   1.725
    1SIL  O02ba14568   2.840   5.648   1.596
    1SIL  O02bb14569   3.027   5.595   1.777
    1SIL  O02bc14570   2.980   5.783   1.958
    1SIL  Si1Ip14571   2.588   6.185   1.479
    1SIL  Si1Iq14572   2.342   6.159   1.841
    1SIL  Si1Ir14573   2.688   5.959   1.660
    1SIL  O02bd14574   2.488   6.135   1.906
    1SIL  O02be14575   2.535   6.323   1.544
    1SIL  O02bf14576   2.349   6.270   1.725
    1SIL  O02bg14577   2.595   6.074   1.596
    1SIL  O02bh14578   2.781   6.020   1.777
    1SIL  O02bi14579   2.734   6.209   1.958
    1SIL  Si1Is14580   2.342   6.611   1.479
    1SIL  Si1It14581   2.097   6.584   1.841
    1SIL  Si1Iu14582   2.442   6.385   1.660
    1SIL  O02bj14583   2.242   6.561   1.906
    1SIL  O02bk14584   2.290   6.749   1.544
    1SIL  O02bl14585   2.103   6.696   1.725
    1SIL  O02bm14586   2.349   6.499   1.596
    1SIL  O02bn14587   2.535   6.446   1.777
    1SIL  O02bo14588   2.488   6.634   1.958
    1SIL  Si1Iv14589   2.097   7.036   1.479
    1SIL  Si1Iw14590   1.851   7.010   1.841
    1SIL  Si1Ix14591   2.196   6.810   1.660
    1SIL  O02bp14592   1.997   6.986   1.906
    1SIL  O02bq14593   2.044   7.175   1.544
    1SIL  O02br14594   1.857   7.121   1.725
    1SIL  O02bs14595   2.103   6.925   1.596
    1SIL  O02bt14596   2.290   6.872   1.777
    1SIL  O02bu14597   2.242   7.060   1.958
    1SIL  Si1Iy14598   1.851   7.462   1.479
    1SIL  Si1Iz14599   1.605   7.436   1.841
    1SIL  Si1J014600   1.951   7.236   1.660
    1SIL  O02bv14601   1.751   7.412   1.906
    1SIL  O02bw14602   1.798   7.600   1.544
    1SIL  O02bx14603   1.612   7.547   1.725
    1SIL  O02by14604   1.857   7.351   1.596
    1SIL  O02bz14605   2.044   7.297   1.777
    1SIL  O02c014606   1.997   7.486   1.958
    1SIL  Si1J114607   1.605   7.888   1.479
    1SIL  Si1J214608   1.359   7.861   1.841
    1SIL  Si1J314609   1.705   7.662   1.660
    1SIL  O02c114610   1.505   7.838   1.906
    1SIL  O02c214611   1.552   8.026   1.544
    1SIL  O02c314612   1.366   7.973   1.725
    1SIL  O02c414613   1.612   7.776   1.596
    1SIL  O02c514614   1.798   7.723   1.777
    1SIL  O02c614615   1.751   7.911   1.958
    1SIL  Si1J414616   1.359   8.313   1.479
    1SIL  Si1J514617   1.114   8.287   1.841
    1SIL  Si1J614618   1.459   8.087   1.660
    1SIL  O02c714619   1.259   8.263   1.906
    1SIL  O02c814620   1.307   8.452   1.544
    1SIL  O02c914621   1.120   8.398   1.725
    1SIL  O02cA14622   1.366   8.202   1.596
    1SIL  O02cB14623   1.552   8.149   1.777
    1SIL  O02cC14624   1.505   8.337   1.958
    1SIL  Si1J714625   1.114   8.739   1.479
    1SIL  Si1J814626   0.868   8.713   1.841
    1SIL  Si1J914627   1.213   8.513   1.660
    1SIL  O02cD14628   1.014   8.689   1.906
    1SIL  O02cE14629   1.061   8.877   1.544
    1SIL  O02cF14630   0.874   8.824   1.725
    1SIL  O02cG14631   1.120   8.628   1.596
    1SIL  O02cH14632   1.307   8.574   1.777
    1SIL  O02cI14633   1.259   8.763   1.958
    1SIL  Si1JA14634   0.868   9.165   1.479
    1SIL  Si1JB14635   0.622   9.138   1.841
    1SIL  Si1JC14636   0.968   8.939   1.660
    1SIL  O02cJ14637   0.768   9.115   1.906
    1SIL  O02cK14638   0.815   9.303   1.544
    1SIL  O02cL14639   0.629   9.250   1.725
    1SIL  O02cM14640   0.874   9.053   1.596
    1SIL  O02cN14641   1.061   9.000   1.777
    1SIL  O02cO14642   1.014   9.188   1.958
    1SIL  Si1JD14643   0.622   9.590   1.479
    1SIL  Si1JE14644   0.376   9.564   1.841
    1SIL  Si1JF14645   0.722   9.364   1.660
    1SIL  O02cP14646   0.522   9.540   1.906
    1SIL  O02cQ14647   0.569   9.729   1.544
    1SIL  O02cR14648   0.383   9.675   1.725
    1SIL  O02cS14649   0.629   9.479   1.596
    1SIL  O02cT14650   0.815   9.426   1.777
    1SIL  O02cU14651   0.768   9.614   1.958
    1SIL  Si1JG14652   6.520   0.226   1.479
    1SIL  Si1JH14653   6.274   0.200   1.841
    1SIL  Si1JI14654   6.620   0.000   1.660
    1SIL  O02cV14655   6.420   0.176   1.906
    1SIL  O02cW14656   6.467   0.364   1.544
    1SIL  O02cX14657   6.281   0.311   1.725
    1SIL  O02cY14658   6.526   0.115   1.596
    1SIL  O02cZ14659   6.713   0.061   1.777
    1SIL  O02ca14660   6.666   0.250   1.958
    1SIL  Si1JJ14661   6.274   0.652   1.479
    1SIL  Si1JK14662   6.028   0.625   1.841
    1SIL  Si1JL14663   6.374   0.426   1.660
    1SIL  O02cb14664   6.174   0.602   1.906
    1SIL  O02cc14665   6.222   0.790   1.544
    1SIL  O02cd14666   6.035   0.737   1.725
    1SIL  O02ce14667   6.281   0.540   1.596
    1SIL  O02cf14668   6.467   0.487   1.777
    1SIL  O02cg14669   6.420   0.675   1.958
    1SIL  Si1JM14670   6.028   1.077   1.479
    1SIL  Si1JN14671   5.783   1.051   1.841
    1SIL  Si1JO14672   6.128   0.851   1.660
    1SIL  O02ch14673   5.929   1.027   1.906
    1SIL  O02ci14674   5.976   1.216   1.544
    1SIL  O02cj14675   5.789   1.162   1.725
    1SIL  O02ck14676   6.035   0.966   1.596
    1SIL  O02cl14677   6.222   0.913   1.777
    1SIL  O02cm14678   6.174   1.101   1.958
    1SIL  Si1JP14679   5.783   1.503   1.479
    1SIL  Si1JQ14680   5.537   1.477   1.841
    1SIL  Si1JR14681   5.883   1.277   1.660
    1SIL  O02cn14682   5.683   1.453   1.906
    1SIL  O02co14683   5.730   1.641   1.544
    1SIL  O02cp14684   5.543   1.588   1.725
    1SIL  O02cq14685   5.789   1.392   1.596
    1SIL  O02cr14686   5.976   1.338   1.777
    1SIL  O02cs14687   5.929   1.527   1.958
    1SIL  Si1JS14688   5.537   1.929   1.479
    1SIL  Si1JT14689   5.291   1.902   1.841
    1SIL  Si1JU14690   5.637   1.703   1.660
    1SIL  O02ct14691   5.437   1.879   1.906
    1SIL  O02cu14692   5.484   2.067   1.544
    1SIL  O02cv14693   5.298   2.014   1.725
    1SIL  O02cw14694   5.543   1.817   1.596
    1SIL  O02cx14695   5.730   1.764   1.777
    1SIL  O02cy14696   5.683   1.952   1.958
    1SIL  Si1JV14697   5.291   2.354   1.479
    1SIL  Si1JW14698   5.045   2.328   1.841
    1SIL  Si1JX14699   5.391   2.128   1.660
    1SIL  O02cz14700   5.191   2.304   1.906
    1SIL  O02d014701   5.239   2.493   1.544
    1SIL  O02d114702   5.052   2.439   1.725
    1SIL  O02d214703   5.298   2.243   1.596
    1SIL  O02d314704   5.484   2.190   1.777
    1SIL  O02d414705   5.437   2.378   1.958
    1SIL  Si1JY14706   5.045   2.780   1.479
    1SIL  Si1JZ14707   4.800   2.753   1.841
    1SIL  Si1Ja14708   5.145   2.554   1.660
    1SIL  O02d514709   4.946   2.730   1.906
    1SIL  O02d614710   4.993   2.918   1.544
    1SIL  O02d714711   4.806   2.865   1.725
    1SIL  O02d814712   5.052   2.668   1.596
    1SIL  O02d914713   5.239   2.615   1.777
    1SIL  O02dA14714   5.191   2.804   1.958
    1SIL  Si1Jb14715   4.800   3.206   1.479
    1SIL  Si1Jc14716   4.554   3.179   1.841
    1SIL  Si1Jd14717   4.900   2.980   1.660
    1SIL  O02dB14718   4.700   3.156   1.906
    1SIL  O02dC14719   4.747   3.344   1.544
    1SIL  O02dD14720   4.560   3.291   1.725
    1SIL  O02dE14721   4.806   3.094   1.596
    1SIL  O02dF14722   4.993   3.041   1.777
    1SIL  O02dG14723   4.946   3.229   1.958
    1SIL  Si1Je14724   4.554   3.631   1.479
    1SIL  Si1Jf14725   4.308   3.605   1.841
    1SIL  Si1Jg14726   4.654   3.405   1.660
    1SIL  O02dH14727   4.454   3.581   1.906
    1SIL  O02dI14728   4.501   3.769   1.544
    1SIL  O02dJ14729   4.315   3.716   1.725
    1SIL  O02dK14730   4.560   3.520   1.596
    1SIL  O02dL14731   4.747   3.467   1.777
    1SIL  O02dM14732   4.700   3.655   1.958
    1SIL  Si1Jh14733   4.308   4.057   1.479
    1SIL  Si1Ji14734   4.062   4.030   1.841
    1SIL  Si1Jj14735   4.408   3.831   1.660
    1SIL  O02dN14736   4.208   4.007   1.906
    1SIL  O02dO14737   4.256   4.195   1.544
    1SIL  O02dP14738   4.069   4.142   1.725
    1SIL  O02dQ14739   4.315   3.945   1.596
    1SIL  O02dR14740   4.501   3.892   1.777
    1SIL  O02dS14741   4.454   4.081   1.958
    1SIL  Si1Jk14742   4.062   4.483   1.479
    1SIL  Si1Jl14743   3.817   4.456   1.841
    1SIL  Si1Jm14744   4.162   4.256   1.660
    1SIL  O02dT14745   3.963   4.432   1.906
    1SIL  O02dU14746   4.010   4.621   1.544
    1SIL  O02dV14747   3.823   4.568   1.725
    1SIL  O02dW14748   4.069   4.371   1.596
    1SIL  O02dX14749   4.256   4.318   1.777
    1SIL  O02dY14750   4.208   4.506   1.958
    1SIL  Si1Jn14751   3.817   4.908   1.479
    1SIL  Si1Jo14752   3.571   4.882   1.841
    1SIL  Si1Jp14753   3.917   4.682   1.660
    1SIL  O02dZ14754   3.717   4.858   1.906
    1SIL  O02da14755   3.764   5.046   1.544
    1SIL  O02db14756   3.577   4.993   1.725
    1SIL  O02dc14757   3.823   4.797   1.596
    1SIL  O02dd14758   4.010   4.744   1.777
    1SIL  O02de14759   3.963   4.932   1.958
    1SIL  Si1Jq14760   3.571   5.334   1.479
    1SIL  Si1Jr14761   3.325   5.307   1.841
    1SIL  Si1Js14762   3.671   5.108   1.660
    1SIL  O02df14763   3.471   5.284   1.906
    1SIL  O02dg14764   3.518   5.472   1.544
    1SIL  O02dh14765   3.332   5.419   1.725
    1SIL  O02di14766   3.577   5.222   1.596
    1SIL  O02dj14767   3.764   5.169   1.777
    1SIL  O02dk14768   3.717   5.357   1.958
    1SIL  Si1Jt14769   3.325   5.759   1.479
    1SIL  Si1Ju14770   3.079   5.733   1.841
    1SIL  Si1Jv14771   3.425   5.533   1.660
    1SIL  O02dl14772   3.225   5.709   1.906
    1SIL  O02dm14773   3.273   5.898   1.544
    1SIL  O02dn14774   3.086   5.844   1.725
    1SIL  O02do14775   3.332   5.648   1.596
    1SIL  O02dp14776   3.518   5.595   1.777
    1SIL  O02dq14777   3.471   5.783   1.958
    1SIL  Si1Jw14778   3.079   6.185   1.479
    1SIL  Si1Jx14779   2.834   6.159   1.841
    1SIL  Si1Jy14780   3.179   5.959   1.660
    1SIL  O02dr14781   2.980   6.135   1.906
    1SIL  O02ds14782   3.027   6.323   1.544
    1SIL  O02dt14783   2.840   6.270   1.725
    1SIL  O02du14784   3.086   6.074   1.596
    1SIL  O02dv14785   3.273   6.020   1.777
    1SIL  O02dw14786   3.225   6.209   1.958
    1SIL  Si1Jz14787   2.834   6.611   1.479
    1SIL  Si1K014788   2.588   6.584   1.841
    1SIL  Si1K114789   2.934   6.385   1.660
    1SIL  O02dx14790   2.734   6.561   1.906
    1SIL  O02dy14791   2.781   6.749   1.544
    1SIL  O02dz14792   2.595   6.696   1.725
    1SIL  O02e014793   2.840   6.499   1.596
    1SIL  O02e114794   3.027   6.446   1.777
    1SIL  O02e214795   2.980   6.634   1.958
    1SIL  Si1K214796   2.588   7.036   1.479
    1SIL  Si1K314797   2.342   7.010   1.841
    1SIL  Si1K414798   2.688   6.810   1.660
    1SIL  O02e314799   2.488   6.986   1.906
    1SIL  O02e414800   2.535   7.175   1.544
    1SIL  O02e514801   2.349   7.121   1.725
    1SIL  O02e614802   2.595   6.925   1.596
    1SIL  O02e714803   2.781   6.872   1.777
    1SIL  O02e814804   2.734   7.060   1.958
    1SIL  Si1K514805   2.342   7.462   1.479
    1SIL  Si1K614806   2.097   7.436   1.841
    1SIL  Si1K714807   2.442   7.236   1.660
    1SIL  O02e914808   2.242   7.412   1.906
    1SIL  O02eA14809   2.290   7.600   1.544
    1SIL  O02eB14810   2.103   7.547   1.725
    1SIL  O02eC14811   2.349   7.351   1.596
    1SIL  O02eD14812   2.535   7.297   1.777
    1SIL  O02eE14813   2.488   7.486   1.958
    1SIL  Si1K814814   2.097   7.888   1.479
    1SIL  Si1K914815   1.851   7.861   1.841
    1SIL  Si1KA14816   2.196   7.662   1.660
    1SIL  O02eF14817   1.997   7.838   1.906
    1SIL  O02eG14818   2.044   8.026   1.544
    1SIL  O02eH14819   1.857   7.973   1.725
    1SIL  O02eI14820   2.103   7.776   1.596
    1SIL  O02eJ14821   2.290   7.723   1.777
    1SIL  O02eK14822   2.242   7.911   1.958
    1SIL  Si1KB14823   1.851   8.313   1.479
    1SIL  Si1KC14824   1.605   8.287   1.841
    1SIL  Si1KD14825   1.951   8.087   1.660
    1SIL  O02eL14826   1.751   8.263   1.906
    1SIL  O02eM14827   1.798   8.452   1.544
    1SIL  O02eN14828   1.612   8.398   1.725
    1SIL  O02eO14829   1.857   8.202   1.596
    1SIL  O02eP14830   2.044   8.149   1.777
    1SIL  O02eQ14831   1.997   8.337   1.958
    1SIL  Si1KE14832   1.605   8.739   1.479
    1SIL  Si1KF14833   1.359   8.713   1.841
    1SIL  Si1KG14834   1.705   8.513   1.660
    1SIL  O02eR14835   1.505   8.689   1.906
    1SIL  O02eS14836   1.552   8.877   1.544
    1SIL  O02eT14837   1.366   8.824   1.725
    1SIL  O02eU14838   1.612   8.628   1.596
    1SIL  O02eV14839   1.798   8.574   1.777
    1SIL  O02eW14840   1.751   8.763   1.958
    1SIL  Si1KH14841   1.359   9.165   1.479
    1SIL  Si1KI14842   1.114   9.138   1.841
    1SIL  Si1KJ14843   1.459   8.939   1.660
    1SIL  O02eX14844   1.259   9.115   1.906
    1SIL  O02eY14845   1.307   9.303   1.544
    1SIL  O02eZ14846   1.120   9.250   1.725
    1SIL  O02ea14847   1.366   9.053   1.596
    1SIL  O02eb14848   1.552   9.000   1.777
    1SIL  O02ec14849   1.505   9.188   1.958
    1SIL  Si1KK14850   1.114   9.590   1.479
    1SIL  Si1KL14851   0.868   9.564   1.841
    1SIL  Si1KM14852   1.213   9.364   1.660
    1SIL  O02ed14853   1.014   9.540   1.906
    1SIL  O02ee14854   1.061   9.729   1.544
    1SIL  O02ef14855   0.874   9.675   1.725
    1SIL  O02eg14856   1.120   9.479   1.596
    1SIL  O02eh14857   1.307   9.426   1.777
    1SIL  O02ei14858   1.259   9.614   1.958
    1SIL  Si1KN14859   7.011   0.226   1.479
    1SIL  Si1KO14860   6.766   0.200   1.841
    1SIL  Si1KP14861   7.111   0.000   1.660
    1SIL  O02ej14862   6.912   0.176   1.906
    1SIL  O02ek14863   6.959   0.364   1.544
    1SIL  O02el14864   6.772   0.311   1.725
    1SIL  O02em14865   7.018   0.115   1.596
    1SIL  O02en14866   7.205   0.061   1.777
    1SIL  O02eo14867   7.157   0.250   1.958
    1SIL  Si1KQ14868   6.766   0.652   1.479
    1SIL  Si1KR14869   6.520   0.625   1.841
    1SIL  Si1KS14870   6.866   0.426   1.660
    1SIL  O02ep14871   6.666   0.602   1.906
    1SIL  O02eq14872   6.713   0.790   1.544
    1SIL  O02er14873   6.526   0.737   1.725
    1SIL  O02es14874   6.772   0.540   1.596
    1SIL  O02et14875   6.959   0.487   1.777
    1SIL  O02eu14876   6.912   0.675   1.958
    1SIL  Si1KT14877   6.520   1.077   1.479
    1SIL  Si1KU14878   6.274   1.051   1.841
    1SIL  Si1KV14879   6.620   0.851   1.660
    1SIL  O02ev14880   6.420   1.027   1.906
    1SIL  O02ew14881   6.467   1.216   1.544
    1SIL  O02ex14882   6.281   1.162   1.725
    1SIL  O02ey14883   6.526   0.966   1.596
    1SIL  O02ez14884   6.713   0.913   1.777
    1SIL  O02f014885   6.666   1.101   1.958
    1SIL  Si1KW14886   6.274   1.503   1.479
    1SIL  Si1KX14887   6.028   1.477   1.841
    1SIL  Si1KY14888   6.374   1.277   1.660
    1SIL  O02f114889   6.174   1.453   1.906
    1SIL  O02f214890   6.222   1.641   1.544
    1SIL  O02f314891   6.035   1.588   1.725
    1SIL  O02f414892   6.281   1.392   1.596
    1SIL  O02f514893   6.467   1.338   1.777
    1SIL  O02f614894   6.420   1.527   1.958
    1SIL  Si1KZ14895   6.028   1.929   1.479
    1SIL  Si1Ka14896   5.783   1.902   1.841
    1SIL  Si1Kb14897   6.128   1.703   1.660
    1SIL  O02f714898   5.929   1.879   1.906
    1SIL  O02f814899   5.976   2.067   1.544
    1SIL  O02f914900   5.789   2.014   1.725
    1SIL  O02fA14901   6.035   1.817   1.596
    1SIL  O02fB14902   6.222   1.764   1.777
    1SIL  O02fC14903   6.174   1.952   1.958
    1SIL  Si1Kc14904   5.783   2.354   1.479
    1SIL  Si1Kd14905   5.537   2.328   1.841
    1SIL  Si1Ke14906   5.883   2.128   1.660
    1SIL  O02fD14907   5.683   2.304   1.906
    1SIL  O02fE14908   5.730   2.493   1.544
    1SIL  O02fF14909   5.543   2.439   1.725
    1SIL  O02fG14910   5.789   2.243   1.596
    1SIL  O02fH14911   5.976   2.190   1.777
    1SIL  O02fI14912   5.929   2.378   1.958
    1SIL  Si1Kf14913   5.537   2.780   1.479
    1SIL  Si1Kg14914   5.291   2.753   1.841
    1SIL  Si1Kh14915   5.637   2.554   1.660
    1SIL  O02fJ14916   5.437   2.730   1.906
    1SIL  O02fK14917   5.484   2.918   1.544
    1SIL  O02fL14918   5.298   2.865   1.725
    1SIL  O02fM14919   5.543   2.668   1.596
    1SIL  O02fN14920   5.730   2.615   1.777
    1SIL  O02fO14921   5.683   2.804   1.958
    1SIL  Si1Ki14922   5.291   3.206   1.479
    1SIL  Si1Kj14923   5.045   3.179   1.841
    1SIL  Si1Kk14924   5.391   2.980   1.660
    1SIL  O02fP14925   5.191   3.156   1.906
    1SIL  O02fQ14926   5.239   3.344   1.544
    1SIL  O02fR14927   5.052   3.291   1.725
    1SIL  O02fS14928   5.298   3.094   1.596
    1SIL  O02fT14929   5.484   3.041   1.777
    1SIL  O02fU14930   5.437   3.229   1.958
    1SIL  Si1Kl14931   5.045   3.631   1.479
    1SIL  Si1Km14932   4.800   3.605   1.841
    1SIL  Si1Kn14933   5.145   3.405   1.660
    1SIL  O02fV14934   4.946   3.581   1.906
    1SIL  O02fW14935   4.993   3.769   1.544
    1SIL  O02fX14936   4.806   3.716   1.725
    1SIL  O02fY14937   5.052   3.520   1.596
    1SIL  O02fZ14938   5.239   3.467   1.777
    1SIL  O02fa14939   5.191   3.655   1.958
    1SIL  Si1Ko14940   4.800   4.057   1.479
    1SIL  Si1Kp14941   4.554   4.030   1.841
    1SIL  Si1Kq14942   4.900   3.831   1.660
    1SIL  O02fb14943   4.700   4.007   1.906
    1SIL  O02fc14944   4.747   4.195   1.544
    1SIL  O02fd14945   4.560   4.142   1.725
    1SIL  O02fe14946   4.806   3.945   1.596
    1SIL  O02ff14947   4.993   3.892   1.777
    1SIL  O02fg14948   4.946   4.081   1.958
    1SIL  Si1Kr14949   4.554   4.483   1.479
    1SIL  Si1Ks14950   4.308   4.456   1.841
    1SIL  Si1Kt14951   4.654   4.256   1.660
    1SIL  O02fh14952   4.454   4.432   1.906
    1SIL  O02fi14953   4.501   4.621   1.544
    1SIL  O02fj14954   4.315   4.568   1.725
    1SIL  O02fk14955   4.560   4.371   1.596
    1SIL  O02fl14956   4.747   4.318   1.777
    1SIL  O02fm14957   4.700   4.506   1.958
    1SIL  Si1Ku14958   4.308   4.908   1.479
    1SIL  Si1Kv14959   4.062   4.882   1.841
    1SIL  Si1Kw14960   4.408   4.682   1.660
    1SIL  O02fn14961   4.208   4.858   1.906
    1SIL  O02fo14962   4.256   5.046   1.544
    1SIL  O02fp14963   4.069   4.993   1.725
    1SIL  O02fq14964   4.315   4.797   1.596
    1SIL  O02fr14965   4.501   4.744   1.777
    1SIL  O02fs14966   4.454   4.932   1.958
    1SIL  Si1Kx14967   4.062   5.334   1.479
    1SIL  Si1Ky14968   3.817   5.307   1.841
    1SIL  Si1Kz14969   4.162   5.108   1.660
    1SIL  O02ft14970   3.963   5.284   1.906
    1SIL  O02fu14971   4.010   5.472   1.544
    1SIL  O02fv14972   3.823   5.419   1.725
    1SIL  O02fw14973   4.069   5.222   1.596
    1SIL  O02fx14974   4.256   5.169   1.777
    1SIL  O02fy14975   4.208   5.357   1.958
    1SIL  Si1L014976   3.817   5.759   1.479
    1SIL  Si1L114977   3.571   5.733   1.841
    1SIL  Si1L214978   3.917   5.533   1.660
    1SIL  O02fz14979   3.717   5.709   1.906
    1SIL  O02g014980   3.764   5.898   1.544
    1SIL  O02g114981   3.577   5.844   1.725
    1SIL  O02g214982   3.823   5.648   1.596
    1SIL  O02g314983   4.010   5.595   1.777
    1SIL  O02g414984   3.963   5.783   1.958
    1SIL  Si1L314985   3.571   6.185   1.479
    1SIL  Si1L414986   3.325   6.159   1.841
    1SIL  Si1L514987   3.671   5.959   1.660
    1SIL  O02g514988   3.471   6.135   1.906
    1SIL  O02g614989   3.518   6.323   1.544
    1SIL  O02g714990   3.332   6.270   1.725
    1SIL  O02g814991   3.577   6.074   1.596
    1SIL  O02g914992   3.764   6.020   1.777
    1SIL  O02gA14993   3.717   6.209   1.958
    1SIL  Si1L614994   3.325   6.611   1.479
    1SIL  Si1L714995   3.079   6.584   1.841
    1SIL  Si1L814996   3.425   6.385   1.660
    1SIL  O02gB14997   3.225   6.561   1.906
    1SIL  O02gC14998   3.273   6.749   1.544
    1SIL  O02gD14999   3.086   6.696   1.725
    1SIL  O02gE15000   3.332   6.499   1.596
    1SIL  O02gF15001   3.518   6.446   1.777
    1SIL  O02gG15002   3.471   6.634   1.958
    1SIL  Si1L915003   3.079   7.036   1.479
    1SIL  Si1LA15004   2.834   7.010   1.841
    1SIL  Si1LB15005   3.179   6.810   1.660
    1SIL  O02gH15006   2.980   6.986   1.906
    1SIL  O02gI15007   3.027   7.175   1.544
    1SIL  O02gJ15008   2.840   7.121   1.725
    1SIL  O02gK15009   3.086   6.925   1.596
    1SIL  O02gL15010   3.273   6.872   1.777
    1SIL  O02gM15011   3.225   7.060   1.958
    1SIL  Si1LC15012   2.834   7.462   1.479
    1SIL  Si1LD15013   2.588   7.436   1.841
    1SIL  Si1LE15014   2.934   7.236   1.660
    1SIL  O02gN15015   2.734   7.412   1.906
    1SIL  O02gO15016   2.781   7.600   1.544
    1SIL  O02gP15017   2.595   7.547   1.725
    1SIL  O02gQ15018   2.840   7.351   1.596
    1SIL  O02gR15019   3.027   7.297   1.777
    1SIL  O02gS15020   2.980   7.486   1.958
    1SIL  Si1LF15021   2.588   7.888   1.479
    1SIL  Si1LG15022   2.342   7.861   1.841
    1SIL  Si1LH15023   2.688   7.662   1.660
    1SIL  O02gT15024   2.488   7.838   1.906
    1SIL  O02gU15025   2.535   8.026   1.544
    1SIL  O02gV15026   2.349   7.973   1.725
    1SIL  O02gW15027   2.595   7.776   1.596
    1SIL  O02gX15028   2.781   7.723   1.777
    1SIL  O02gY15029   2.734   7.911   1.958
    1SIL  Si1LI15030   2.342   8.313   1.479
    1SIL  Si1LJ15031   2.097   8.287   1.841
    1SIL  Si1LK15032   2.442   8.087   1.660
    1SIL  O02gZ15033   2.242   8.263   1.906
    1SIL  O02ga15034   2.290   8.452   1.544
    1SIL  O02gb15035   2.103   8.398   1.725
    1SIL  O02gc15036   2.349   8.202   1.596
    1SIL  O02gd15037   2.535   8.149   1.777
    1SIL  O02ge15038   2.488   8.337   1.958
    1SIL  Si1LL15039   2.097   8.739   1.479
    1SIL  Si1LM15040   1.851   8.713   1.841
    1SIL  Si1LN15041   2.196   8.513   1.660
    1SIL  O02gf15042   1.997   8.689   1.906
    1SIL  O02gg15043   2.044   8.877   1.544
    1SIL  O02gh15044   1.857   8.824   1.725
    1SIL  O02gi15045   2.103   8.628   1.596
    1SIL  O02gj15046   2.290   8.574   1.777
    1SIL  O02gk15047   2.242   8.763   1.958
    1SIL  Si1LO15048   1.851   9.165   1.479
    1SIL  Si1LP15049   1.605   9.138   1.841
    1SIL  Si1LQ15050   1.951   8.939   1.660
    1SIL  O02gl15051   1.751   9.115   1.906
    1SIL  O02gm15052   1.798   9.303   1.544
    1SIL  O02gn15053   1.612   9.250   1.725
    1SIL  O02go15054   1.857   9.053   1.596
    1SIL  O02gp15055   2.044   9.000   1.777
    1SIL  O02gq15056   1.997   9.188   1.958
    1SIL  Si1LR15057   1.605   9.590   1.479
    1SIL  Si1LS15058   1.359   9.564   1.841
    1SIL  Si1LT15059   1.705   9.364   1.660
    1SIL  O02gr15060   1.505   9.540   1.906
    1SIL  O02gs15061   1.552   9.729   1.544
    1SIL  O02gt15062   1.366   9.675   1.725
    1SIL  O02gu15063   1.612   9.479   1.596
    1SIL  O02gv15064   1.798   9.426   1.777
    1SIL  O02gw15065   1.751   9.614   1.958
    1SIL  Si1LU15066   7.503   0.226   1.479
    1SIL  Si1LV15067   7.257   0.200   1.841
    1SIL  Si1LW15068   7.603   0.000   1.660
    1SIL  O02gx15069   7.403   0.176   1.906
    1SIL  O02gy15070   7.450   0.364   1.544
    1SIL  O02gz15071   7.264   0.311   1.725
    1SIL  O02h015072   7.509   0.115   1.596
    1SIL  O02h115073   7.696   0.061   1.777
    1SIL  O02h215074   7.649   0.250   1.958
    1SIL  Si1LX15075   7.257   0.652   1.479
    1SIL  Si1LY15076   7.011   0.625   1.841
    1SIL  Si1LZ15077   7.357   0.426   1.660
    1SIL  O02h315078   7.157   0.602   1.906
    1SIL  O02h415079   7.205   0.790   1.544
    1SIL  O02h515080   7.018   0.737   1.725
    1SIL  O02h615081   7.264   0.540   1.596
    1SIL  O02h715082   7.450   0.487   1.777
    1SIL  O02h815083   7.403   0.675   1.958
    1SIL  Si1La15084   7.011   1.077   1.479
    1SIL  Si1Lb15085   6.766   1.051   1.841
    1SIL  Si1Lc15086   7.111   0.851   1.660
    1SIL  O02h915087   6.912   1.027   1.906
    1SIL  O02hA15088   6.959   1.216   1.544
    1SIL  O02hB15089   6.772   1.162   1.725
    1SIL  O02hC15090   7.018   0.966   1.596
    1SIL  O02hD15091   7.205   0.913   1.777
    1SIL  O02hE15092   7.157   1.101   1.958
    1SIL  Si1Ld15093   6.766   1.503   1.479
    1SIL  Si1Le15094   6.520   1.477   1.841
    1SIL  Si1Lf15095   6.866   1.277   1.660
    1SIL  O02hF15096   6.666   1.453   1.906
    1SIL  O02hG15097   6.713   1.641   1.544
    1SIL  O02hH15098   6.526   1.588   1.725
    1SIL  O02hI15099   6.772   1.392   1.596
    1SIL  O02hJ15100   6.959   1.338   1.777
    1SIL  O02hK15101   6.912   1.527   1.958
    1SIL  Si1Lg15102   6.520   1.929   1.479
    1SIL  Si1Lh15103   6.274   1.902   1.841
    1SIL  Si1Li15104   6.620   1.703   1.660
    1SIL  O02hL15105   6.420   1.879   1.906
    1SIL  O02hM15106   6.467   2.067   1.544
    1SIL  O02hN15107   6.281   2.014   1.725
    1SIL  O02hO15108   6.526   1.817   1.596
    1SIL  O02hP15109   6.713   1.764   1.777
    1SIL  O02hQ15110   6.666   1.952   1.958
    1SIL  Si1Lj15111   6.274   2.354   1.479
    1SIL  Si1Lk15112   6.028   2.328   1.841
    1SIL  Si1Ll15113   6.374   2.128   1.660
    1SIL  O02hR15114   6.174   2.304   1.906
    1SIL  O02hS15115   6.222   2.493   1.544
    1SIL  O02hT15116   6.035   2.439   1.725
    1SIL  O02hU15117   6.281   2.243   1.596
    1SIL  O02hV15118   6.467   2.190   1.777
    1SIL  O02hW15119   6.420   2.378   1.958
    1SIL  Si1Lm15120   6.028   2.780   1.479
    1SIL  Si1Ln15121   5.783   2.753   1.841
    1SIL  Si1Lo15122   6.128   2.554   1.660
    1SIL  O02hX15123   5.929   2.730   1.906
    1SIL  O02hY15124   5.976   2.918   1.544
    1SIL  O02hZ15125   5.789   2.865   1.725
    1SIL  O02ha15126   6.035   2.668   1.596
    1SIL  O02hb15127   6.222   2.615   1.777
    1SIL  O02hc15128   6.174   2.804   1.958
    1SIL  Si1Lp15129   5.783   3.206   1.479
    1SIL  Si1Lq15130   5.537   3.179   1.841
    1SIL  Si1Lr15131   5.883   2.980   1.660
    1SIL  O02hd15132   5.683   3.156   1.906
    1SIL  O02he15133   5.730   3.344   1.544
    1SIL  O02hf15134   5.543   3.291   1.725
    1SIL  O02hg15135   5.789   3.094   1.596
    1SIL  O02hh15136   5.976   3.041   1.777
    1SIL  O02hi15137   5.929   3.229   1.958
    1SIL  Si1Ls15138   5.537   3.631   1.479
    1SIL  Si1Lt15139   5.291   3.605   1.841
    1SIL  Si1Lu15140   5.637   3.405   1.660
    1SIL  O02hj15141   5.437   3.581   1.906
    1SIL  O02hk15142   5.484   3.769   1.544
    1SIL  O02hl15143   5.298   3.716   1.725
    1SIL  O02hm15144   5.543   3.520   1.596
    1SIL  O02hn15145   5.730   3.467   1.777
    1SIL  O02ho15146   5.683   3.655   1.958
    1SIL  Si1Lv15147   5.291   4.057   1.479
    1SIL  Si1Lw15148   5.045   4.030   1.841
    1SIL  Si1Lx15149   5.391   3.831   1.660
    1SIL  O02hp15150   5.191   4.007   1.906
    1SIL  O02hq15151   5.239   4.195   1.544
    1SIL  O02hr15152   5.052   4.142   1.725
    1SIL  O02hs15153   5.298   3.945   1.596
    1SIL  O02ht15154   5.484   3.892   1.777
    1SIL  O02hu15155   5.437   4.081   1.958
    1SIL  Si1Ly15156   5.045   4.483   1.479
    1SIL  Si1Lz15157   4.800   4.456   1.841
    1SIL  Si1M015158   5.145   4.256   1.660
    1SIL  O02hv15159   4.946   4.432   1.906
    1SIL  O02hw15160   4.993   4.621   1.544
    1SIL  O02hx15161   4.806   4.568   1.725
    1SIL  O02hy15162   5.052   4.371   1.596
    1SIL  O02hz15163   5.239   4.318   1.777
    1SIL  O02i015164   5.191   4.506   1.958
    1SIL  Si1M115165   4.800   4.908   1.479
    1SIL  Si1M215166   4.554   4.882   1.841
    1SIL  Si1M315167   4.900   4.682   1.660
    1SIL  O02i115168   4.700   4.858   1.906
    1SIL  O02i215169   4.747   5.046   1.544
    1SIL  O02i315170   4.560   4.993   1.725
    1SIL  O02i415171   4.806   4.797   1.596
    1SIL  O02i515172   4.993   4.744   1.777
    1SIL  O02i615173   4.946   4.932   1.958
    1SIL  Si1M415174   4.554   5.334   1.479
    1SIL  Si1M515175   4.308   5.307   1.841
    1SIL  Si1M615176   4.654   5.108   1.660
    1SIL  O02i715177   4.454   5.284   1.906
    1SIL  O02i815178   4.501   5.472   1.544
    1SIL  O02i915179   4.315   5.419   1.725
    1SIL  O02iA15180   4.560   5.222   1.596
    1SIL  O02iB15181   4.747   5.169   1.777
    1SIL  O02iC15182   4.700   5.357   1.958
    1SIL  Si1M715183   4.308   5.759   1.479
    1SIL  Si1M815184   4.062   5.733   1.841
    1SIL  Si1M915185   4.408   5.533   1.660
    1SIL  O02iD15186   4.208   5.709   1.906
    1SIL  O02iE15187   4.256   5.898   1.544
    1SIL  O02iF15188   4.069   5.844   1.725
    1SIL  O02iG15189   4.315   5.648   1.596
    1SIL  O02iH15190   4.501   5.595   1.777
    1SIL  O02iI15191   4.454   5.783   1.958
    1SIL  Si1MA15192   4.062   6.185   1.479
    1SIL  Si1MB15193   3.817   6.159   1.841
    1SIL  Si1MC15194   4.162   5.959   1.660
    1SIL  O02iJ15195   3.963   6.135   1.906
    1SIL  O02iK15196   4.010   6.323   1.544
    1SIL  O02iL15197   3.823   6.270   1.725
    1SIL  O02iM15198   4.069   6.074   1.596
    1SIL  O02iN15199   4.256   6.020   1.777
    1SIL  O02iO15200   4.208   6.209   1.958
    1SIL  Si1MD15201   3.817   6.611   1.479
    1SIL  Si1ME15202   3.571   6.584   1.841
    1SIL  Si1MF15203   3.917   6.385   1.660
    1SIL  O02iP15204   3.717   6.561   1.906
    1SIL  O02iQ15205   3.764   6.749   1.544
    1SIL  O02iR15206   3.577   6.696   1.725
    1SIL  O02iS15207   3.823   6.499   1.596
    1SIL  O02iT15208   4.010   6.446   1.777
    1SIL  O02iU15209   3.963   6.634   1.958
    1SIL  Si1MG15210   3.571   7.036   1.479
    1SIL  Si1MH15211   3.325   7.010   1.841
    1SIL  Si1MI15212   3.671   6.810   1.660
    1SIL  O02iV15213   3.471   6.986   1.906
    1SIL  O02iW15214   3.518   7.175   1.544
    1SIL  O02iX15215   3.332   7.121   1.725
    1SIL  O02iY15216   3.577   6.925   1.596
    1SIL  O02iZ15217   3.764   6.872   1.777
    1SIL  O02ia15218   3.717   7.060   1.958
    1SIL  Si1MJ15219   3.325   7.462   1.479
    1SIL  Si1MK15220   3.079   7.436   1.841
    1SIL  Si1ML15221   3.425   7.236   1.660
    1SIL  O02ib15222   3.225   7.412   1.906
    1SIL  O02ic15223   3.273   7.600   1.544
    1SIL  O02id15224   3.086   7.547   1.725
    1SIL  O02ie15225   3.332   7.351   1.596
    1SIL  O02if15226   3.518   7.297   1.777
    1SIL  O02ig15227   3.471   7.486   1.958
    1SIL  Si1MM15228   3.079   7.888   1.479
    1SIL  Si1MN15229   2.834   7.861   1.841
    1SIL  Si1MO15230   3.179   7.662   1.660
    1SIL  O02ih15231   2.980   7.838   1.906
    1SIL  O02ii15232   3.027   8.026   1.544
    1SIL  O02ij15233   2.840   7.973   1.725
    1SIL  O02ik15234   3.086   7.776   1.596
    1SIL  O02il15235   3.273   7.723   1.777
    1SIL  O02im15236   3.225   7.911   1.958
    1SIL  Si1MP15237   2.834   8.313   1.479
    1SIL  Si1MQ15238   2.588   8.287   1.841
    1SIL  Si1MR15239   2.934   8.087   1.660
    1SIL  O02in15240   2.734   8.263   1.906
    1SIL  O02io15241   2.781   8.452   1.544
    1SIL  O02ip15242   2.595   8.398   1.725
    1SIL  O02iq15243   2.840   8.202   1.596
    1SIL  O02ir15244   3.027   8.149   1.777
    1SIL  O02is15245   2.980   8.337   1.958
    1SIL  Si1MS15246   2.588   8.739   1.479
    1SIL  Si1MT15247   2.342   8.713   1.841
    1SIL  Si1MU15248   2.688   8.513   1.660
    1SIL  O02it15249   2.488   8.689   1.906
    1SIL  O02iu15250   2.535   8.877   1.544
    1SIL  O02iv15251   2.349   8.824   1.725
    1SIL  O02iw15252   2.595   8.628   1.596
    1SIL  O02ix15253   2.781   8.574   1.777
    1SIL  O02iy15254   2.734   8.763   1.958
    1SIL  Si1MV15255   2.342   9.165   1.479
    1SIL  Si1MW15256   2.097   9.138   1.841
    1SIL  Si1MX15257   2.442   8.939   1.660
    1SIL  O02iz15258   2.242   9.115   1.906
    1SIL  O02j015259   2.290   9.303   1.544
    1SIL  O02j115260   2.103   9.250   1.725
    1SIL  O02j215261   2.349   9.053   1.596
    1SIL  O02j315262   2.535   9.000   1.777
    1SIL  O02j415263   2.488   9.188   1.958
    1SIL  Si1MY15264   2.097   9.590   1.479
    1SIL  Si1MZ15265   1.851   9.564   1.841
    1SIL  Si1Ma15266   2.196   9.364   1.660
    1SIL  O02j515267   1.997   9.540   1.906
    1SIL  O02j615268   2.044   9.729   1.544
    1SIL  O02j715269   1.857   9.675   1.725
    1SIL  O02j815270   2.103   9.479   1.596
    1SIL  O02j915271   2.290   9.426   1.777
    1SIL  O02jA15272   2.242   9.614   1.958
    1SIL  Si1Mb15273   7.994   0.226   1.479
    1SIL  Si1Mc15274   7.749   0.200   1.841
    1SIL  Si1Md15275   8.094   0.000   1.660
    1SIL  O02jB15276   7.895   0.176   1.906
    1SIL  O02jC15277   7.942   0.364   1.544
    1SIL  O02jD15278   7.755   0.311   1.725
    1SIL  O02jE15279   8.001   0.115   1.596
    1SIL  O02jF15280   8.188   0.061   1.777
    1SIL  O02jG15281   8.140   0.250   1.958
    1SIL  Si1Me15282   7.749   0.652   1.479
    1SIL  Si1Mf15283   7.503   0.625   1.841
    1SIL  Si1Mg15284   7.849   0.426   1.660
    1SIL  O02jH15285   7.649   0.602   1.906
    1SIL  O02jI15286   7.696   0.790   1.544
    1SIL  O02jJ15287   7.509   0.737   1.725
    1SIL  O02jK15288   7.755   0.540   1.596
    1SIL  O02jL15289   7.942   0.487   1.777
    1SIL  O02jM15290   7.895   0.675   1.958
    1SIL  Si1Mh15291   7.503   1.077   1.479
    1SIL  Si1Mi15292   7.257   1.051   1.841
    1SIL  Si1Mj15293   7.603   0.851   1.660
    1SIL  O02jN15294   7.403   1.027   1.906
    1SIL  O02jO15295   7.450   1.216   1.544
    1SIL  O02jP15296   7.264   1.162   1.725
    1SIL  O02jQ15297   7.509   0.966   1.596
    1SIL  O02jR15298   7.696   0.913   1.777
    1SIL  O02jS15299   7.649   1.101   1.958
    1SIL  Si1Mk15300   7.257   1.503   1.479
    1SIL  Si1Ml15301   7.011   1.477   1.841
    1SIL  Si1Mm15302   7.357   1.277   1.660
    1SIL  O02jT15303   7.157   1.453   1.906
    1SIL  O02jU15304   7.205   1.641   1.544
    1SIL  O02jV15305   7.018   1.588   1.725
    1SIL  O02jW15306   7.264   1.392   1.596
    1SIL  O02jX15307   7.450   1.338   1.777
    1SIL  O02jY15308   7.403   1.527   1.958
    1SIL  Si1Mn15309   7.011   1.929   1.479
    1SIL  Si1Mo15310   6.766   1.902   1.841
    1SIL  Si1Mp15311   7.111   1.703   1.660
    1SIL  O02jZ15312   6.912   1.879   1.906
    1SIL  O02ja15313   6.959   2.067   1.544
    1SIL  O02jb15314   6.772   2.014   1.725
    1SIL  O02jc15315   7.018   1.817   1.596
    1SIL  O02jd15316   7.205   1.764   1.777
    1SIL  O02je15317   7.157   1.952   1.958
    1SIL  Si1Mq15318   6.766   2.354   1.479
    1SIL  Si1Mr15319   6.520   2.328   1.841
    1SIL  Si1Ms15320   6.866   2.128   1.660
    1SIL  O02jf15321   6.666   2.304   1.906
    1SIL  O02jg15322   6.713   2.493   1.544
    1SIL  O02jh15323   6.526   2.439   1.725
    1SIL  O02ji15324   6.772   2.243   1.596
    1SIL  O02jj15325   6.959   2.190   1.777
    1SIL  O02jk15326   6.912   2.378   1.958
    1SIL  Si1Mt15327   6.520   2.780   1.479
    1SIL  Si1Mu15328   6.274   2.753   1.841
    1SIL  Si1Mv15329   6.620   2.554   1.660
    1SIL  O02jl15330   6.420   2.730   1.906
    1SIL  O02jm15331   6.467   2.918   1.544
    1SIL  O02jn15332   6.281   2.865   1.725
    1SIL  O02jo15333   6.526   2.668   1.596
    1SIL  O02jp15334   6.713   2.615   1.777
    1SIL  O02jq15335   6.666   2.804   1.958
    1SIL  Si1Mw15336   6.274   3.206   1.479
    1SIL  Si1Mx15337   6.028   3.179   1.841
    1SIL  Si1My15338   6.374   2.980   1.660
    1SIL  O02jr15339   6.174   3.156   1.906
    1SIL  O02js15340   6.222   3.344   1.544
    1SIL  O02jt15341   6.035   3.291   1.725
    1SIL  O02ju15342   6.281   3.094   1.596
    1SIL  O02jv15343   6.467   3.041   1.777
    1SIL  O02jw15344   6.420   3.229   1.958
    1SIL  Si1Mz15345   6.028   3.631   1.479
    1SIL  Si1N015346   5.783   3.605   1.841
    1SIL  Si1N115347   6.128   3.405   1.660
    1SIL  O02jx15348   5.929   3.581   1.906
    1SIL  O02jy15349   5.976   3.769   1.544
    1SIL  O02jz15350   5.789   3.716   1.725
    1SIL  O02k015351   6.035   3.520   1.596
    1SIL  O02k115352   6.222   3.467   1.777
    1SIL  O02k215353   6.174   3.655   1.958
    1SIL  Si1N215354   5.783   4.057   1.479
    1SIL  Si1N315355   5.537   4.030   1.841
    1SIL  Si1N415356   5.883   3.831   1.660
    1SIL  O02k315357   5.683   4.007   1.906
    1SIL  O02k415358   5.730   4.195   1.544
    1SIL  O02k515359   5.543   4.142   1.725
    1SIL  O02k615360   5.789   3.945   1.596
    1SIL  O02k715361   5.976   3.892   1.777
    1SIL  O02k815362   5.929   4.081   1.958
    1SIL  Si1N515363   5.537   4.483   1.479
    1SIL  Si1N615364   5.291   4.456   1.841
    1SIL  Si1N715365   5.637   4.256   1.660
    1SIL  O02k915366   5.437   4.432   1.906
    1SIL  O02kA15367   5.484   4.621   1.544
    1SIL  O02kB15368   5.298   4.568   1.725
    1SIL  O02kC15369   5.543   4.371   1.596
    1SIL  O02kD15370   5.730   4.318   1.777
    1SIL  O02kE15371   5.683   4.506   1.958
    1SIL  Si1N815372   5.291   4.908   1.479
    1SIL  Si1N915373   5.045   4.882   1.841
    1SIL  Si1NA15374   5.391   4.682   1.660
    1SIL  O02kF15375   5.191   4.858   1.906
    1SIL  O02kG15376   5.239   5.046   1.544
    1SIL  O02kH15377   5.052   4.993   1.725
    1SIL  O02kI15378   5.298   4.797   1.596
    1SIL  O02kJ15379   5.484   4.744   1.777
    1SIL  O02kK15380   5.437   4.932   1.958
    1SIL  Si1NB15381   5.045   5.334   1.479
    1SIL  Si1NC15382   4.800   5.307   1.841
    1SIL  Si1ND15383   5.145   5.108   1.660
    1SIL  O02kL15384   4.946   5.284   1.906
    1SIL  O02kM15385   4.993   5.472   1.544
    1SIL  O02kN15386   4.806   5.419   1.725
    1SIL  O02kO15387   5.052   5.222   1.596
    1SIL  O02kP15388   5.239   5.169   1.777
    1SIL  O02kQ15389   5.191   5.357   1.958
    1SIL  Si1NE15390   4.800   5.759   1.479
    1SIL  Si1NF15391   4.554   5.733   1.841
    1SIL  Si1NG15392   4.900   5.533   1.660
    1SIL  O02kR15393   4.700   5.709   1.906
    1SIL  O02kS15394   4.747   5.898   1.544
    1SIL  O02kT15395   4.560   5.844   1.725
    1SIL  O02kU15396   4.806   5.648   1.596
    1SIL  O02kV15397   4.993   5.595   1.777
    1SIL  O02kW15398   4.946   5.783   1.958
    1SIL  Si1NH15399   4.554   6.185   1.479
    1SIL  Si1NI15400   4.308   6.159   1.841
    1SIL  Si1NJ15401   4.654   5.959   1.660
    1SIL  O02kX15402   4.454   6.135   1.906
    1SIL  O02kY15403   4.501   6.323   1.544
    1SIL  O02kZ15404   4.315   6.270   1.725
    1SIL  O02ka15405   4.560   6.074   1.596
    1SIL  O02kb15406   4.747   6.020   1.777
    1SIL  O02kc15407   4.700   6.209   1.958
    1SIL  Si1NK15408   4.308   6.611   1.479
    1SIL  Si1NL15409   4.062   6.584   1.841
    1SIL  Si1NM15410   4.408   6.385   1.660
    1SIL  O02kd15411   4.208   6.561   1.906
    1SIL  O02ke15412   4.256   6.749   1.544
    1SIL  O02kf15413   4.069   6.696   1.725
    1SIL  O02kg15414   4.315   6.499   1.596
    1SIL  O02kh15415   4.501   6.446   1.777
    1SIL  O02ki15416   4.454   6.634   1.958
    1SIL  Si1NN15417   4.062   7.036   1.479
    1SIL  Si1NO15418   3.817   7.010   1.841
    1SIL  Si1NP15419   4.162   6.810   1.660
    1SIL  O02kj15420   3.963   6.986   1.906
    1SIL  O02kk15421   4.010   7.175   1.544
    1SIL  O02kl15422   3.823   7.121   1.725
    1SIL  O02km15423   4.069   6.925   1.596
    1SIL  O02kn15424   4.256   6.872   1.777
    1SIL  O02ko15425   4.208   7.060   1.958
    1SIL  Si1NQ15426   3.817   7.462   1.479
    1SIL  Si1NR15427   3.571   7.436   1.841
    1SIL  Si1NS15428   3.917   7.236   1.660
    1SIL  O02kp15429   3.717   7.412   1.906
    1SIL  O02kq15430   3.764   7.600   1.544
    1SIL  O02kr15431   3.577   7.547   1.725
    1SIL  O02ks15432   3.823   7.351   1.596
    1SIL  O02kt15433   4.010   7.297   1.777
    1SIL  O02ku15434   3.963   7.486   1.958
    1SIL  Si1NT15435   3.571   7.888   1.479
    1SIL  Si1NU15436   3.325   7.861   1.841
    1SIL  Si1NV15437   3.671   7.662   1.660
    1SIL  O02kv15438   3.471   7.838   1.906
    1SIL  O02kw15439   3.518   8.026   1.544
    1SIL  O02kx15440   3.332   7.973   1.725
    1SIL  O02ky15441   3.577   7.776   1.596
    1SIL  O02kz15442   3.764   7.723   1.777
    1SIL  O02l015443   3.717   7.911   1.958
    1SIL  Si1NW15444   3.325   8.313   1.479
    1SIL  Si1NX15445   3.079   8.287   1.841
    1SIL  Si1NY15446   3.425   8.087   1.660
    1SIL  O02l115447   3.225   8.263   1.906
    1SIL  O02l215448   3.273   8.452   1.544
    1SIL  O02l315449   3.086   8.398   1.725
    1SIL  O02l415450   3.332   8.202   1.596
    1SIL  O02l515451   3.518   8.149   1.777
    1SIL  O02l615452   3.471   8.337   1.958
    1SIL  Si1NZ15453   3.079   8.739   1.479
    1SIL  Si1Na15454   2.834   8.713   1.841
    1SIL  Si1Nb15455   3.179   8.513   1.660
    1SIL  O02l715456   2.980   8.689   1.906
    1SIL  O02l815457   3.027   8.877   1.544
    1SIL  O02l915458   2.840   8.824   1.725
    1SIL  O02lA15459   3.086   8.628   1.596
    1SIL  O02lB15460   3.273   8.574   1.777
    1SIL  O02lC15461   3.225   8.763   1.958
    1SIL  Si1Nc15462   2.834   9.165   1.479
    1SIL  Si1Nd15463   2.588   9.138   1.841
    1SIL  Si1Ne15464   2.934   8.939   1.660
    1SIL  O02lD15465   2.734   9.115   1.906
    1SIL  O02lE15466   2.781   9.303   1.544
    1SIL  O02lF15467   2.595   9.250   1.725
    1SIL  O02lG15468   2.840   9.053   1.596
    1SIL  O02lH15469   3.027   9.000   1.777
    1SIL  O02lI15470   2.980   9.188   1.958
    1SIL  Si1Nf15471   2.588   9.590   1.479
    1SIL  Si1Ng15472   2.342   9.564   1.841
    1SIL  Si1Nh15473   2.688   9.364   1.660
    1SIL  O02lJ15474   2.488   9.540   1.906
    1SIL  O02lK15475   2.535   9.729   1.544
    1SIL  O02lL15476   2.349   9.675   1.725
    1SIL  O02lM15477   2.595   9.479   1.596
    1SIL  O02lN15478   2.781   9.426   1.777
    1SIL  O02lO15479   2.734   9.614   1.958
    1SIL  Si1Ni15480   8.486   0.226   1.479
    1SIL  Si1Nj15481   8.240   0.200   1.841
    1SIL  Si1Nk15482   8.586   0.000   1.660
    1SIL  O02lP15483   8.386   0.176   1.906
    1SIL  O02lQ15484   8.433   0.364   1.544
    1SIL  O02lR15485   8.247   0.311   1.725
    1SIL  O02lS15486   8.492   0.115   1.596
    1SIL  O02lT15487   8.679   0.061   1.777
    1SIL  O02lU15488   8.632   0.250   1.958
    1SIL  Si1Nl15489   8.240   0.652   1.479
    1SIL  Si1Nm15490   7.994   0.625   1.841
    1SIL  Si1Nn15491   8.340   0.426   1.660
    1SIL  O02lV15492   8.140   0.602   1.906
    1SIL  O02lW15493   8.188   0.790   1.544
    1SIL  O02lX15494   8.001   0.737   1.725
    1SIL  O02lY15495   8.247   0.540   1.596
    1SIL  O02lZ15496   8.433   0.487   1.777
    1SIL  O02la15497   8.386   0.675   1.958
    1SIL  Si1No15498   7.994   1.077   1.479
    1SIL  Si1Np15499   7.749   1.051   1.841
    1SIL  Si1Nq15500   8.094   0.851   1.660
    1SIL  O02lb15501   7.895   1.027   1.906
    1SIL  O02lc15502   7.942   1.216   1.544
    1SIL  O02ld15503   7.755   1.162   1.725
    1SIL  O02le15504   8.001   0.966   1.596
    1SIL  O02lf15505   8.188   0.913   1.777
    1SIL  O02lg15506   8.140   1.101   1.958
    1SIL  Si1Nr15507   7.749   1.503   1.479
    1SIL  Si1Ns15508   7.503   1.477   1.841
    1SIL  Si1Nt15509   7.849   1.277   1.660
    1SIL  O02lh15510   7.649   1.453   1.906
    1SIL  O02li15511   7.696   1.641   1.544
    1SIL  O02lj15512   7.509   1.588   1.725
    1SIL  O02lk15513   7.755   1.392   1.596
    1SIL  O02ll15514   7.942   1.338   1.777
    1SIL  O02lm15515   7.895   1.527   1.958
    1SIL  Si1Nu15516   7.503   1.929   1.479
    1SIL  Si1Nv15517   7.257   1.902   1.841
    1SIL  Si1Nw15518   7.603   1.703   1.660
    1SIL  O02ln15519   7.403   1.879   1.906
    1SIL  O02lo15520   7.450   2.067   1.544
    1SIL  O02lp15521   7.264   2.014   1.725
    1SIL  O02lq15522   7.509   1.817   1.596
    1SIL  O02lr15523   7.696   1.764   1.777
    1SIL  O02ls15524   7.649   1.952   1.958
    1SIL  Si1Nx15525   7.257   2.354   1.479
    1SIL  Si1Ny15526   7.011   2.328   1.841
    1SIL  Si1Nz15527   7.357   2.128   1.660
    1SIL  O02lt15528   7.157   2.304   1.906
    1SIL  O02lu15529   7.205   2.493   1.544
    1SIL  O02lv15530   7.018   2.439   1.725
    1SIL  O02lw15531   7.264   2.243   1.596
    1SIL  O02lx15532   7.450   2.190   1.777
    1SIL  O02ly15533   7.403   2.378   1.958
    1SIL  Si1O015534   7.011   2.780   1.479
    1SIL  Si1O115535   6.766   2.753   1.841
    1SIL  Si1O215536   7.111   2.554   1.660
    1SIL  O02lz15537   6.912   2.730   1.906
    1SIL  O02m015538   6.959   2.918   1.544
    1SIL  O02m115539   6.772   2.865   1.725
    1SIL  O02m215540   7.018   2.668   1.596
    1SIL  O02m315541   7.205   2.615   1.777
    1SIL  O02m415542   7.157   2.804   1.958
    1SIL  Si1O315543   6.766   3.206   1.479
    1SIL  Si1O415544   6.520   3.179   1.841
    1SIL  Si1O515545   6.866   2.980   1.660
    1SIL  O02m515546   6.666   3.156   1.906
    1SIL  O02m615547   6.713   3.344   1.544
    1SIL  O02m715548   6.526   3.291   1.725
    1SIL  O02m815549   6.772   3.094   1.596
    1SIL  O02m915550   6.959   3.041   1.777
    1SIL  O02mA15551   6.912   3.229   1.958
    1SIL  Si1O615552   6.520   3.631   1.479
    1SIL  Si1O715553   6.274   3.605   1.841
    1SIL  Si1O815554   6.620   3.405   1.660
    1SIL  O02mB15555   6.420   3.581   1.906
    1SIL  O02mC15556   6.467   3.769   1.544
    1SIL  O02mD15557   6.281   3.716   1.725
    1SIL  O02mE15558   6.526   3.520   1.596
    1SIL  O02mF15559   6.713   3.467   1.777
    1SIL  O02mG15560   6.666   3.655   1.958
    1SIL  Si1O915561   6.274   4.057   1.479
    1SIL  Si1OA15562   6.028   4.030   1.841
    1SIL  Si1OB15563   6.374   3.831   1.660
    1SIL  O02mH15564   6.174   4.007   1.906
    1SIL  O02mI15565   6.222   4.195   1.544
    1SIL  O02mJ15566   6.035   4.142   1.725
    1SIL  O02mK15567   6.281   3.945   1.596
    1SIL  O02mL15568   6.467   3.892   1.777
    1SIL  O02mM15569   6.420   4.081   1.958
    1SIL  Si1OC15570   6.028   4.483   1.479
    1SIL  Si1OD15571   5.783   4.456   1.841
    1SIL  Si1OE15572   6.128   4.256   1.660
    1SIL  O02mN15573   5.929   4.432   1.906
    1SIL  O02mO15574   5.976   4.621   1.544
    1SIL  O02mP15575   5.789   4.568   1.725
    1SIL  O02mQ15576   6.035   4.371   1.596
    1SIL  O02mR15577   6.222   4.318   1.777
    1SIL  O02mS15578   6.174   4.506   1.958
    1SIL  Si1OF15579   5.783   4.908   1.479
    1SIL  Si1OG15580   5.537   4.882   1.841
    1SIL  Si1OH15581   5.883   4.682   1.660
    1SIL  O02mT15582   5.683   4.858   1.906
    1SIL  O02mU15583   5.730   5.046   1.544
    1SIL  O02mV15584   5.543   4.993   1.725
    1SIL  O02mW15585   5.789   4.797   1.596
    1SIL  O02mX15586   5.976   4.744   1.777
    1SIL  O02mY15587   5.929   4.932   1.958
    1SIL  Si1OI15588   5.537   5.334   1.479
    1SIL  Si1OJ15589   5.291   5.307   1.841
    1SIL  Si1OK15590   5.637   5.108   1.660
    1SIL  O02mZ15591   5.437   5.284   1.906
    1SIL  O02ma15592   5.484   5.472   1.544
    1SIL  O02mb15593   5.298   5.419   1.725
    1SIL  O02mc15594   5.543   5.222   1.596
    1SIL  O02md15595   5.730   5.169   1.777
    1SIL  O02me15596   5.683   5.357   1.958
    1SIL  Si1OL15597   5.291   5.759   1.479
    1SIL  Si1OM15598   5.045   5.733   1.841
    1SIL  Si1ON15599   5.391   5.533   1.660
    1SIL  O02mf15600   5.191   5.709   1.906
    1SIL  O02mg15601   5.239   5.898   1.544
    1SIL  O02mh15602   5.052   5.844   1.725
    1SIL  O02mi15603   5.298   5.648   1.596
    1SIL  O02mj15604   5.484   5.595   1.777
    1SIL  O02mk15605   5.437   5.783   1.958
    1SIL  Si1OO15606   5.045   6.185   1.479
    1SIL  Si1OP15607   4.800   6.159   1.841
    1SIL  Si1OQ15608   5.145   5.959   1.660
    1SIL  O02ml15609   4.946   6.135   1.906
    1SIL  O02mm15610   4.993   6.323   1.544
    1SIL  O02mn15611   4.806   6.270   1.725
    1SIL  O02mo15612   5.052   6.074   1.596
    1SIL  O02mp15613   5.239   6.020   1.777
    1SIL  O02mq15614   5.191   6.209   1.958
    1SIL  Si1OR15615   4.800   6.611   1.479
    1SIL  Si1OS15616   4.554   6.584   1.841
    1SIL  Si1OT15617   4.900   6.385   1.660
    1SIL  O02mr15618   4.700   6.561   1.906
    1SIL  O02ms15619   4.747   6.749   1.544
    1SIL  O02mt15620   4.560   6.696   1.725
    1SIL  O02mu15621   4.806   6.499   1.596
    1SIL  O02mv15622   4.993   6.446   1.777
    1SIL  O02mw15623   4.946   6.634   1.958
    1SIL  Si1OU15624   4.554   7.036   1.479
    1SIL  Si1OV15625   4.308   7.010   1.841
    1SIL  Si1OW15626   4.654   6.810   1.660
    1SIL  O02mx15627   4.454   6.986   1.906
    1SIL  O02my15628   4.501   7.175   1.544
    1SIL  O02mz15629   4.315   7.121   1.725
    1SIL  O02n015630   4.560   6.925   1.596
    1SIL  O02n115631   4.747   6.872   1.777
    1SIL  O02n215632   4.700   7.060   1.958
    1SIL  Si1OX15633   4.308   7.462   1.479
    1SIL  Si1OY15634   4.062   7.436   1.841
    1SIL  Si1OZ15635   4.408   7.236   1.660
    1SIL  O02n315636   4.208   7.412   1.906
    1SIL  O02n415637   4.256   7.600   1.544
    1SIL  O02n515638   4.069   7.547   1.725
    1SIL  O02n615639   4.315   7.351   1.596
    1SIL  O02n715640   4.501   7.297   1.777
    1SIL  O02n815641   4.454   7.486   1.958
    1SIL  Si1Oa15642   4.062   7.888   1.479
    1SIL  Si1Ob15643   3.817   7.861   1.841
    1SIL  Si1Oc15644   4.162   7.662   1.660
    1SIL  O02n915645   3.963   7.838   1.906
    1SIL  O02nA15646   4.010   8.026   1.544
    1SIL  O02nB15647   3.823   7.973   1.725
    1SIL  O02nC15648   4.069   7.776   1.596
    1SIL  O02nD15649   4.256   7.723   1.777
    1SIL  O02nE15650   4.208   7.911   1.958
    1SIL  Si1Od15651   3.817   8.313   1.479
    1SIL  Si1Oe15652   3.571   8.287   1.841
    1SIL  Si1Of15653   3.917   8.087   1.660
    1SIL  O02nF15654   3.717   8.263   1.906
    1SIL  O02nG15655   3.764   8.452   1.544
    1SIL  O02nH15656   3.577   8.398   1.725
    1SIL  O02nI15657   3.823   8.202   1.596
    1SIL  O02nJ15658   4.010   8.149   1.777
    1SIL  O02nK15659   3.963   8.337   1.958
    1SIL  Si1Og15660   3.571   8.739   1.479
    1SIL  Si1Oh15661   3.325   8.713   1.841
    1SIL  Si1Oi15662   3.671   8.513   1.660
    1SIL  O02nL15663   3.471   8.689   1.906
    1SIL  O02nM15664   3.518   8.877   1.544
    1SIL  O02nN15665   3.332   8.824   1.725
    1SIL  O02nO15666   3.577   8.628   1.596
    1SIL  O02nP15667   3.764   8.574   1.777
    1SIL  O02nQ15668   3.717   8.763   1.958
    1SIL  Si1Oj15669   3.325   9.165   1.479
    1SIL  Si1Ok15670   3.079   9.138   1.841
    1SIL  Si1Ol15671   3.425   8.939   1.660
    1SIL  O02nR15672   3.225   9.115   1.906
    1SIL  O02nS15673   3.273   9.303   1.544
    1SIL  O02nT15674   3.086   9.250   1.725
    1SIL  O02nU15675   3.332   9.053   1.596
    1SIL  O02nV15676   3.518   9.000   1.777
    1SIL  O02nW15677   3.471   9.188   1.958
    1SIL  Si1Om15678   3.079   9.590   1.479
    1SIL  Si1On15679   2.834   9.564   1.841
    1SIL  Si1Oo15680   3.179   9.364   1.660
    1SIL  O02nX15681   2.980   9.540   1.906
    1SIL  O02nY15682   3.027   9.729   1.544
    1SIL  O02nZ15683   2.840   9.675   1.725
    1SIL  O02na15684   3.086   9.479   1.596
    1SIL  O02nb15685   3.273   9.426   1.777
    1SIL  O02nc15686   3.225   9.614   1.958
    1SIL  Si1Op15687   8.977   0.226   1.479
    1SIL  Si1Oq15688   8.732   0.200   1.841
    1SIL  Si1Or15689   9.077   0.000   1.660
    1SIL  O02nd15690   8.878   0.176   1.906
    1SIL  O02ne15691   8.925   0.364   1.544
    1SIL  O02nf15692   8.738   0.311   1.725
    1SIL  O02ng15693   8.984   0.115   1.596
    1SIL  O02nh15694   9.171   0.061   1.777
    1SIL  O02ni15695   9.123   0.250   1.958
    1SIL  Si1Os15696   8.732   0.652   1.479
    1SIL  Si1Ot15697   8.486   0.625   1.841
    1SIL  Si1Ou15698   8.832   0.426   1.660
    1SIL  O02nj15699   8.632   0.602   1.906
    1SIL  O02nk15700   8.679   0.790   1.544
    1SIL  O02nl15701   8.492   0.737   1.725
    1SIL  O02nm15702   8.738   0.540   1.596
    1SIL  O02nn15703   8.925   0.487   1.777
    1SIL  O02no15704   8.878   0.675   1.958
    1SIL  Si1Ov15705   8.486   1.077   1.479
    1SIL  Si1Ow15706   8.240   1.051   1.841
    1SIL  Si1Ox15707   8.586   0.851   1.660
    1SIL  O02np15708   8.386   1.027   1.906
    1SIL  O02nq15709   8.433   1.216   1.544
    1SIL  O02nr15710   8.247   1.162   1.725
    1SIL  O02ns15711   8.492   0.966   1.596
    1SIL  O02nt15712   8.679   0.913   1.777
    1SIL  O02nu15713   8.632   1.101   1.958
    1SIL  Si1Oy15714   8.240   1.503   1.479
    1SIL  Si1Oz15715   7.994   1.477   1.841
    1SIL  Si1P015716   8.340   1.277   1.660
    1SIL  O02nv15717   8.140   1.453   1.906
    1SIL  O02nw15718   8.188   1.641   1.544
    1SIL  O02nx15719   8.001   1.588   1.725
    1SIL  O02ny15720   8.247   1.392   1.596
    1SIL  O02nz15721   8.433   1.338   1.777
    1SIL  O02o015722   8.386   1.527   1.958
    1SIL  Si1P115723   7.994   1.929   1.479
    1SIL  Si1P215724   7.749   1.902   1.841
    1SIL  Si1P315725   8.094   1.703   1.660
    1SIL  O02o115726   7.895   1.879   1.906
    1SIL  O02o215727   7.942   2.067   1.544
    1SIL  O02o315728   7.755   2.014   1.725
    1SIL  O02o415729   8.001   1.817   1.596
    1SIL  O02o515730   8.188   1.764   1.777
    1SIL  O02o615731   8.140   1.952   1.958
    1SIL  Si1P415732   7.749   2.354   1.479
    1SIL  Si1P515733   7.503   2.328   1.841
    1SIL  Si1P615734   7.849   2.128   1.660
    1SIL  O02o715735   7.649   2.304   1.906
    1SIL  O02o815736   7.696   2.493   1.544
    1SIL  O02o915737   7.509   2.439   1.725
    1SIL  O02oA15738   7.755   2.243   1.596
    1SIL  O02oB15739   7.942   2.190   1.777
    1SIL  O02oC15740   7.895   2.378   1.958
    1SIL  Si1P715741   7.503   2.780   1.479
    1SIL  Si1P815742   7.257   2.753   1.841
    1SIL  Si1P915743   7.603   2.554   1.660
    1SIL  O02oD15744   7.403   2.730   1.906
    1SIL  O02oE15745   7.450   2.918   1.544
    1SIL  O02oF15746   7.264   2.865   1.725
    1SIL  O02oG15747   7.509   2.668   1.596
    1SIL  O02oH15748   7.696   2.615   1.777
    1SIL  O02oI15749   7.649   2.804   1.958
    1SIL  Si1PA15750   7.257   3.206   1.479
    1SIL  Si1PB15751   7.011   3.179   1.841
    1SIL  Si1PC15752   7.357   2.980   1.660
    1SIL  O02oJ15753   7.157   3.156   1.906
    1SIL  O02oK15754   7.205   3.344   1.544
    1SIL  O02oL15755   7.018   3.291   1.725
    1SIL  O02oM15756   7.264   3.094   1.596
    1SIL  O02oN15757   7.450   3.041   1.777
    1SIL  O02oO15758   7.403   3.229   1.958
    1SIL  Si1PD15759   7.011   3.631   1.479
    1SIL  Si1PE15760   6.766   3.605   1.841
    1SIL  Si1PF15761   7.111   3.405   1.660
    1SIL  O02oP15762   6.912   3.581   1.906
    1SIL  O02oQ15763   6.959   3.769   1.544
    1SIL  O02oR15764   6.772   3.716   1.725
    1SIL  O02oS15765   7.018   3.520   1.596
    1SIL  O02oT15766   7.205   3.467   1.777
    1SIL  O02oU15767   7.157   3.655   1.958
    1SIL  Si1PG15768   6.766   4.057   1.479
    1SIL  Si1PH15769   6.520   4.030   1.841
    1SIL  Si1PI15770   6.866   3.831   1.660
    1SIL  O02oV15771   6.666   4.007   1.906
    1SIL  O02oW15772   6.713   4.195   1.544
    1SIL  O02oX15773   6.526   4.142   1.725
    1SIL  O02oY15774   6.772   3.945   1.596
    1SIL  O02oZ15775   6.959   3.892   1.777
    1SIL  O02oa15776   6.912   4.081   1.958
    1SIL  Si1PJ15777   6.520   4.483   1.479
    1SIL  Si1PK15778   6.274   4.456   1.841
    1SIL  Si1PL15779   6.620   4.256   1.660
    1SIL  O02ob15780   6.420   4.432   1.906
    1SIL  O02oc15781   6.467   4.621   1.544
    1SIL  O02od15782   6.281   4.568   1.725
    1SIL  O02oe15783   6.526   4.371   1.596
    1SIL  O02of15784   6.713   4.318   1.777
    1SIL  O02og15785   6.666   4.506   1.958
    1SIL  Si1PM15786   6.274   4.908   1.479
    1SIL  Si1PN15787   6.028   4.882   1.841
    1SIL  Si1PO15788   6.374   4.682   1.660
    1SIL  O02oh15789   6.174   4.858   1.906
    1SIL  O02oi15790   6.222   5.046   1.544
    1SIL  O02oj15791   6.035   4.993   1.725
    1SIL  O02ok15792   6.281   4.797   1.596
    1SIL  O02ol15793   6.467   4.744   1.777
    1SIL  O02om15794   6.420   4.932   1.958
    1SIL  Si1PP15795   6.028   5.334   1.479
    1SIL  Si1PQ15796   5.783   5.307   1.841
    1SIL  Si1PR15797   6.128   5.108   1.660
    1SIL  O02on15798   5.929   5.284   1.906
    1SIL  O02oo15799   5.976   5.472   1.544
    1SIL  O02op15800   5.789   5.419   1.725
    1SIL  O02oq15801   6.035   5.222   1.596
    1SIL  O02or15802   6.222   5.169   1.777
    1SIL  O02os15803   6.174   5.357   1.958
    1SIL  Si1PS15804   5.783   5.759   1.479
    1SIL  Si1PT15805   5.537   5.733   1.841
    1SIL  Si1PU15806   5.883   5.533   1.660
    1SIL  O02ot15807   5.683   5.709   1.906
    1SIL  O02ou15808   5.730   5.898   1.544
    1SIL  O02ov15809   5.543   5.844   1.725
    1SIL  O02ow15810   5.789   5.648   1.596
    1SIL  O02ox15811   5.976   5.595   1.777
    1SIL  O02oy15812   5.929   5.783   1.958
    1SIL  Si1PV15813   5.537   6.185   1.479
    1SIL  Si1PW15814   5.291   6.159   1.841
    1SIL  Si1PX15815   5.637   5.959   1.660
    1SIL  O02oz15816   5.437   6.135   1.906
    1SIL  O02p015817   5.484   6.323   1.544
    1SIL  O02p115818   5.298   6.270   1.725
    1SIL  O02p215819   5.543   6.074   1.596
    1SIL  O02p315820   5.730   6.020   1.777
    1SIL  O02p415821   5.683   6.209   1.958
    1SIL  Si1PY15822   5.291   6.611   1.479
    1SIL  Si1PZ15823   5.045   6.584   1.841
    1SIL  Si1Pa15824   5.391   6.385   1.660
    1SIL  O02p515825   5.191   6.561   1.906
    1SIL  O02p615826   5.239   6.749   1.544
    1SIL  O02p715827   5.052   6.696   1.725
    1SIL  O02p815828   5.298   6.499   1.596
    1SIL  O02p915829   5.484   6.446   1.777
    1SIL  O02pA15830   5.437   6.634   1.958
    1SIL  Si1Pb15831   5.045   7.036   1.479
    1SIL  Si1Pc15832   4.800   7.010   1.841
    1SIL  Si1Pd15833   5.145   6.810   1.660
    1SIL  O02pB15834   4.946   6.986   1.906
    1SIL  O02pC15835   4.993   7.175   1.544
    1SIL  O02pD15836   4.806   7.121   1.725
    1SIL  O02pE15837   5.052   6.925   1.596
    1SIL  O02pF15838   5.239   6.872   1.777
    1SIL  O02pG15839   5.191   7.060   1.958
    1SIL  Si1Pe15840   4.800   7.462   1.479
    1SIL  Si1Pf15841   4.554   7.436   1.841
    1SIL  Si1Pg15842   4.900   7.236   1.660
    1SIL  O02pH15843   4.700   7.412   1.906
    1SIL  O02pI15844   4.747   7.600   1.544
    1SIL  O02pJ15845   4.560   7.547   1.725
    1SIL  O02pK15846   4.806   7.351   1.596
    1SIL  O02pL15847   4.993   7.297   1.777
    1SIL  O02pM15848   4.946   7.486   1.958
    1SIL  Si1Ph15849   4.554   7.888   1.479
    1SIL  Si1Pi15850   4.308   7.861   1.841
    1SIL  Si1Pj15851   4.654   7.662   1.660
    1SIL  O02pN15852   4.454   7.838   1.906
    1SIL  O02pO15853   4.501   8.026   1.544
    1SIL  O02pP15854   4.315   7.973   1.725
    1SIL  O02pQ15855   4.560   7.776   1.596
    1SIL  O02pR15856   4.747   7.723   1.777
    1SIL  O02pS15857   4.700   7.911   1.958
    1SIL  Si1Pk15858   4.308   8.313   1.479
    1SIL  Si1Pl15859   4.062   8.287   1.841
    1SIL  Si1Pm15860   4.408   8.087   1.660
    1SIL  O02pT15861   4.208   8.263   1.906
    1SIL  O02pU15862   4.256   8.452   1.544
    1SIL  O02pV15863   4.069   8.398   1.725
    1SIL  O02pW15864   4.315   8.202   1.596
    1SIL  O02pX15865   4.501   8.149   1.777
    1SIL  O02pY15866   4.454   8.337   1.958
    1SIL  Si1Pn15867   4.062   8.739   1.479
    1SIL  Si1Po15868   3.817   8.713   1.841
    1SIL  Si1Pp15869   4.162   8.513   1.660
    1SIL  O02pZ15870   3.963   8.689   1.906
    1SIL  O02pa15871   4.010   8.877   1.544
    1SIL  O02pb15872   3.823   8.824   1.725
    1SIL  O02pc15873   4.069   8.628   1.596
    1SIL  O02pd15874   4.256   8.574   1.777
    1SIL  O02pe15875   4.208   8.763   1.958
    1SIL  Si1Pq15876   3.817   9.165   1.479
    1SIL  Si1Pr15877   3.571   9.138   1.841
    1SIL  Si1Ps15878   3.917   8.939   1.660
    1SIL  O02pf15879   3.717   9.115   1.906
    1SIL  O02pg15880   3.764   9.303   1.544
    1SIL  O02ph15881   3.577   9.250   1.725
    1SIL  O02pi15882   3.823   9.053   1.596
    1SIL  O02pj15883   4.010   9.000   1.777
    1SIL  O02pk15884   3.963   9.188   1.958
    1SIL  Si1Pt15885   3.571   9.590   1.479
    1SIL  Si1Pu15886   3.325   9.564   1.841
    1SIL  Si1Pv15887   3.671   9.364   1.660
    1SIL  O02pl15888   3.471   9.540   1.906
    1SIL  O02pm15889   3.518   9.729   1.544
    1SIL  O02pn15890   3.332   9.675   1.725
    1SIL  O02po15891   3.577   9.479   1.596
    1SIL  O02pp15892   3.764   9.426   1.777
    1SIL  O02pq15893   3.717   9.614   1.958
    1SIL  Si1Pw15894   9.469   0.226   1.479
    1SIL  Si1Px15895   9.223   0.200   1.841
    1SIL  Si1Py15896   9.569   0.000   1.660
    1SIL  O02pr15897   9.369   0.176   1.906
    1SIL  O02ps15898   9.416   0.364   1.544
    1SIL  O02pt15899   9.230   0.311   1.725
    1SIL  O02pu15900   9.475   0.115   1.596
    1SIL  O02pv15901   9.662   0.061   1.777
    1SIL  O02pw15902   9.615   0.250   1.958
    1SIL  Si1Pz15903   9.223   0.652   1.479
    1SIL  Si1Q015904   8.977   0.625   1.841
    1SIL  Si1Q115905   9.323   0.426   1.660
    1SIL  O02px15906   9.123   0.602   1.906
    1SIL  O02py15907   9.171   0.790   1.544
    1SIL  O02pz15908   8.984   0.737   1.725
    1SIL  O02q015909   9.230   0.540   1.596
    1SIL  O02q115910   9.416   0.487   1.777
    1SIL  O02q215911   9.369   0.675   1.958
    1SIL  Si1Q215912   8.977   1.077   1.479
    1SIL  Si1Q315913   8.732   1.051   1.841
    1SIL  Si1Q415914   9.077   0.851   1.660
    1SIL  O02q315915   8.878   1.027   1.906
    1SIL  O02q415916   8.925   1.216   1.544
    1SIL  O02q515917   8.738   1.162   1.725
    1SIL  O02q615918   8.984   0.966   1.596
    1SIL  O02q715919   9.171   0.913   1.777
    1SIL  O02q815920   9.123   1.101   1.958
    1SIL  Si1Q515921   8.732   1.503   1.479
    1SIL  Si1Q615922   8.486   1.477   1.841
    1SIL  Si1Q715923   8.832   1.277   1.660
    1SIL  O02q915924   8.632   1.453   1.906
    1SIL  O02qA15925   8.679   1.641   1.544
    1SIL  O02qB15926   8.492   1.588   1.725
    1SIL  O02qC15927   8.738   1.392   1.596
    1SIL  O02qD15928   8.925   1.338   1.777
    1SIL  O02qE15929   8.878   1.527   1.958
    1SIL  Si1Q815930   8.486   1.929   1.479
    1SIL  Si1Q915931   8.240   1.902   1.841
    1SIL  Si1QA15932   8.586   1.703   1.660
    1SIL  O02qF15933   8.386   1.879   1.906
    1SIL  O02qG15934   8.433   2.067   1.544
    1SIL  O02qH15935   8.247   2.014   1.725
    1SIL  O02qI15936   8.492   1.817   1.596
    1SIL  O02qJ15937   8.679   1.764   1.777
    1SIL  O02qK15938   8.632   1.952   1.958
    1SIL  Si1QB15939   8.240   2.354   1.479
    1SIL  Si1QC15940   7.994   2.328   1.841
    1SIL  Si1QD15941   8.340   2.128   1.660
    1SIL  O02qL15942   8.140   2.304   1.906
    1SIL  O02qM15943   8.188   2.493   1.544
    1SIL  O02qN15944   8.001   2.439   1.725
    1SIL  O02qO15945   8.247   2.243   1.596
    1SIL  O02qP15946   8.433   2.190   1.777
    1SIL  O02qQ15947   8.386   2.378   1.958
    1SIL  Si1QE15948   7.994   2.780   1.479
    1SIL  Si1QF15949   7.749   2.753   1.841
    1SIL  Si1QG15950   8.094   2.554   1.660
    1SIL  O02qR15951   7.895   2.730   1.906
    1SIL  O02qS15952   7.942   2.918   1.544
    1SIL  O02qT15953   7.755   2.865   1.725
    1SIL  O02qU15954   8.001   2.668   1.596
    1SIL  O02qV15955   8.188   2.615   1.777
    1SIL  O02qW15956   8.140   2.804   1.958
    1SIL  Si1QH15957   7.749   3.206   1.479
    1SIL  Si1QI15958   7.503   3.179   1.841
    1SIL  Si1QJ15959   7.849   2.980   1.660
    1SIL  O02qX15960   7.649   3.156   1.906
    1SIL  O02qY15961   7.696   3.344   1.544
    1SIL  O02qZ15962   7.509   3.291   1.725
    1SIL  O02qa15963   7.755   3.094   1.596
    1SIL  O02qb15964   7.942   3.041   1.777
    1SIL  O02qc15965   7.895   3.229   1.958
    1SIL  Si1QK15966   7.503   3.631   1.479
    1SIL  Si1QL15967   7.257   3.605   1.841
    1SIL  Si1QM15968   7.603   3.405   1.660
    1SIL  O02qd15969   7.403   3.581   1.906
    1SIL  O02qe15970   7.450   3.769   1.544
    1SIL  O02qf15971   7.264   3.716   1.725
    1SIL  O02qg15972   7.509   3.520   1.596
    1SIL  O02qh15973   7.696   3.467   1.777
    1SIL  O02qi15974   7.649   3.655   1.958
    1SIL  Si1QN15975   7.257   4.057   1.479
    1SIL  Si1QO15976   7.011   4.030   1.841
    1SIL  Si1QP15977   7.357   3.831   1.660
    1SIL  O02qj15978   7.157   4.007   1.906
    1SIL  O02qk15979   7.205   4.195   1.544
    1SIL  O02ql15980   7.018   4.142   1.725
    1SIL  O02qm15981   7.264   3.945   1.596
    1SIL  O02qn15982   7.450   3.892   1.777
    1SIL  O02qo15983   7.403   4.081   1.958
    1SIL  Si1QQ15984   7.011   4.483   1.479
    1SIL  Si1QR15985   6.766   4.456   1.841
    1SIL  Si1QS15986   7.111   4.256   1.660
    1SIL  O02qp15987   6.912   4.432   1.906
    1SIL  O02qq15988   6.959   4.621   1.544
    1SIL  O02qr15989   6.772   4.568   1.725
    1SIL  O02qs15990   7.018   4.371   1.596
    1SIL  O02qt15991   7.205   4.318   1.777
    1SIL  O02qu15992   7.157   4.506   1.958
    1SIL  Si1QT15993   6.766   4.908   1.479
    1SIL  Si1QU15994   6.520   4.882   1.841
    1SIL  Si1QV15995   6.866   4.682   1.660
    1SIL  O02qv15996   6.666   4.858   1.906
    1SIL  O02qw15997   6.713   5.046   1.544
    1SIL  O02qx15998   6.526   4.993   1.725
    1SIL  O02qy15999   6.772   4.797   1.596
    1SIL  O02qz16000   6.959   4.744   1.777
    1SIL  O02r016001   6.912   4.932   1.958
    1SIL  Si1QW16002   6.520   5.334   1.479
    1SIL  Si1QX16003   6.274   5.307   1.841
    1SIL  Si1QY16004   6.620   5.108   1.660
    1SIL  O02r116005   6.420   5.284   1.906
    1SIL  O02r216006   6.467   5.472   1.544
    1SIL  O02r316007   6.281   5.419   1.725
    1SIL  O02r416008   6.526   5.222   1.596
    1SIL  O02r516009   6.713   5.169   1.777
    1SIL  O02r616010   6.666   5.357   1.958
    1SIL  Si1QZ16011   6.274   5.759   1.479
    1SIL  Si1Qa16012   6.028   5.733   1.841
    1SIL  Si1Qb16013   6.374   5.533   1.660
    1SIL  O02r716014   6.174   5.709   1.906
    1SIL  O02r816015   6.222   5.898   1.544
    1SIL  O02r916016   6.035   5.844   1.725
    1SIL  O02rA16017   6.281   5.648   1.596
    1SIL  O02rB16018   6.467   5.595   1.777
    1SIL  O02rC16019   6.420   5.783   1.958
    1SIL  Si1Qc16020   6.028   6.185   1.479
    1SIL  Si1Qd16021   5.783   6.159   1.841
    1SIL  Si1Qe16022   6.128   5.959   1.660
    1SIL  O02rD16023   5.929   6.135   1.906
    1SIL  O02rE16024   5.976   6.323   1.544
    1SIL  O02rF16025   5.789   6.270   1.725
    1SIL  O02rG16026   6.035   6.074   1.596
    1SIL  O02rH16027   6.222   6.020   1.777
    1SIL  O02rI16028   6.174   6.209   1.958
    1SIL  Si1Qf16029   5.783   6.611   1.479
    1SIL  Si1Qg16030   5.537   6.584   1.841
    1SIL  Si1Qh16031   5.883   6.385   1.660
    1SIL  O02rJ16032   5.683   6.561   1.906
    1SIL  O02rK16033   5.730   6.749   1.544
    1SIL  O02rL16034   5.543   6.696   1.725
    1SIL  O02rM16035   5.789   6.499   1.596
    1SIL  O02rN16036   5.976   6.446   1.777
    1SIL  O02rO16037   5.929   6.634   1.958
    1SIL  Si1Qi16038   5.537   7.036   1.479
    1SIL  Si1Qj16039   5.291   7.010   1.841
    1SIL  Si1Qk16040   5.637   6.810   1.660
    1SIL  O02rP16041   5.437   6.986   1.906
    1SIL  O02rQ16042   5.484   7.175   1.544
    1SIL  O02rR16043   5.298   7.121   1.725
    1SIL  O02rS16044   5.543   6.925   1.596
    1SIL  O02rT16045   5.730   6.872   1.777
    1SIL  O02rU16046   5.683   7.060   1.958
    1SIL  Si1Ql16047   5.291   7.462   1.479
    1SIL  Si1Qm16048   5.045   7.436   1.841
    1SIL  Si1Qn16049   5.391   7.236   1.660
    1SIL  O02rV16050   5.191   7.412   1.906
    1SIL  O02rW16051   5.239   7.600   1.544
    1SIL  O02rX16052   5.052   7.547   1.725
    1SIL  O02rY16053   5.298   7.351   1.596
    1SIL  O02rZ16054   5.484   7.297   1.777
    1SIL  O02ra16055   5.437   7.486   1.958
    1SIL  Si1Qo16056   5.045   7.888   1.479
    1SIL  Si1Qp16057   4.800   7.861   1.841
    1SIL  Si1Qq16058   5.145   7.662   1.660
    1SIL  O02rb16059   4.946   7.838   1.906
    1SIL  O02rc16060   4.993   8.026   1.544
    1SIL  O02rd16061   4.806   7.973   1.725
    1SIL  O02re16062   5.052   7.776   1.596
    1SIL  O02rf16063   5.239   7.723   1.777
    1SIL  O02rg16064   5.191   7.911   1.958
    1SIL  Si1Qr16065   4.800   8.313   1.479
    1SIL  Si1Qs16066   4.554   8.287   1.841
    1SIL  Si1Qt16067   4.900   8.087   1.660
    1SIL  O02rh16068   4.700   8.263   1.906
    1SIL  O02ri16069   4.747   8.452   1.544
    1SIL  O02rj16070   4.560   8.398   1.725
    1SIL  O02rk16071   4.806   8.202   1.596
    1SIL  O02rl16072   4.993   8.149   1.777
    1SIL  O02rm16073   4.946   8.337   1.958
    1SIL  Si1Qu16074   4.554   8.739   1.479
    1SIL  Si1Qv16075   4.308   8.713   1.841
    1SIL  Si1Qw16076   4.654   8.513   1.660
    1SIL  O02rn16077   4.454   8.689   1.906
    1SIL  O02ro16078   4.501   8.877   1.544
    1SIL  O02rp16079   4.315   8.824   1.725
    1SIL  O02rq16080   4.560   8.628   1.596
    1SIL  O02rr16081   4.747   8.574   1.777
    1SIL  O02rs16082   4.700   8.763   1.958
    1SIL  Si1Qx16083   4.308   9.165   1.479
    1SIL  Si1Qy16084   4.062   9.138   1.841
    1SIL  Si1Qz16085   4.408   8.939   1.660
    1SIL  O02rt16086   4.208   9.115   1.906
    1SIL  O02ru16087   4.256   9.303   1.544
    1SIL  O02rv16088   4.069   9.250   1.725
    1SIL  O02rw16089   4.315   9.053   1.596
    1SIL  O02rx16090   4.501   9.000   1.777
    1SIL  O02ry16091   4.454   9.188   1.958
    1SIL  Si1R016092   4.062   9.590   1.479
    1SIL  Si1R116093   3.817   9.564   1.841
    1SIL  Si1R216094   4.162   9.364   1.660
    1SIL  O02rz16095   3.963   9.540   1.906
    1SIL  O02s016096   4.010   9.729   1.544
    1SIL  O02s116097   3.823   9.675   1.725
    1SIL  O02s216098   4.069   9.479   1.596
    1SIL  O02s316099   4.256   9.426   1.777
    1SIL  O02s416100   4.208   9.614   1.958
    1SIL  Si1R316101   0.131   0.226   2.023
    1SIL  Si1R416102   9.715   0.200   2.385
    1SIL  Si1R516103   0.230   0.000   2.204
    1SIL  O02s516104   0.031   0.176   2.449
    1SIL  O02s616105   0.078   0.364   2.087
    1SIL  O02s716106   9.721   0.311   2.268
    1SIL  O02s816107   0.137   0.115   2.139
    1SIL  O02s916108   0.324   0.061   2.320
    1SIL  O02sA16109   0.276   0.250   2.501
    1SIL  Si1R616110   9.715   0.652   2.023
    1SIL  Si1R716111   9.469   0.625   2.385
    1SIL  Si1R816112   9.815   0.426   2.204
    1SIL  O02sB16113   9.615   0.602   2.449
    1SIL  O02sC16114   9.662   0.790   2.087
    1SIL  O02sD16115   9.475   0.737   2.268
    1SIL  O02sE16116   9.721   0.540   2.139
    1SIL  O02sF16117   0.078   0.487   2.320
    1SIL  O02sG16118   0.031   0.675   2.501
    1SIL  Si1R916119   9.469   1.077   2.023
    1SIL  Si1RA16120   9.223   1.051   2.385
    1SIL  Si1RB16121   9.569   0.851   2.204
    1SIL  O02sH16122   9.369   1.027   2.449
    1SIL  O02sI16123   9.416   1.216   2.087
    1SIL  O02sJ16124   9.230   1.162   2.268
    1SIL  O02sK16125   9.475   0.966   2.139
    1SIL  O02sL16126   9.662   0.913   2.320
    1SIL  O02sM16127   9.615   1.101   2.501
    1SIL  Si1RC16128   9.223   1.503   2.023
    1SIL  Si1RD16129   8.977   1.477   2.385
    1SIL  Si1RE16130   9.323   1.277   2.204
    1SIL  O02sN16131   9.123   1.453   2.449
    1SIL  O02sO16132   9.171   1.641   2.087
    1SIL  O02sP16133   8.984   1.588   2.268
    1SIL  O02sQ16134   9.230   1.392   2.139
    1SIL  O02sR16135   9.416   1.338   2.320
    1SIL  O02sS16136   9.369   1.527   2.501
    1SIL  Si1RF16137   8.977   1.929   2.023
    1SIL  Si1RG16138   8.732   1.902   2.385
    1SIL  Si1RH16139   9.077   1.703   2.204
    1SIL  O02sT16140   8.878   1.879   2.449
    1SIL  O02sU16141   8.925   2.067   2.087
    1SIL  O02sV16142   8.738   2.014   2.268
    1SIL  O02sW16143   8.984   1.817   2.139
    1SIL  O02sX16144   9.171   1.764   2.320
    1SIL  O02sY16145   9.123   1.952   2.501
    1SIL  Si1RI16146   8.732   2.354   2.023
    1SIL  Si1RJ16147   8.486   2.328   2.385
    1SIL  Si1RK16148   8.832   2.128   2.204
    1SIL  O02sZ16149   8.632   2.304   2.449
    1SIL  O02sa16150   8.679   2.493   2.087
    1SIL  O02sb16151   8.492   2.439   2.268
    1SIL  O02sc16152   8.738   2.243   2.139
    1SIL  O02sd16153   8.925   2.190   2.320
    1SIL  O02se16154   8.878   2.378   2.501
    1SIL  Si1RL16155   8.486   2.780   2.023
    1SIL  Si1RM16156   8.240   2.753   2.385
    1SIL  Si1RN16157   8.586   2.554   2.204
    1SIL  O02sf16158   8.386   2.730   2.449
    1SIL  O02sg16159   8.433   2.918   2.087
    1SIL  O02sh16160   8.247   2.865   2.268
    1SIL  O02si16161   8.492   2.668   2.139
    1SIL  O02sj16162   8.679   2.615   2.320
    1SIL  O02sk16163   8.632   2.804   2.501
    1SIL  Si1RO16164   8.240   3.206   2.023
    1SIL  Si1RP16165   7.994   3.179   2.385
    1SIL  Si1RQ16166   8.340   2.980   2.204
    1SIL  O02sl16167   8.140   3.156   2.449
    1SIL  O02sm16168   8.188   3.344   2.087
    1SIL  O02sn16169   8.001   3.291   2.268
    1SIL  O02so16170   8.247   3.094   2.139
    1SIL  O02sp16171   8.433   3.041   2.320
    1SIL  O02sq16172   8.386   3.229   2.501
    1SIL  Si1RR16173   7.994   3.631   2.023
    1SIL  Si1RS16174   7.749   3.605   2.385
    1SIL  Si1RT16175   8.094   3.405   2.204
    1SIL  O02sr16176   7.895   3.581   2.449
    1SIL  O02ss16177   7.942   3.769   2.087
    1SIL  O02st16178   7.755   3.716   2.268
    1SIL  O02su16179   8.001   3.520   2.139
    1SIL  O02sv16180   8.188   3.467   2.320
    1SIL  O02sw16181   8.140   3.655   2.501
    1SIL  Si1RU16182   7.749   4.057   2.023
    1SIL  Si1RV16183   7.503   4.030   2.385
    1SIL  Si1RW16184   7.849   3.831   2.204
    1SIL  O02sx16185   7.649   4.007   2.449
    1SIL  O02sy16186   7.696   4.195   2.087
    1SIL  O02sz16187   7.509   4.142   2.268
    1SIL  O02t016188   7.755   3.945   2.139
    1SIL  O02t116189   7.942   3.892   2.320
    1SIL  O02t216190   7.895   4.081   2.501
    1SIL  Si1RX16191   7.503   4.483   2.023
    1SIL  Si1RY16192   7.257   4.456   2.385
    1SIL  Si1RZ16193   7.603   4.256   2.204
    1SIL  O02t316194   7.403   4.432   2.449
    1SIL  O02t416195   7.450   4.621   2.087
    1SIL  O02t516196   7.264   4.568   2.268
    1SIL  O02t616197   7.509   4.371   2.139
    1SIL  O02t716198   7.696   4.318   2.320
    1SIL  O02t816199   7.649   4.506   2.501
    1SIL  Si1Ra16200   7.257   4.908   2.023
    1SIL  Si1Rb16201   7.011   4.882   2.385
    1SIL  Si1Rc16202   7.357   4.682   2.204
    1SIL  O02t916203   7.157   4.858   2.449
    1SIL  O02tA16204   7.205   5.046   2.087
    1SIL  O02tB16205   7.018   4.993   2.268
    1SIL  O02tC16206   7.264   4.797   2.139
    1SIL  O02tD16207   7.450   4.744   2.320
    1SIL  O02tE16208   7.403   4.932   2.501
    1SIL  Si1Rd16209   7.011   5.334   2.023
    1SIL  Si1Re16210   6.766   5.307   2.385
    1SIL  Si1Rf16211   7.111   5.108   2.204
    1SIL  O02tF16212   6.912   5.284   2.449
    1SIL  O02tG16213   6.959   5.472   2.087
    1SIL  O02tH16214   6.772   5.419   2.268
    1SIL  O02tI16215   7.018   5.222   2.139
    1SIL  O02tJ16216   7.205   5.169   2.320
    1SIL  O02tK16217   7.157   5.357   2.501
    1SIL  Si1Rg16218   6.766   5.759   2.023
    1SIL  Si1Rh16219   6.520   5.733   2.385
    1SIL  Si1Ri16220   6.866   5.533   2.204
    1SIL  O02tL16221   6.666   5.709   2.449
    1SIL  O02tM16222   6.713   5.898   2.087
    1SIL  O02tN16223   6.526   5.844   2.268
    1SIL  O02tO16224   6.772   5.648   2.139
    1SIL  O02tP16225   6.959   5.595   2.320
    1SIL  O02tQ16226   6.912   5.783   2.501
    1SIL  Si1Rj16227   6.520   6.185   2.023
    1SIL  Si1Rk16228   6.274   6.159   2.385
    1SIL  Si1Rl16229   6.620   5.959   2.204
    1SIL  O02tR16230   6.420   6.135   2.449
    1SIL  O02tS16231   6.467   6.323   2.087
    1SIL  O02tT16232   6.281   6.270   2.268
    1SIL  O02tU16233   6.526   6.074   2.139
    1SIL  O02tV16234   6.713   6.020   2.320
    1SIL  O02tW16235   6.666   6.209   2.501
    1SIL  Si1Rm16236   6.274   6.611   2.023
    1SIL  Si1Rn16237   6.028   6.584   2.385
    1SIL  Si1Ro16238   6.374   6.385   2.204
    1SIL  O02tX16239   6.174   6.561   2.449
    1SIL  O02tY16240   6.222   6.749   2.087
    1SIL  O02tZ16241   6.035   6.696   2.268
    1SIL  O02ta16242   6.281   6.499   2.139
    1SIL  O02tb16243   6.467   6.446   2.320
    1SIL  O02tc16244   6.420   6.634   2.501
    1SIL  Si1Rp16245   6.028   7.036   2.023
    1SIL  Si1Rq16246   5.783   7.010   2.385
    1SIL  Si1Rr16247   6.128   6.810   2.204
    1SIL  O02td16248   5.929   6.986   2.449
    1SIL  O02te16249   5.976   7.175   2.087
    1SIL  O02tf16250   5.789   7.121   2.268
    1SIL  O02tg16251   6.035   6.925   2.139
    1SIL  O02th16252   6.222   6.872   2.320
    1SIL  O02ti16253   6.174   7.060   2.501
    1SIL  Si1Rs16254   5.783   7.462   2.023
    1SIL  Si1Rt16255   5.537   7.436   2.385
    1SIL  Si1Ru16256   5.883   7.236   2.204
    1SIL  O02tj16257   5.683   7.412   2.449
    1SIL  O02tk16258   5.730   7.600   2.087
    1SIL  O02tl16259   5.543   7.547   2.268
    1SIL  O02tm16260   5.789   7.351   2.139
    1SIL  O02tn16261   5.976   7.297   2.320
    1SIL  O02to16262   5.929   7.486   2.501
    1SIL  Si1Rv16263   5.537   7.888   2.023
    1SIL  Si1Rw16264   5.291   7.861   2.385
    1SIL  Si1Rx16265   5.637   7.662   2.204
    1SIL  O02tp16266   5.437   7.838   2.449
    1SIL  O02tq16267   5.484   8.026   2.087
    1SIL  O02tr16268   5.298   7.973   2.268
    1SIL  O02ts16269   5.543   7.776   2.139
    1SIL  O02tt16270   5.730   7.723   2.320
    1SIL  O02tu16271   5.683   7.911   2.501
    1SIL  Si1Ry16272   5.291   8.313   2.023
    1SIL  Si1Rz16273   5.045   8.287   2.385
    1SIL  Si1S016274   5.391   8.087   2.204
    1SIL  O02tv16275   5.191   8.263   2.449
    1SIL  O02tw16276   5.239   8.452   2.087
    1SIL  O02tx16277   5.052   8.398   2.268
    1SIL  O02ty16278   5.298   8.202   2.139
    1SIL  O02tz16279   5.484   8.149   2.320
    1SIL  O02u016280   5.437   8.337   2.501
    1SIL  Si1S116281   5.045   8.739   2.023
    1SIL  Si1S216282   4.800   8.713   2.385
    1SIL  Si1S316283   5.145   8.513   2.204
    1SIL  O02u116284   4.946   8.689   2.449
    1SIL  O02u216285   4.993   8.877   2.087
    1SIL  O02u316286   4.806   8.824   2.268
    1SIL  O02u416287   5.052   8.628   2.139
    1SIL  O02u516288   5.239   8.574   2.320
    1SIL  O02u616289   5.191   8.763   2.501
    1SIL  Si1S416290   4.800   9.165   2.023
    1SIL  Si1S516291   4.554   9.138   2.385
    1SIL  Si1S616292   4.900   8.939   2.204
    1SIL  O02u716293   4.700   9.115   2.449
    1SIL  O02u816294   4.747   9.303   2.087
    1SIL  O02u916295   4.560   9.250   2.268
    1SIL  O02uA16296   4.806   9.053   2.139
    1SIL  O02uB16297   4.993   9.000   2.320
    1SIL  O02uC16298   4.946   9.188   2.501
    1SIL  Si1S716299   4.554   9.590   2.023
    1SIL  Si1S816300   4.308   9.564   2.385
    1SIL  Si1S916301   4.654   9.364   2.204
    1SIL  O02uD16302   4.454   9.540   2.449
    1SIL  O02uE16303   4.501   9.729   2.087
    1SIL  O02uF16304   4.315   9.675   2.268
    1SIL  O02uG16305   4.560   9.479   2.139
    1SIL  O02uH16306   4.747   9.426   2.320
    1SIL  O02uI16307   4.700   9.614   2.501
    1SIL  Si1SA16308   0.622   0.226   2.023
    1SIL  Si1SB16309   0.376   0.200   2.385
    1SIL  Si1SC16310   0.722   0.000   2.204
    1SIL  O02uJ16311   0.522   0.176   2.449
    1SIL  O02uK16312   0.569   0.364   2.087
    1SIL  O02uL16313   0.383   0.311   2.268
    1SIL  O02uM16314   0.629   0.115   2.139
    1SIL  O02uN16315   0.815   0.061   2.320
    1SIL  O02uO16316   0.768   0.250   2.501
    1SIL  Si1SD16317   0.376   0.652   2.023
    1SIL  Si1SE16318   0.131   0.625   2.385
    1SIL  Si1SF16319   0.476   0.426   2.204
    1SIL  O02uP16320   0.276   0.602   2.449
    1SIL  O02uQ16321   0.324   0.790   2.087
    1SIL  O02uR16322   0.137   0.737   2.268
    1SIL  O02uS16323   0.383   0.540   2.139
    1SIL  O02uT16324   0.569   0.487   2.320
    1SIL  O02uU16325   0.522   0.675   2.501
    1SIL  Si1SG16326   0.131   1.077   2.023
    1SIL  Si1SH16327   9.715   1.051   2.385
    1SIL  Si1SI16328   0.230   0.851   2.204
    1SIL  O02uV16329   0.031   1.027   2.449
    1SIL  O02uW16330   0.078   1.216   2.087
    1SIL  O02uX16331   9.721   1.162   2.268
    1SIL  O02uY16332   0.137   0.966   2.139
    1SIL  O02uZ16333   0.324   0.913   2.320
    1SIL  O02ua16334   0.276   1.101   2.501
    1SIL  Si1SJ16335   9.715   1.503   2.023
    1SIL  Si1SK16336   9.469   1.477   2.385
    1SIL  Si1SL16337   9.815   1.277   2.204
    1SIL  O02ub16338   9.615   1.453   2.449
    1SIL  O02uc16339   9.662   1.641   2.087
    1SIL  O02ud16340   9.475   1.588   2.268
    1SIL  O02ue16341   9.721   1.392   2.139
    1SIL  O02uf16342   0.078   1.338   2.320
    1SIL  O02ug16343   0.031   1.527   2.501
    1SIL  Si1SM16344   9.469   1.929   2.023
    1SIL  Si1SN16345   9.223   1.902   2.385
    1SIL  Si1SO16346   9.569   1.703   2.204
    1SIL  O02uh16347   9.369   1.879   2.449
    1SIL  O02ui16348   9.416   2.067   2.087
    1SIL  O02uj16349   9.230   2.014   2.268
    1SIL  O02uk16350   9.475   1.817   2.139
    1SIL  O02ul16351   9.662   1.764   2.320
    1SIL  O02um16352   9.615   1.952   2.501
    1SIL  Si1SP16353   9.223   2.354   2.023
    1SIL  Si1SQ16354   8.977   2.328   2.385
    1SIL  Si1SR16355   9.323   2.128   2.204
    1SIL  O02un16356   9.123   2.304   2.449
    1SIL  O02uo16357   9.171   2.493   2.087
    1SIL  O02up16358   8.984   2.439   2.268
    1SIL  O02uq16359   9.230   2.243   2.139
    1SIL  O02ur16360   9.416   2.190   2.320
    1SIL  O02us16361   9.369   2.378   2.501
    1SIL  Si1SS16362   8.977   2.780   2.023
    1SIL  Si1ST16363   8.732   2.753   2.385
    1SIL  Si1SU16364   9.077   2.554   2.204
    1SIL  O02ut16365   8.878   2.730   2.449
    1SIL  O02uu16366   8.925   2.918   2.087
    1SIL  O02uv16367   8.738   2.865   2.268
    1SIL  O02uw16368   8.984   2.668   2.139
    1SIL  O02ux16369   9.171   2.615   2.320
    1SIL  O02uy16370   9.123   2.804   2.501
    1SIL  Si1SV16371   8.732   3.206   2.023
    1SIL  Si1SW16372   8.486   3.179   2.385
    1SIL  Si1SX16373   8.832   2.980   2.204
    1SIL  O02uz16374   8.632   3.156   2.449
    1SIL  O02v016375   8.679   3.344   2.087
    1SIL  O02v116376   8.492   3.291   2.268
    1SIL  O02v216377   8.738   3.094   2.139
    1SIL  O02v316378   8.925   3.041   2.320
    1SIL  O02v416379   8.878   3.229   2.501
    1SIL  Si1SY16380   8.486   3.631   2.023
    1SIL  Si1SZ16381   8.240   3.605   2.385
    1SIL  Si1Sa16382   8.586   3.405   2.204
    1SIL  O02v516383   8.386   3.581   2.449
    1SIL  O02v616384   8.433   3.769   2.087
    1SIL  O02v716385   8.247   3.716   2.268
    1SIL  O02v816386   8.492   3.520   2.139
    1SIL  O02v916387   8.679   3.467   2.320
    1SIL  O02vA16388   8.632   3.655   2.501
    1SIL  Si1Sb16389   8.240   4.057   2.023
    1SIL  Si1Sc16390   7.994   4.030   2.385
    1SIL  Si1Sd16391   8.340   3.831   2.204
    1SIL  O02vB16392   8.140   4.007   2.449
    1SIL  O02vC16393   8.188   4.195   2.087
    1SIL  O02vD16394   8.001   4.142   2.268
    1SIL  O02vE16395   8.247   3.945   2.139
    1SIL  O02vF16396   8.433   3.892   2.320
    1SIL  O02vG16397   8.386   4.081   2.501
    1SIL  Si1Se16398   7.994   4.483   2.023
    1SIL  Si1Sf16399   7.749   4.456   2.385
    1SIL  Si1Sg16400   8.094   4.256   2.204
    1SIL  O02vH16401   7.895   4.432   2.449
    1SIL  O02vI16402   7.942   4.621   2.087
    1SIL  O02vJ16403   7.755   4.568   2.268
    1SIL  O02vK16404   8.001   4.371   2.139
    1SIL  O02vL16405   8.188   4.318   2.320
    1SIL  O02vM16406   8.140   4.506   2.501
    1SIL  Si1Sh16407   7.749   4.908   2.023
    1SIL  Si1Si16408   7.503   4.882   2.385
    1SIL  Si1Sj16409   7.849   4.682   2.204
    1SIL  O02vN16410   7.649   4.858   2.449
    1SIL  O02vO16411   7.696   5.046   2.087
    1SIL  O02vP16412   7.509   4.993   2.268
    1SIL  O02vQ16413   7.755   4.797   2.139
    1SIL  O02vR16414   7.942   4.744   2.320
    1SIL  O02vS16415   7.895   4.932   2.501
    1SIL  Si1Sk16416   7.503   5.334   2.023
    1SIL  Si1Sl16417   7.257   5.307   2.385
    1SIL  Si1Sm16418   7.603   5.108   2.204
    1SIL  O02vT16419   7.403   5.284   2.449
    1SIL  O02vU16420   7.450   5.472   2.087
    1SIL  O02vV16421   7.264   5.419   2.268
    1SIL  O02vW16422   7.509   5.222   2.139
    1SIL  O02vX16423   7.696   5.169   2.320
    1SIL  O02vY16424   7.649   5.357   2.501
    1SIL  Si1Sn16425   7.257   5.759   2.023
    1SIL  Si1So16426   7.011   5.733   2.385
    1SIL  Si1Sp16427   7.357   5.533   2.204
    1SIL  O02vZ16428   7.157   5.709   2.449
    1SIL  O02va16429   7.205   5.898   2.087
    1SIL  O02vb16430   7.018   5.844   2.268
    1SIL  O02vc16431   7.264   5.648   2.139
    1SIL  O02vd16432   7.450   5.595   2.320
    1SIL  O02ve16433   7.403   5.783   2.501
    1SIL  Si1Sq16434   7.011   6.185   2.023
    1SIL  Si1Sr16435   6.766   6.159   2.385
    1SIL  Si1Ss16436   7.111   5.959   2.204
    1SIL  O02vf16437   6.912   6.135   2.449
    1SIL  O02vg16438   6.959   6.323   2.087
    1SIL  O02vh16439   6.772   6.270   2.268
    1SIL  O02vi16440   7.018   6.074   2.139
    1SIL  O02vj16441   7.205   6.020   2.320
    1SIL  O02vk16442   7.157   6.209   2.501
    1SIL  Si1St16443   6.766   6.611   2.023
    1SIL  Si1Su16444   6.520   6.584   2.385
    1SIL  Si1Sv16445   6.866   6.385   2.204
    1SIL  O02vl16446   6.666   6.561   2.449
    1SIL  O02vm16447   6.713   6.749   2.087
    1SIL  O02vn16448   6.526   6.696   2.268
    1SIL  O02vo16449   6.772   6.499   2.139
    1SIL  O02vp16450   6.959   6.446   2.320
    1SIL  O02vq16451   6.912   6.634   2.501
    1SIL  Si1Sw16452   6.520   7.036   2.023
    1SIL  Si1Sx16453   6.274   7.010   2.385
    1SIL  Si1Sy16454   6.620   6.810   2.204
    1SIL  O02vr16455   6.420   6.986   2.449
    1SIL  O02vs16456   6.467   7.175   2.087
    1SIL  O02vt16457   6.281   7.121   2.268
    1SIL  O02vu16458   6.526   6.925   2.139
    1SIL  O02vv16459   6.713   6.872   2.320
    1SIL  O02vw16460   6.666   7.060   2.501
    1SIL  Si1Sz16461   6.274   7.462   2.023
    1SIL  Si1T016462   6.028   7.436   2.385
    1SIL  Si1T116463   6.374   7.236   2.204
    1SIL  O02vx16464   6.174   7.412   2.449
    1SIL  O02vy16465   6.222   7.600   2.087
    1SIL  O02vz16466   6.035   7.547   2.268
    1SIL  O02w016467   6.281   7.351   2.139
    1SIL  O02w116468   6.467   7.297   2.320
    1SIL  O02w216469   6.420   7.486   2.501
    1SIL  Si1T216470   6.028   7.888   2.023
    1SIL  Si1T316471   5.783   7.861   2.385
    1SIL  Si1T416472   6.128   7.662   2.204
    1SIL  O02w316473   5.929   7.838   2.449
    1SIL  O02w416474   5.976   8.026   2.087
    1SIL  O02w516475   5.789   7.973   2.268
    1SIL  O02w616476   6.035   7.776   2.139
    1SIL  O02w716477   6.222   7.723   2.320
    1SIL  O02w816478   6.174   7.911   2.501
    1SIL  Si1T516479   5.783   8.313   2.023
    1SIL  Si1T616480   5.537   8.287   2.385
    1SIL  Si1T716481   5.883   8.087   2.204
    1SIL  O02w916482   5.683   8.263   2.449
    1SIL  O02wA16483   5.730   8.452   2.087
    1SIL  O02wB16484   5.543   8.398   2.268
    1SIL  O02wC16485   5.789   8.202   2.139
    1SIL  O02wD16486   5.976   8.149   2.320
    1SIL  O02wE16487   5.929   8.337   2.501
    1SIL  Si1T816488   5.537   8.739   2.023
    1SIL  Si1T916489   5.291   8.713   2.385
    1SIL  Si1TA16490   5.637   8.513   2.204
    1SIL  O02wF16491   5.437   8.689   2.449
    1SIL  O02wG16492   5.484   8.877   2.087
    1SIL  O02wH16493   5.298   8.824   2.268
    1SIL  O02wI16494   5.543   8.628   2.139
    1SIL  O02wJ16495   5.730   8.574   2.320
    1SIL  O02wK16496   5.683   8.763   2.501
    1SIL  Si1TB16497   5.291   9.165   2.023
    1SIL  Si1TC16498   5.045   9.138   2.385
    1SIL  Si1TD16499   5.391   8.939   2.204
    1SIL  O02wL16500   5.191   9.115   2.449
    1SIL  O02wM16501   5.239   9.303   2.087
    1SIL  O02wN16502   5.052   9.250   2.268
    1SIL  O02wO16503   5.298   9.053   2.139
    1SIL  O02wP16504   5.484   9.000   2.320
    1SIL  O02wQ16505   5.437   9.188   2.501
    1SIL  Si1TE16506   5.045   9.590   2.023
    1SIL  Si1TF16507   4.800   9.564   2.385
    1SIL  Si1TG16508   5.145   9.364   2.204
    1SIL  O02wR16509   4.946   9.540   2.449
    1SIL  O02wS16510   4.993   9.729   2.087
    1SIL  O02wT16511   4.806   9.675   2.268
    1SIL  O02wU16512   5.052   9.479   2.139
    1SIL  O02wV16513   5.239   9.426   2.320
    1SIL  O02wW16514   5.191   9.614   2.501
    1SIL  Si1TH16515   1.114   0.226   2.023
    1SIL  Si1TI16516   0.868   0.200   2.385
    1SIL  Si1TJ16517   1.213   0.000   2.204
    1SIL  O02wX16518   1.014   0.176   2.449
    1SIL  O02wY16519   1.061   0.364   2.087
    1SIL  O02wZ16520   0.874   0.311   2.268
    1SIL  O02wa16521   1.120   0.115   2.139
    1SIL  O02wb16522   1.307   0.061   2.320
    1SIL  O02wc16523   1.259   0.250   2.501
    1SIL  Si1TK16524   0.868   0.652   2.023
    1SIL  Si1TL16525   0.622   0.625   2.385
    1SIL  Si1TM16526   0.968   0.426   2.204
    1SIL  O02wd16527   0.768   0.602   2.449
    1SIL  O02we16528   0.815   0.790   2.087
    1SIL  O02wf16529   0.629   0.737   2.268
    1SIL  O02wg16530   0.874   0.540   2.139
    1SIL  O02wh16531   1.061   0.487   2.320
    1SIL  O02wi16532   1.014   0.675   2.501
    1SIL  Si1TN16533   0.622   1.077   2.023
    1SIL  Si1TO16534   0.376   1.051   2.385
    1SIL  Si1TP16535   0.722   0.851   2.204
    1SIL  O02wj16536   0.522   1.027   2.449
    1SIL  O02wk16537   0.569   1.216   2.087
    1SIL  O02wl16538   0.383   1.162   2.268
    1SIL  O02wm16539   0.629   0.966   2.139
    1SIL  O02wn16540   0.815   0.913   2.320
    1SIL  O02wo16541   0.768   1.101   2.501
    1SIL  Si1TQ16542   0.376   1.503   2.023
    1SIL  Si1TR16543   0.131   1.477   2.385
    1SIL  Si1TS16544   0.476   1.277   2.204
    1SIL  O02wp16545   0.276   1.453   2.449
    1SIL  O02wq16546   0.324   1.641   2.087
    1SIL  O02wr16547   0.137   1.588   2.268
    1SIL  O02ws16548   0.383   1.392   2.139
    1SIL  O02wt16549   0.569   1.338   2.320
    1SIL  O02wu16550   0.522   1.527   2.501
    1SIL  Si1TT16551   0.131   1.929   2.023
    1SIL  Si1TU16552   9.715   1.902   2.385
    1SIL  Si1TV16553   0.230   1.703   2.204
    1SIL  O02wv16554   0.031   1.879   2.449
    1SIL  O02ww16555   0.078   2.067   2.087
    1SIL  O02wx16556   9.721   2.014   2.268
    1SIL  O02wy16557   0.137   1.817   2.139
    1SIL  O02wz16558   0.324   1.764   2.320
    1SIL  O02x016559   0.276   1.952   2.501
    1SIL  Si1TW16560   9.715   2.354   2.023
    1SIL  Si1TX16561   9.469   2.328   2.385
    1SIL  Si1TY16562   9.815   2.128   2.204
    1SIL  O02x116563   9.615   2.304   2.449
    1SIL  O02x216564   9.662   2.493   2.087
    1SIL  O02x316565   9.475   2.439   2.268
    1SIL  O02x416566   9.721   2.243   2.139
    1SIL  O02x516567   0.078   2.190   2.320
    1SIL  O02x616568   0.031   2.378   2.501
    1SIL  Si1TZ16569   9.469   2.780   2.023
    1SIL  Si1Ta16570   9.223   2.753   2.385
    1SIL  Si1Tb16571   9.569   2.554   2.204
    1SIL  O02x716572   9.369   2.730   2.449
    1SIL  O02x816573   9.416   2.918   2.087
    1SIL  O02x916574   9.230   2.865   2.268
    1SIL  O02xA16575   9.475   2.668   2.139
    1SIL  O02xB16576   9.662   2.615   2.320
    1SIL  O02xC16577   9.615   2.804   2.501
    1SIL  Si1Tc16578   9.223   3.206   2.023
    1SIL  Si1Td16579   8.977   3.179   2.385
    1SIL  Si1Te16580   9.323   2.980   2.204
    1SIL  O02xD16581   9.123   3.156   2.449
    1SIL  O02xE16582   9.171   3.344   2.087
    1SIL  O02xF16583   8.984   3.291   2.268
    1SIL  O02xG16584   9.230   3.094   2.139
    1SIL  O02xH16585   9.416   3.041   2.320
    1SIL  O02xI16586   9.369   3.229   2.501
    1SIL  Si1Tf16587   8.977   3.631   2.023
    1SIL  Si1Tg16588   8.732   3.605   2.385
    1SIL  Si1Th16589   9.077   3.405   2.204
    1SIL  O02xJ16590   8.878   3.581   2.449
    1SIL  O02xK16591   8.925   3.769   2.087
    1SIL  O02xL16592   8.738   3.716   2.268
    1SIL  O02xM16593   8.984   3.520   2.139
    1SIL  O02xN16594   9.171   3.467   2.320
    1SIL  O02xO16595   9.123   3.655   2.501
    1SIL  Si1Ti16596   8.732   4.057   2.023
    1SIL  Si1Tj16597   8.486   4.030   2.385
    1SIL  Si1Tk16598   8.832   3.831   2.204
    1SIL  O02xP16599   8.632   4.007   2.449
    1SIL  O02xQ16600   8.679   4.195   2.087
    1SIL  O02xR16601   8.492   4.142   2.268
    1SIL  O02xS16602   8.738   3.945   2.139
    1SIL  O02xT16603   8.925   3.892   2.320
    1SIL  O02xU16604   8.878   4.081   2.501
    1SIL  Si1Tl16605   8.486   4.483   2.023
    1SIL  Si1Tm16606   8.240   4.456   2.385
    1SIL  Si1Tn16607   8.586   4.256   2.204
    1SIL  O02xV16608   8.386   4.432   2.449
    1SIL  O02xW16609   8.433   4.621   2.087
    1SIL  O02xX16610   8.247   4.568   2.268
    1SIL  O02xY16611   8.492   4.371   2.139
    1SIL  O02xZ16612   8.679   4.318   2.320
    1SIL  O02xa16613   8.632   4.506   2.501
    1SIL  Si1To16614   8.240   4.908   2.023
    1SIL  Si1Tp16615   7.994   4.882   2.385
    1SIL  Si1Tq16616   8.340   4.682   2.204
    1SIL  O02xb16617   8.140   4.858   2.449
    1SIL  O02xc16618   8.188   5.046   2.087
    1SIL  O02xd16619   8.001   4.993   2.268
    1SIL  O02xe16620   8.247   4.797   2.139
    1SIL  O02xf16621   8.433   4.744   2.320
    1SIL  O02xg16622   8.386   4.932   2.501
    1SIL  Si1Tr16623   7.994   5.334   2.023
    1SIL  Si1Ts16624   7.749   5.307   2.385
    1SIL  Si1Tt16625   8.094   5.108   2.204
    1SIL  O02xh16626   7.895   5.284   2.449
    1SIL  O02xi16627   7.942   5.472   2.087
    1SIL  O02xj16628   7.755   5.419   2.268
    1SIL  O02xk16629   8.001   5.222   2.139
    1SIL  O02xl16630   8.188   5.169   2.320
    1SIL  O02xm16631   8.140   5.357   2.501
    1SIL  Si1Tu16632   7.749   5.759   2.023
    1SIL  Si1Tv16633   7.503   5.733   2.385
    1SIL  Si1Tw16634   7.849   5.533   2.204
    1SIL  O02xn16635   7.649   5.709   2.449
    1SIL  O02xo16636   7.696   5.898   2.087
    1SIL  O02xp16637   7.509   5.844   2.268
    1SIL  O02xq16638   7.755   5.648   2.139
    1SIL  O02xr16639   7.942   5.595   2.320
    1SIL  O02xs16640   7.895   5.783   2.501
    1SIL  Si1Tx16641   7.503   6.185   2.023
    1SIL  Si1Ty16642   7.257   6.159   2.385
    1SIL  Si1Tz16643   7.603   5.959   2.204
    1SIL  O02xt16644   7.403   6.135   2.449
    1SIL  O02xu16645   7.450   6.323   2.087
    1SIL  O02xv16646   7.264   6.270   2.268
    1SIL  O02xw16647   7.509   6.074   2.139
    1SIL  O02xx16648   7.696   6.020   2.320
    1SIL  O02xy16649   7.649   6.209   2.501
    1SIL  Si1U016650   7.257   6.611   2.023
    1SIL  Si1U116651   7.011   6.584   2.385
    1SIL  Si1U216652   7.357   6.385   2.204
    1SIL  O02xz16653   7.157   6.561   2.449
    1SIL  O02y016654   7.205   6.749   2.087
    1SIL  O02y116655   7.018   6.696   2.268
    1SIL  O02y216656   7.264   6.499   2.139
    1SIL  O02y316657   7.450   6.446   2.320
    1SIL  O02y416658   7.403   6.634   2.501
    1SIL  Si1U316659   7.011   7.036   2.023
    1SIL  Si1U416660   6.766   7.010   2.385
    1SIL  Si1U516661   7.111   6.810   2.204
    1SIL  O02y516662   6.912   6.986   2.449
    1SIL  O02y616663   6.959   7.175   2.087
    1SIL  O02y716664   6.772   7.121   2.268
    1SIL  O02y816665   7.018   6.925   2.139
    1SIL  O02y916666   7.205   6.872   2.320
    1SIL  O02yA16667   7.157   7.060   2.501
    1SIL  Si1U616668   6.766   7.462   2.023
    1SIL  Si1U716669   6.520   7.436   2.385
    1SIL  Si1U816670   6.866   7.236   2.204
    1SIL  O02yB16671   6.666   7.412   2.449
    1SIL  O02yC16672   6.713   7.600   2.087
    1SIL  O02yD16673   6.526   7.547   2.268
    1SIL  O02yE16674   6.772   7.351   2.139
    1SIL  O02yF16675   6.959   7.297   2.320
    1SIL  O02yG16676   6.912   7.486   2.501
    1SIL  Si1U916677   6.520   7.888   2.023
    1SIL  Si1UA16678   6.274   7.861   2.385
    1SIL  Si1UB16679   6.620   7.662   2.204
    1SIL  O02yH16680   6.420   7.838   2.449
    1SIL  O02yI16681   6.467   8.026   2.087
    1SIL  O02yJ16682   6.281   7.973   2.268
    1SIL  O02yK16683   6.526   7.776   2.139
    1SIL  O02yL16684   6.713   7.723   2.320
    1SIL  O02yM16685   6.666   7.911   2.501
    1SIL  Si1UC16686   6.274   8.313   2.023
    1SIL  Si1UD16687   6.028   8.287   2.385
    1SIL  Si1UE16688   6.374   8.087   2.204
    1SIL  O02yN16689   6.174   8.263   2.449
    1SIL  O02yO16690   6.222   8.452   2.087
    1SIL  O02yP16691   6.035   8.398   2.268
    1SIL  O02yQ16692   6.281   8.202   2.139
    1SIL  O02yR16693   6.467   8.149   2.320
    1SIL  O02yS16694   6.420   8.337   2.501
    1SIL  Si1UF16695   6.028   8.739   2.023
    1SIL  Si1UG16696   5.783   8.713   2.385
    1SIL  Si1UH16697   6.128   8.513   2.204
    1SIL  O02yT16698   5.929   8.689   2.449
    1SIL  O02yU16699   5.976   8.877   2.087
    1SIL  O02yV16700   5.789   8.824   2.268
    1SIL  O02yW16701   6.035   8.628   2.139
    1SIL  O02yX16702   6.222   8.574   2.320
    1SIL  O02yY16703   6.174   8.763   2.501
    1SIL  Si1UI16704   5.783   9.165   2.023
    1SIL  Si1UJ16705   5.537   9.138   2.385
    1SIL  Si1UK16706   5.883   8.939   2.204
    1SIL  O02yZ16707   5.683   9.115   2.449
    1SIL  O02ya16708   5.730   9.303   2.087
    1SIL  O02yb16709   5.543   9.250   2.268
    1SIL  O02yc16710   5.789   9.053   2.139
    1SIL  O02yd16711   5.976   9.000   2.320
    1SIL  O02ye16712   5.929   9.188   2.501
    1SIL  Si1UL16713   5.537   9.590   2.023
    1SIL  Si1UM16714   5.291   9.564   2.385
    1SIL  Si1UN16715   5.637   9.364   2.204
    1SIL  O02yf16716   5.437   9.540   2.449
    1SIL  O02yg16717   5.484   9.729   2.087
    1SIL  O02yh16718   5.298   9.675   2.268
    1SIL  O02yi16719   5.543   9.479   2.139
    1SIL  O02yj16720   5.730   9.426   2.320
    1SIL  O02yk16721   5.683   9.614   2.501
    1SIL  Si1UO16722   1.605   0.226   2.023
    1SIL  Si1UP16723   1.359   0.200   2.385
    1SIL  Si1UQ16724   1.705   0.000   2.204
    1SIL  O02yl16725   1.505   0.176   2.449
    1SIL  O02ym16726   1.552   0.364   2.087
    1SIL  O02yn16727   1.366   0.311   2.268
    1SIL  O02yo16728   1.612   0.115   2.139
    1SIL  O02yp16729   1.798   0.061   2.320
    1SIL  O02yq16730   1.751   0.250   2.501
    1SIL  Si1UR16731   1.359   0.652   2.023
    1SIL  Si1US16732   1.114   0.625   2.385
    1SIL  Si1UT16733   1.459   0.426   2.204
    1SIL  O02yr16734   1.259   0.602   2.449
    1SIL  O02ys16735   1.307   0.790   2.087
    1SIL  O02yt16736   1.120   0.737   2.268
    1SIL  O02yu16737   1.366   0.540   2.139
    1SIL  O02yv16738   1.552   0.487   2.320
    1SIL  O02yw16739   1.505   0.675   2.501
    1SIL  Si1UU16740   1.114   1.077   2.023
    1SIL  Si1UV16741   0.868   1.051   2.385
    1SIL  Si1UW16742   1.213   0.851   2.204
    1SIL  O02yx16743   1.014   1.027   2.449
    1SIL  O02yy16744   1.061   1.216   2.087
    1SIL  O02yz16745   0.874   1.162   2.268
    1SIL  O02z016746   1.120   0.966   2.139
    1SIL  O02z116747   1.307   0.913   2.320
    1SIL  O02z216748   1.259   1.101   2.501
    1SIL  Si1UX16749   0.868   1.503   2.023
    1SIL  Si1UY16750   0.622   1.477   2.385
    1SIL  Si1UZ16751   0.968   1.277   2.204
    1SIL  O02z316752   0.768   1.453   2.449
    1SIL  O02z416753   0.815   1.641   2.087
    1SIL  O02z516754   0.629   1.588   2.268
    1SIL  O02z616755   0.874   1.392   2.139
    1SIL  O02z716756   1.061   1.338   2.320
    1SIL  O02z816757   1.014   1.527   2.501
    1SIL  Si1Ua16758   0.622   1.929   2.023
    1SIL  Si1Ub16759   0.376   1.902   2.385
    1SIL  Si1Uc16760   0.722   1.703   2.204
    1SIL  O02z916761   0.522   1.879   2.449
    1SIL  O02zA16762   0.569   2.067   2.087
    1SIL  O02zB16763   0.383   2.014   2.268
    1SIL  O02zC16764   0.629   1.817   2.139
    1SIL  O02zD16765   0.815   1.764   2.320
    1SIL  O02zE16766   0.768   1.952   2.501
    1SIL  Si1Ud16767   0.376   2.354   2.023
    1SIL  Si1Ue16768   0.131   2.328   2.385
    1SIL  Si1Uf16769   0.476   2.128   2.204
    1SIL  O02zF16770   0.276   2.304   2.449
    1SIL  O02zG16771   0.324   2.493   2.087
    1SIL  O02zH16772   0.137   2.439   2.268
    1SIL  O02zI16773   0.383   2.243   2.139
    1SIL  O02zJ16774   0.569   2.190   2.320
    1SIL  O02zK16775   0.522   2.378   2.501
    1SIL  Si1Ug16776   0.131   2.780   2.023
    1SIL  Si1Uh16777   9.715   2.753   2.385
    1SIL  Si1Ui16778   0.230   2.554   2.204
    1SIL  O02zL16779   0.031   2.730   2.449
    1SIL  O02zM16780   0.078   2.918   2.087
    1SIL  O02zN16781   9.721   2.865   2.268
    1SIL  O02zO16782   0.137   2.668   2.139
    1SIL  O02zP16783   0.324   2.615   2.320
    1SIL  O02zQ16784   0.276   2.804   2.501
    1SIL  Si1Uj16785   9.715   3.206   2.023
    1SIL  Si1Uk16786   9.469   3.179   2.385
    1SIL  Si1Ul16787   9.815   2.980   2.204
    1SIL  O02zR16788   9.615   3.156   2.449
    1SIL  O02zS16789   9.662   3.344   2.087
    1SIL  O02zT16790   9.475   3.291   2.268
    1SIL  O02zU16791   9.721   3.094   2.139
    1SIL  O02zV16792   0.078   3.041   2.320
    1SIL  O02zW16793   0.031   3.229   2.501
    1SIL  Si1Um16794   9.469   3.631   2.023
    1SIL  Si1Un16795   9.223   3.605   2.385
    1SIL  Si1Uo16796   9.569   3.405   2.204
    1SIL  O02zX16797   9.369   3.581   2.449
    1SIL  O02zY16798   9.416   3.769   2.087
    1SIL  O02zZ16799   9.230   3.716   2.268
    1SIL  O02za16800   9.475   3.520   2.139
    1SIL  O02zb16801   9.662   3.467   2.320
    1SIL  O02zc16802   9.615   3.655   2.501
    1SIL  Si1Up16803   9.223   4.057   2.023
    1SIL  Si1Uq16804   8.977   4.030   2.385
    1SIL  Si1Ur16805   9.323   3.831   2.204
    1SIL  O02zd16806   9.123   4.007   2.449
    1SIL  O02ze16807   9.171   4.195   2.087
    1SIL  O02zf16808   8.984   4.142   2.268
    1SIL  O02zg16809   9.230   3.945   2.139
    1SIL  O02zh16810   9.416   3.892   2.320
    1SIL  O02zi16811   9.369   4.081   2.501
    1SIL  Si1Us16812   8.977   4.483   2.023
    1SIL  Si1Ut16813   8.732   4.456   2.385
    1SIL  Si1Uu16814   9.077   4.256   2.204
    1SIL  O02zj16815   8.878   4.432   2.449
    1SIL  O02zk16816   8.925   4.621   2.087
    1SIL  O02zl16817   8.738   4.568   2.268
    1SIL  O02zm16818   8.984   4.371   2.139
    1SIL  O02zn16819   9.171   4.318   2.320
    1SIL  O02zo16820   9.123   4.506   2.501
    1SIL  Si1Uv16821   8.732   4.908   2.023
    1SIL  Si1Uw16822   8.486   4.882   2.385
    1SIL  Si1Ux16823   8.832   4.682   2.204
    1SIL  O02zp16824   8.632   4.858   2.449
    1SIL  O02zq16825   8.679   5.046   2.087
    1SIL  O02zr16826   8.492   4.993   2.268
    1SIL  O02zs16827   8.738   4.797   2.139
    1SIL  O02zt16828   8.925   4.744   2.320
    1SIL  O02zu16829   8.878   4.932   2.501
    1SIL  Si1Uy16830   8.486   5.334   2.023
    1SIL  Si1Uz16831   8.240   5.307   2.385
    1SIL  Si1V016832   8.586   5.108   2.204
    1SIL  O02zv16833   8.386   5.284   2.449
    1SIL  O02zw16834   8.433   5.472   2.087
    1SIL  O02zx16835   8.247   5.419   2.268
    1SIL  O02zy16836   8.492   5.222   2.139
    1SIL  O02zz16837   8.679   5.169   2.320
    1SIL  O030016838   8.632   5.357   2.501
    1SIL  Si1V116839   8.240   5.759   2.023
    1SIL  Si1V216840   7.994   5.733   2.385
    1SIL  Si1V316841   8.340   5.533   2.204
    1SIL  O030116842   8.140   5.709   2.449
    1SIL  O030216843   8.188   5.898   2.087
    1SIL  O030316844   8.001   5.844   2.268
    1SIL  O030416845   8.247   5.648   2.139
    1SIL  O030516846   8.433   5.595   2.320
    1SIL  O030616847   8.386   5.783   2.501
    1SIL  Si1V416848   7.994   6.185   2.023
    1SIL  Si1V516849   7.749   6.159   2.385
    1SIL  Si1V616850   8.094   5.959   2.204
    1SIL  O030716851   7.895   6.135   2.449
    1SIL  O030816852   7.942   6.323   2.087
    1SIL  O030916853   7.755   6.270   2.268
    1SIL  O030A16854   8.001   6.074   2.139
    1SIL  O030B16855   8.188   6.020   2.320
    1SIL  O030C16856   8.140   6.209   2.501
    1SIL  Si1V716857   7.749   6.611   2.023
    1SIL  Si1V816858   7.503   6.584   2.385
    1SIL  Si1V916859   7.849   6.385   2.204
    1SIL  O030D16860   7.649   6.561   2.449
    1SIL  O030E16861   7.696   6.749   2.087
    1SIL  O030F16862   7.509   6.696   2.268
    1SIL  O030G16863   7.755   6.499   2.139
    1SIL  O030H16864   7.942   6.446   2.320
    1SIL  O030I16865   7.895   6.634   2.501
    1SIL  Si1VA16866   7.503   7.036   2.023
    1SIL  Si1VB16867   7.257   7.010   2.385
    1SIL  Si1VC16868   7.603   6.810   2.204
    1SIL  O030J16869   7.403   6.986   2.449
    1SIL  O030K16870   7.450   7.175   2.087
    1SIL  O030L16871   7.264   7.121   2.268
    1SIL  O030M16872   7.509   6.925   2.139
    1SIL  O030N16873   7.696   6.872   2.320
    1SIL  O030O16874   7.649   7.060   2.501
    1SIL  Si1VD16875   7.257   7.462   2.023
    1SIL  Si1VE16876   7.011   7.436   2.385
    1SIL  Si1VF16877   7.357   7.236   2.204
    1SIL  O030P16878   7.157   7.412   2.449
    1SIL  O030Q16879   7.205   7.600   2.087
    1SIL  O030R16880   7.018   7.547   2.268
    1SIL  O030S16881   7.264   7.351   2.139
    1SIL  O030T16882   7.450   7.297   2.320
    1SIL  O030U16883   7.403   7.486   2.501
    1SIL  Si1VG16884   7.011   7.888   2.023
    1SIL  Si1VH16885   6.766   7.861   2.385
    1SIL  Si1VI16886   7.111   7.662   2.204
    1SIL  O030V16887   6.912   7.838   2.449
    1SIL  O030W16888   6.959   8.026   2.087
    1SIL  O030X16889   6.772   7.973   2.268
    1SIL  O030Y16890   7.018   7.776   2.139
    1SIL  O030Z16891   7.205   7.723   2.320
    1SIL  O030a16892   7.157   7.911   2.501
    1SIL  Si1VJ16893   6.766   8.313   2.023
    1SIL  Si1VK16894   6.520   8.287   2.385
    1SIL  Si1VL16895   6.866   8.087   2.204
    1SIL  O030b16896   6.666   8.263   2.449
    1SIL  O030c16897   6.713   8.452   2.087
    1SIL  O030d16898   6.526   8.398   2.268
    1SIL  O030e16899   6.772   8.202   2.139
    1SIL  O030f16900   6.959   8.149   2.320
    1SIL  O030g16901   6.912   8.337   2.501
    1SIL  Si1VM16902   6.520   8.739   2.023
    1SIL  Si1VN16903   6.274   8.713   2.385
    1SIL  Si1VO16904   6.620   8.513   2.204
    1SIL  O030h16905   6.420   8.689   2.449
    1SIL  O030i16906   6.467   8.877   2.087
    1SIL  O030j16907   6.281   8.824   2.268
    1SIL  O030k16908   6.526   8.628   2.139
    1SIL  O030l16909   6.713   8.574   2.320
    1SIL  O030m16910   6.666   8.763   2.501
    1SIL  Si1VP16911   6.274   9.165   2.023
    1SIL  Si1VQ16912   6.028   9.138   2.385
    1SIL  Si1VR16913   6.374   8.939   2.204
    1SIL  O030n16914   6.174   9.115   2.449
    1SIL  O030o16915   6.222   9.303   2.087
    1SIL  O030p16916   6.035   9.250   2.268
    1SIL  O030q16917   6.281   9.053   2.139
    1SIL  O030r16918   6.467   9.000   2.320
    1SIL  O030s16919   6.420   9.188   2.501
    1SIL  Si1VS16920   6.028   9.590   2.023
    1SIL  Si1VT16921   5.783   9.564   2.385
    1SIL  Si1VU16922   6.128   9.364   2.204
    1SIL  O030t16923   5.929   9.540   2.449
    1SIL  O030u16924   5.976   9.729   2.087
    1SIL  O030v16925   5.789   9.675   2.268
    1SIL  O030w16926   6.035   9.479   2.139
    1SIL  O030x16927   6.222   9.426   2.320
    1SIL  O030y16928   6.174   9.614   2.501
    1SIL  Si1VV16929   2.097   0.226   2.023
    1SIL  Si1VW16930   1.851   0.200   2.385
    1SIL  Si1VX16931   2.196   0.000   2.204
    1SIL  O030z16932   1.997   0.176   2.449
    1SIL  O031016933   2.044   0.364   2.087
    1SIL  O031116934   1.857   0.311   2.268
    1SIL  O031216935   2.103   0.115   2.139
    1SIL  O031316936   2.290   0.061   2.320
    1SIL  O031416937   2.242   0.250   2.501
    1SIL  Si1VY16938   1.851   0.652   2.023
    1SIL  Si1VZ16939   1.605   0.625   2.385
    1SIL  Si1Va16940   1.951   0.426   2.204
    1SIL  O031516941   1.751   0.602   2.449
    1SIL  O031616942   1.798   0.790   2.087
    1SIL  O031716943   1.612   0.737   2.268
    1SIL  O031816944   1.857   0.540   2.139
    1SIL  O031916945   2.044   0.487   2.320
    1SIL  O031A16946   1.997   0.675   2.501
    1SIL  Si1Vb16947   1.605   1.077   2.023
    1SIL  Si1Vc16948   1.359   1.051   2.385
    1SIL  Si1Vd16949   1.705   0.851   2.204
    1SIL  O031B16950   1.505   1.027   2.449
    1SIL  O031C16951   1.552   1.216   2.087
    1SIL  O031D16952   1.366   1.162   2.268
    1SIL  O031E16953   1.612   0.966   2.139
    1SIL  O031F16954   1.798   0.913   2.320
    1SIL  O031G16955   1.751   1.101   2.501
    1SIL  Si1Ve16956   1.359   1.503   2.023
    1SIL  Si1Vf16957   1.114   1.477   2.385
    1SIL  Si1Vg16958   1.459   1.277   2.204
    1SIL  O031H16959   1.259   1.453   2.449
    1SIL  O031I16960   1.307   1.641   2.087
    1SIL  O031J16961   1.120   1.588   2.268
    1SIL  O031K16962   1.366   1.392   2.139
    1SIL  O031L16963   1.552   1.338   2.320
    1SIL  O031M16964   1.505   1.527   2.501
    1SIL  Si1Vh16965   1.114   1.929   2.023
    1SIL  Si1Vi16966   0.868   1.902   2.385
    1SIL  Si1Vj16967   1.213   1.703   2.204
    1SIL  O031N16968   1.014   1.879   2.449
    1SIL  O031O16969   1.061   2.067   2.087
    1SIL  O031P16970   0.874   2.014   2.268
    1SIL  O031Q16971   1.120   1.817   2.139
    1SIL  O031R16972   1.307   1.764   2.320
    1SIL  O031S16973   1.259   1.952   2.501
    1SIL  Si1Vk16974   0.868   2.354   2.023
    1SIL  Si1Vl16975   0.622   2.328   2.385
    1SIL  Si1Vm16976   0.968   2.128   2.204
    1SIL  O031T16977   0.768   2.304   2.449
    1SIL  O031U16978   0.815   2.493   2.087
    1SIL  O031V16979   0.629   2.439   2.268
    1SIL  O031W16980   0.874   2.243   2.139
    1SIL  O031X16981   1.061   2.190   2.320
    1SIL  O031Y16982   1.014   2.378   2.501
    1SIL  Si1Vn16983   0.622   2.780   2.023
    1SIL  Si1Vo16984   0.376   2.753   2.385
    1SIL  Si1Vp16985   0.722   2.554   2.204
    1SIL  O031Z16986   0.522   2.730   2.449
    1SIL  O031a16987   0.569   2.918   2.087
    1SIL  O031b16988   0.383   2.865   2.268
    1SIL  O031c16989   0.629   2.668   2.139
    1SIL  O031d16990   0.815   2.615   2.320
    1SIL  O031e16991   0.768   2.804   2.501
    1SIL  Si1Vq16992   0.376   3.206   2.023
    1SIL  Si1Vr16993   0.131   3.179   2.385
    1SIL  Si1Vs16994   0.476   2.980   2.204
    1SIL  O031f16995   0.276   3.156   2.449
    1SIL  O031g16996   0.324   3.344   2.087
    1SIL  O031h16997   0.137   3.291   2.268
    1SIL  O031i16998   0.383   3.094   2.139
    1SIL  O031j16999   0.569   3.041   2.320
    1SIL  O031k17000   0.522   3.229   2.501
    1SIL  Si1Vt17001   0.131   3.631   2.023
    1SIL  Si1Vu17002   9.715   3.605   2.385
    1SIL  Si1Vv17003   0.230   3.405   2.204
    1SIL  O031l17004   0.031   3.581   2.449
    1SIL  O031m17005   0.078   3.769   2.087
    1SIL  O031n17006   9.721   3.716   2.268
    1SIL  O031o17007   0.137   3.520   2.139
    1SIL  O031p17008   0.324   3.467   2.320
    1SIL  O031q17009   0.276   3.655   2.501
    1SIL  Si1Vw17010   9.715   4.057   2.023
    1SIL  Si1Vx17011   9.469   4.030   2.385
    1SIL  Si1Vy17012   9.815   3.831   2.204
    1SIL  O031r17013   9.615   4.007   2.449
    1SIL  O031s17014   9.662   4.195   2.087
    1SIL  O031t17015   9.475   4.142   2.268
    1SIL  O031u17016   9.721   3.945   2.139
    1SIL  O031v17017   0.078   3.892   2.320
    1SIL  O031w17018   0.031   4.081   2.501
    1SIL  Si1Vz17019   9.469   4.483   2.023
    1SIL  Si1W017020   9.223   4.456   2.385
    1SIL  Si1W117021   9.569   4.256   2.204
    1SIL  O031x17022   9.369   4.432   2.449
    1SIL  O031y17023   9.416   4.621   2.087
    1SIL  O031z17024   9.230   4.568   2.268
    1SIL  O032017025   9.475   4.371   2.139
    1SIL  O032117026   9.662   4.318   2.320
    1SIL  O032217027   9.615   4.506   2.501
    1SIL  Si1W217028   9.223   4.908   2.023
    1SIL  Si1W317029   8.977   4.882   2.385
    1SIL  Si1W417030   9.323   4.682   2.204
    1SIL  O032317031   9.123   4.858   2.449
    1SIL  O032417032   9.171   5.046   2.087
    1SIL  O032517033   8.984   4.993   2.268
    1SIL  O032617034   9.230   4.797   2.139
    1SIL  O032717035   9.416   4.744   2.320
    1SIL  O032817036   9.369   4.932   2.501
    1SIL  Si1W517037   8.977   5.334   2.023
    1SIL  Si1W617038   8.732   5.307   2.385
    1SIL  Si1W717039   9.077   5.108   2.204
    1SIL  O032917040   8.878   5.284   2.449
    1SIL  O032A17041   8.925   5.472   2.087
    1SIL  O032B17042   8.738   5.419   2.268
    1SIL  O032C17043   8.984   5.222   2.139
    1SIL  O032D17044   9.171   5.169   2.320
    1SIL  O032E17045   9.123   5.357   2.501
    1SIL  Si1W817046   8.732   5.759   2.023
    1SIL  Si1W917047   8.486   5.733   2.385
    1SIL  Si1WA17048   8.832   5.533   2.204
    1SIL  O032F17049   8.632   5.709   2.449
    1SIL  O032G17050   8.679   5.898   2.087
    1SIL  O032H17051   8.492   5.844   2.268
    1SIL  O032I17052   8.738   5.648   2.139
    1SIL  O032J17053   8.925   5.595   2.320
    1SIL  O032K17054   8.878   5.783   2.501
    1SIL  Si1WB17055   8.486   6.185   2.023
    1SIL  Si1WC17056   8.240   6.159   2.385
    1SIL  Si1WD17057   8.586   5.959   2.204
    1SIL  O032L17058   8.386   6.135   2.449
    1SIL  O032M17059   8.433   6.323   2.087
    1SIL  O032N17060   8.247   6.270   2.268
    1SIL  O032O17061   8.492   6.074   2.139
    1SIL  O032P17062   8.679   6.020   2.320
    1SIL  O032Q17063   8.632   6.209   2.501
    1SIL  Si1WE17064   8.240   6.611   2.023
    1SIL  Si1WF17065   7.994   6.584   2.385
    1SIL  Si1WG17066   8.340   6.385   2.204
    1SIL  O032R17067   8.140   6.561   2.449
    1SIL  O032S17068   8.188   6.749   2.087
    1SIL  O032T17069   8.001   6.696   2.268
    1SIL  O032U17070   8.247   6.499   2.139
    1SIL  O032V17071   8.433   6.446   2.320
    1SIL  O032W17072   8.386   6.634   2.501
    1SIL  Si1WH17073   7.994   7.036   2.023
    1SIL  Si1WI17074   7.749   7.010   2.385
    1SIL  Si1WJ17075   8.094   6.810   2.204
    1SIL  O032X17076   7.895   6.986   2.449
    1SIL  O032Y17077   7.942   7.175   2.087
    1SIL  O032Z17078   7.755   7.121   2.268
    1SIL  O032a17079   8.001   6.925   2.139
    1SIL  O032b17080   8.188   6.872   2.320
    1SIL  O032c17081   8.140   7.060   2.501
    1SIL  Si1WK17082   7.749   7.462   2.023
    1SIL  Si1WL17083   7.503   7.436   2.385
    1SIL  Si1WM17084   7.849   7.236   2.204
    1SIL  O032d17085   7.649   7.412   2.449
    1SIL  O032e17086   7.696   7.600   2.087
    1SIL  O032f17087   7.509   7.547   2.268
    1SIL  O032g17088   7.755   7.351   2.139
    1SIL  O032h17089   7.942   7.297   2.320
    1SIL  O032i17090   7.895   7.486   2.501
    1SIL  Si1WN17091   7.503   7.888   2.023
    1SIL  Si1WO17092   7.257   7.861   2.385
    1SIL  Si1WP17093   7.603   7.662   2.204
    1SIL  O032j17094   7.403   7.838   2.449
    1SIL  O032k17095   7.450   8.026   2.087
    1SIL  O032l17096   7.264   7.973   2.268
    1SIL  O032m17097   7.509   7.776   2.139
    1SIL  O032n17098   7.696   7.723   2.320
    1SIL  O032o17099   7.649   7.911   2.501
    1SIL  Si1WQ17100   7.257   8.313   2.023
    1SIL  Si1WR17101   7.011   8.287   2.385
    1SIL  Si1WS17102   7.357   8.087   2.204
    1SIL  O032p17103   7.157   8.263   2.449
    1SIL  O032q17104   7.205   8.452   2.087
    1SIL  O032r17105   7.018   8.398   2.268
    1SIL  O032s17106   7.264   8.202   2.139
    1SIL  O032t17107   7.450   8.149   2.320
    1SIL  O032u17108   7.403   8.337   2.501
    1SIL  Si1WT17109   7.011   8.739   2.023
    1SIL  Si1WU17110   6.766   8.713   2.385
    1SIL  Si1WV17111   7.111   8.513   2.204
    1SIL  O032v17112   6.912   8.689   2.449
    1SIL  O032w17113   6.959   8.877   2.087
    1SIL  O032x17114   6.772   8.824   2.268
    1SIL  O032y17115   7.018   8.628   2.139
    1SIL  O032z17116   7.205   8.574   2.320
    1SIL  O033017117   7.157   8.763   2.501
    1SIL  Si1WW17118   6.766   9.165   2.023
    1SIL  Si1WX17119   6.520   9.138   2.385
    1SIL  Si1WY17120   6.866   8.939   2.204
    1SIL  O033117121   6.666   9.115   2.449
    1SIL  O033217122   6.713   9.303   2.087
    1SIL  O033317123   6.526   9.250   2.268
    1SIL  O033417124   6.772   9.053   2.139
    1SIL  O033517125   6.959   9.000   2.320
    1SIL  O033617126   6.912   9.188   2.501
    1SIL  Si1WZ17127   6.520   9.590   2.023
    1SIL  Si1Wa17128   6.274   9.564   2.385
    1SIL  Si1Wb17129   6.620   9.364   2.204
    1SIL  O033717130   6.420   9.540   2.449
    1SIL  O033817131   6.467   9.729   2.087
    1SIL  O033917132   6.281   9.675   2.268
    1SIL  O033A17133   6.526   9.479   2.139
    1SIL  O033B17134   6.713   9.426   2.320
    1SIL  O033C17135   6.666   9.614   2.501
    1SIL  Si1Wc17136   2.588   0.226   2.023
    1SIL  Si1Wd17137   2.342   0.200   2.385
    1SIL  Si1We17138   2.688   0.000   2.204
    1SIL  O033D17139   2.488   0.176   2.449
    1SIL  O033E17140   2.535   0.364   2.087
    1SIL  O033F17141   2.349   0.311   2.268
    1SIL  O033G17142   2.595   0.115   2.139
    1SIL  O033H17143   2.781   0.061   2.320
    1SIL  O033I17144   2.734   0.250   2.501
    1SIL  Si1Wf17145   2.342   0.652   2.023
    1SIL  Si1Wg17146   2.097   0.625   2.385
    1SIL  Si1Wh17147   2.442   0.426   2.204
    1SIL  O033J17148   2.242   0.602   2.449
    1SIL  O033K17149   2.290   0.790   2.087
    1SIL  O033L17150   2.103   0.737   2.268
    1SIL  O033M17151   2.349   0.540   2.139
    1SIL  O033N17152   2.535   0.487   2.320
    1SIL  O033O17153   2.488   0.675   2.501
    1SIL  Si1Wi17154   2.097   1.077   2.023
    1SIL  Si1Wj17155   1.851   1.051   2.385
    1SIL  Si1Wk17156   2.196   0.851   2.204
    1SIL  O033P17157   1.997   1.027   2.449
    1SIL  O033Q17158   2.044   1.216   2.087
    1SIL  O033R17159   1.857   1.162   2.268
    1SIL  O033S17160   2.103   0.966   2.139
    1SIL  O033T17161   2.290   0.913   2.320
    1SIL  O033U17162   2.242   1.101   2.501
    1SIL  Si1Wl17163   1.851   1.503   2.023
    1SIL  Si1Wm17164   1.605   1.477   2.385
    1SIL  Si1Wn17165   1.951   1.277   2.204
    1SIL  O033V17166   1.751   1.453   2.449
    1SIL  O033W17167   1.798   1.641   2.087
    1SIL  O033X17168   1.612   1.588   2.268
    1SIL  O033Y17169   1.857   1.392   2.139
    1SIL  O033Z17170   2.044   1.338   2.320
    1SIL  O033a17171   1.997   1.527   2.501
    1SIL  Si1Wo17172   1.605   1.929   2.023
    1SIL  Si1Wp17173   1.359   1.902   2.385
    1SIL  Si1Wq17174   1.705   1.703   2.204
    1SIL  O033b17175   1.505   1.879   2.449
    1SIL  O033c17176   1.552   2.067   2.087
    1SIL  O033d17177   1.366   2.014   2.268
    1SIL  O033e17178   1.612   1.817   2.139
    1SIL  O033f17179   1.798   1.764   2.320
    1SIL  O033g17180   1.751   1.952   2.501
    1SIL  Si1Wr17181   1.359   2.354   2.023
    1SIL  Si1Ws17182   1.114   2.328   2.385
    1SIL  Si1Wt17183   1.459   2.128   2.204
    1SIL  O033h17184   1.259   2.304   2.449
    1SIL  O033i17185   1.307   2.493   2.087
    1SIL  O033j17186   1.120   2.439   2.268
    1SIL  O033k17187   1.366   2.243   2.139
    1SIL  O033l17188   1.552   2.190   2.320
    1SIL  O033m17189   1.505   2.378   2.501
    1SIL  Si1Wu17190   1.114   2.780   2.023
    1SIL  Si1Wv17191   0.868   2.753   2.385
    1SIL  Si1Ww17192   1.213   2.554   2.204
    1SIL  O033n17193   1.014   2.730   2.449
    1SIL  O033o17194   1.061   2.918   2.087
    1SIL  O033p17195   0.874   2.865   2.268
    1SIL  O033q17196   1.120   2.668   2.139
    1SIL  O033r17197   1.307   2.615   2.320
    1SIL  O033s17198   1.259   2.804   2.501
    1SIL  Si1Wx17199   0.868   3.206   2.023
    1SIL  Si1Wy17200   0.622   3.179   2.385
    1SIL  Si1Wz17201   0.968   2.980   2.204
    1SIL  O033t17202   0.768   3.156   2.449
    1SIL  O033u17203   0.815   3.344   2.087
    1SIL  O033v17204   0.629   3.291   2.268
    1SIL  O033w17205   0.874   3.094   2.139
    1SIL  O033x17206   1.061   3.041   2.320
    1SIL  O033y17207   1.014   3.229   2.501
    1SIL  Si1X017208   0.622   3.631   2.023
    1SIL  Si1X117209   0.376   3.605   2.385
    1SIL  Si1X217210   0.722   3.405   2.204
    1SIL  O033z17211   0.522   3.581   2.449
    1SIL  O034017212   0.569   3.769   2.087
    1SIL  O034117213   0.383   3.716   2.268
    1SIL  O034217214   0.629   3.520   2.139
    1SIL  O034317215   0.815   3.467   2.320
    1SIL  O034417216   0.768   3.655   2.501
    1SIL  Si1X317217   0.376   4.057   2.023
    1SIL  Si1X417218   0.131   4.030   2.385
    1SIL  Si1X517219   0.476   3.831   2.204
    1SIL  O034517220   0.276   4.007   2.449
    1SIL  O034617221   0.324   4.195   2.087
    1SIL  O034717222   0.137   4.142   2.268
    1SIL  O034817223   0.383   3.945   2.139
    1SIL  O034917224   0.569   3.892   2.320
    1SIL  O034A17225   0.522   4.081   2.501
    1SIL  Si1X617226   0.131   4.483   2.023
    1SIL  Si1X717227   9.715   4.456   2.385
    1SIL  Si1X817228   0.230   4.256   2.204
    1SIL  O034B17229   0.031   4.432   2.449
    1SIL  O034C17230   0.078   4.621   2.087
    1SIL  O034D17231   9.721   4.568   2.268
    1SIL  O034E17232   0.137   4.371   2.139
    1SIL  O034F17233   0.324   4.318   2.320
    1SIL  O034G17234   0.276   4.506   2.501
    1SIL  Si1X917235   9.715   4.908   2.023
    1SIL  Si1XA17236   9.469   4.882   2.385
    1SIL  Si1XB17237   9.815   4.682   2.204
    1SIL  O034H17238   9.615   4.858   2.449
    1SIL  O034I17239   9.662   5.046   2.087
    1SIL  O034J17240   9.475   4.993   2.268
    1SIL  O034K17241   9.721   4.797   2.139
    1SIL  O034L17242   0.078   4.744   2.320
    1SIL  O034M17243   0.031   4.932   2.501
    1SIL  Si1XC17244   9.469   5.334   2.023
    1SIL  Si1XD17245   9.223   5.307   2.385
    1SIL  Si1XE17246   9.569   5.108   2.204
    1SIL  O034N17247   9.369   5.284   2.449
    1SIL  O034O17248   9.416   5.472   2.087
    1SIL  O034P17249   9.230   5.419   2.268
    1SIL  O034Q17250   9.475   5.222   2.139
    1SIL  O034R17251   9.662   5.169   2.320
    1SIL  O034S17252   9.615   5.357   2.501
    1SIL  Si1XF17253   9.223   5.759   2.023
    1SIL  Si1XG17254   8.977   5.733   2.385
    1SIL  Si1XH17255   9.323   5.533   2.204
    1SIL  O034T17256   9.123   5.709   2.449
    1SIL  O034U17257   9.171   5.898   2.087
    1SIL  O034V17258   8.984   5.844   2.268
    1SIL  O034W17259   9.230   5.648   2.139
    1SIL  O034X17260   9.416   5.595   2.320
    1SIL  O034Y17261   9.369   5.783   2.501
    1SIL  Si1XI17262   8.977   6.185   2.023
    1SIL  Si1XJ17263   8.732   6.159   2.385
    1SIL  Si1XK17264   9.077   5.959   2.204
    1SIL  O034Z17265   8.878   6.135   2.449
    1SIL  O034a17266   8.925   6.323   2.087
    1SIL  O034b17267   8.738   6.270   2.268
    1SIL  O034c17268   8.984   6.074   2.139
    1SIL  O034d17269   9.171   6.020   2.320
    1SIL  O034e17270   9.123   6.209   2.501
    1SIL  Si1XL17271   8.732   6.611   2.023
    1SIL  Si1XM17272   8.486   6.584   2.385
    1SIL  Si1XN17273   8.832   6.385   2.204
    1SIL  O034f17274   8.632   6.561   2.449
    1SIL  O034g17275   8.679   6.749   2.087
    1SIL  O034h17276   8.492   6.696   2.268
    1SIL  O034i17277   8.738   6.499   2.139
    1SIL  O034j17278   8.925   6.446   2.320
    1SIL  O034k17279   8.878   6.634   2.501
    1SIL  Si1XO17280   8.486   7.036   2.023
    1SIL  Si1XP17281   8.240   7.010   2.385
    1SIL  Si1XQ17282   8.586   6.810   2.204
    1SIL  O034l17283   8.386   6.986   2.449
    1SIL  O034m17284   8.433   7.175   2.087
    1SIL  O034n17285   8.247   7.121   2.268
    1SIL  O034o17286   8.492   6.925   2.139
    1SIL  O034p17287   8.679   6.872   2.320
    1SIL  O034q17288   8.632   7.060   2.501
    1SIL  Si1XR17289   8.240   7.462   2.023
    1SIL  Si1XS17290   7.994   7.436   2.385
    1SIL  Si1XT17291   8.340   7.236   2.204
    1SIL  O034r17292   8.140   7.412   2.449
    1SIL  O034s17293   8.188   7.600   2.087
    1SIL  O034t17294   8.001   7.547   2.268
    1SIL  O034u17295   8.247   7.351   2.139
    1SIL  O034v17296   8.433   7.297   2.320
    1SIL  O034w17297   8.386   7.486   2.501
    1SIL  Si1XU17298   7.994   7.888   2.023
    1SIL  Si1XV17299   7.749   7.861   2.385
    1SIL  Si1XW17300   8.094   7.662   2.204
    1SIL  O034x17301   7.895   7.838   2.449
    1SIL  O034y17302   7.942   8.026   2.087
    1SIL  O034z17303   7.755   7.973   2.268
    1SIL  O035017304   8.001   7.776   2.139
    1SIL  O035117305   8.188   7.723   2.320
    1SIL  O035217306   8.140   7.911   2.501
    1SIL  Si1XX17307   7.749   8.313   2.023
    1SIL  Si1XY17308   7.503   8.287   2.385
    1SIL  Si1XZ17309   7.849   8.087   2.204
    1SIL  O035317310   7.649   8.263   2.449
    1SIL  O035417311   7.696   8.452   2.087
    1SIL  O035517312   7.509   8.398   2.268
    1SIL  O035617313   7.755   8.202   2.139
    1SIL  O035717314   7.942   8.149   2.320
    1SIL  O035817315   7.895   8.337   2.501
    1SIL  Si1Xa17316   7.503   8.739   2.023
    1SIL  Si1Xb17317   7.257   8.713   2.385
    1SIL  Si1Xc17318   7.603   8.513   2.204
    1SIL  O035917319   7.403   8.689   2.449
    1SIL  O035A17320   7.450   8.877   2.087
    1SIL  O035B17321   7.264   8.824   2.268
    1SIL  O035C17322   7.509   8.628   2.139
    1SIL  O035D17323   7.696   8.574   2.320
    1SIL  O035E17324   7.649   8.763   2.501
    1SIL  Si1Xd17325   7.257   9.165   2.023
    1SIL  Si1Xe17326   7.011   9.138   2.385
    1SIL  Si1Xf17327   7.357   8.939   2.204
    1SIL  O035F17328   7.157   9.115   2.449
    1SIL  O035G17329   7.205   9.303   2.087
    1SIL  O035H17330   7.018   9.250   2.268
    1SIL  O035I17331   7.264   9.053   2.139
    1SIL  O035J17332   7.450   9.000   2.320
    1SIL  O035K17333   7.403   9.188   2.501
    1SIL  Si1Xg17334   7.011   9.590   2.023
    1SIL  Si1Xh17335   6.766   9.564   2.385
    1SIL  Si1Xi17336   7.111   9.364   2.204
    1SIL  O035L17337   6.912   9.540   2.449
    1SIL  O035M17338   6.959   9.729   2.087
    1SIL  O035N17339   6.772   9.675   2.268
    1SIL  O035O17340   7.018   9.479   2.139
    1SIL  O035P17341   7.205   9.426   2.320
    1SIL  O035Q17342   7.157   9.614   2.501
    1SIL  Si1Xj17343   3.079   0.226   2.023
    1SIL  Si1Xk17344   2.834   0.200   2.385
    1SIL  Si1Xl17345   3.179   0.000   2.204
    1SIL  O035R17346   2.980   0.176   2.449
    1SIL  O035S17347   3.027   0.364   2.087
    1SIL  O035T17348   2.840   0.311   2.268
    1SIL  O035U17349   3.086   0.115   2.139
    1SIL  O035V17350   3.273   0.061   2.320
    1SIL  O035W17351   3.225   0.250   2.501
    1SIL  Si1Xm17352   2.834   0.652   2.023
    1SIL  Si1Xn17353   2.588   0.625   2.385
    1SIL  Si1Xo17354   2.934   0.426   2.204
    1SIL  O035X17355   2.734   0.602   2.449
    1SIL  O035Y17356   2.781   0.790   2.087
    1SIL  O035Z17357   2.595   0.737   2.268
    1SIL  O035a17358   2.840   0.540   2.139
    1SIL  O035b17359   3.027   0.487   2.320
    1SIL  O035c17360   2.980   0.675   2.501
    1SIL  Si1Xp17361   2.588   1.077   2.023
    1SIL  Si1Xq17362   2.342   1.051   2.385
    1SIL  Si1Xr17363   2.688   0.851   2.204
    1SIL  O035d17364   2.488   1.027   2.449
    1SIL  O035e17365   2.535   1.216   2.087
    1SIL  O035f17366   2.349   1.162   2.268
    1SIL  O035g17367   2.595   0.966   2.139
    1SIL  O035h17368   2.781   0.913   2.320
    1SIL  O035i17369   2.734   1.101   2.501
    1SIL  Si1Xs17370   2.342   1.503   2.023
    1SIL  Si1Xt17371   2.097   1.477   2.385
    1SIL  Si1Xu17372   2.442   1.277   2.204
    1SIL  O035j17373   2.242   1.453   2.449
    1SIL  O035k17374   2.290   1.641   2.087
    1SIL  O035l17375   2.103   1.588   2.268
    1SIL  O035m17376   2.349   1.392   2.139
    1SIL  O035n17377   2.535   1.338   2.320
    1SIL  O035o17378   2.488   1.527   2.501
    1SIL  Si1Xv17379   2.097   1.929   2.023
    1SIL  Si1Xw17380   1.851   1.902   2.385
    1SIL  Si1Xx17381   2.196   1.703   2.204
    1SIL  O035p17382   1.997   1.879   2.449
    1SIL  O035q17383   2.044   2.067   2.087
    1SIL  O035r17384   1.857   2.014   2.268
    1SIL  O035s17385   2.103   1.817   2.139
    1SIL  O035t17386   2.290   1.764   2.320
    1SIL  O035u17387   2.242   1.952   2.501
    1SIL  Si1Xy17388   1.851   2.354   2.023
    1SIL  Si1Xz17389   1.605   2.328   2.385
    1SIL  Si1Y017390   1.951   2.128   2.204
    1SIL  O035v17391   1.751   2.304   2.449
    1SIL  O035w17392   1.798   2.493   2.087
    1SIL  O035x17393   1.612   2.439   2.268
    1SIL  O035y17394   1.857   2.243   2.139
    1SIL  O035z17395   2.044   2.190   2.320
    1SIL  O036017396   1.997   2.378   2.501
    1SIL  Si1Y117397   1.605   2.780   2.023
    1SIL  Si1Y217398   1.359   2.753   2.385
    1SIL  Si1Y317399   1.705   2.554   2.204
    1SIL  O036117400   1.505   2.730   2.449
    1SIL  O036217401   1.552   2.918   2.087
    1SIL  O036317402   1.366   2.865   2.268
    1SIL  O036417403   1.612   2.668   2.139
    1SIL  O036517404   1.798   2.615   2.320
    1SIL  O036617405   1.751   2.804   2.501
    1SIL  Si1Y417406   1.359   3.206   2.023
    1SIL  Si1Y517407   1.114   3.179   2.385
    1SIL  Si1Y617408   1.459   2.980   2.204
    1SIL  O036717409   1.259   3.156   2.449
    1SIL  O036817410   1.307   3.344   2.087
    1SIL  O036917411   1.120   3.291   2.268
    1SIL  O036A17412   1.366   3.094   2.139
    1SIL  O036B17413   1.552   3.041   2.320
    1SIL  O036C17414   1.505   3.229   2.501
    1SIL  Si1Y717415   1.114   3.631   2.023
    1SIL  Si1Y817416   0.868   3.605   2.385
    1SIL  Si1Y917417   1.213   3.405   2.204
    1SIL  O036D17418   1.014   3.581   2.449
    1SIL  O036E17419   1.061   3.769   2.087
    1SIL  O036F17420   0.874   3.716   2.268
    1SIL  O036G17421   1.120   3.520   2.139
    1SIL  O036H17422   1.307   3.467   2.320
    1SIL  O036I17423   1.259   3.655   2.501
    1SIL  Si1YA17424   0.868   4.057   2.023
    1SIL  Si1YB17425   0.622   4.030   2.385
    1SIL  Si1YC17426   0.968   3.831   2.204
    1SIL  O036J17427   0.768   4.007   2.449
    1SIL  O036K17428   0.815   4.195   2.087
    1SIL  O036L17429   0.629   4.142   2.268
    1SIL  O036M17430   0.874   3.945   2.139
    1SIL  O036N17431   1.061   3.892   2.320
    1SIL  O036O17432   1.014   4.081   2.501
    1SIL  Si1YD17433   0.622   4.483   2.023
    1SIL  Si1YE17434   0.376   4.456   2.385
    1SIL  Si1YF17435   0.722   4.256   2.204
    1SIL  O036P17436   0.522   4.432   2.449
    1SIL  O036Q17437   0.569   4.621   2.087
    1SIL  O036R17438   0.383   4.568   2.268
    1SIL  O036S17439   0.629   4.371   2.139
    1SIL  O036T17440   0.815   4.318   2.320
    1SIL  O036U17441   0.768   4.506   2.501
    1SIL  Si1YG17442   0.376   4.908   2.023
    1SIL  Si1YH17443   0.131   4.882   2.385
    1SIL  Si1YI17444   0.476   4.682   2.204
    1SIL  O036V17445   0.276   4.858   2.449
    1SIL  O036W17446   0.324   5.046   2.087
    1SIL  O036X17447   0.137   4.993   2.268
    1SIL  O036Y17448   0.383   4.797   2.139
    1SIL  O036Z17449   0.569   4.744   2.320
    1SIL  O036a17450   0.522   4.932   2.501
    1SIL  Si1YJ17451   0.131   5.334   2.023
    1SIL  Si1YK17452   9.715   5.307   2.385
    1SIL  Si1YL17453   0.230   5.108   2.204
    1SIL  O036b17454   0.031   5.284   2.449
    1SIL  O036c17455   0.078   5.472   2.087
    1SIL  O036d17456   9.721   5.419   2.268
    1SIL  O036e17457   0.137   5.222   2.139
    1SIL  O036f17458   0.324   5.169   2.320
    1SIL  O036g17459   0.276   5.357   2.501
    1SIL  Si1YM17460   9.715   5.759   2.023
    1SIL  Si1YN17461   9.469   5.733   2.385
    1SIL  Si1YO17462   9.815   5.533   2.204
    1SIL  O036h17463   9.615   5.709   2.449
    1SIL  O036i17464   9.662   5.898   2.087
    1SIL  O036j17465   9.475   5.844   2.268
    1SIL  O036k17466   9.721   5.648   2.139
    1SIL  O036l17467   0.078   5.595   2.320
    1SIL  O036m17468   0.031   5.783   2.501
    1SIL  Si1YP17469   9.469   6.185   2.023
    1SIL  Si1YQ17470   9.223   6.159   2.385
    1SIL  Si1YR17471   9.569   5.959   2.204
    1SIL  O036n17472   9.369   6.135   2.449
    1SIL  O036o17473   9.416   6.323   2.087
    1SIL  O036p17474   9.230   6.270   2.268
    1SIL  O036q17475   9.475   6.074   2.139
    1SIL  O036r17476   9.662   6.020   2.320
    1SIL  O036s17477   9.615   6.209   2.501
    1SIL  Si1YS17478   9.223   6.611   2.023
    1SIL  Si1YT17479   8.977   6.584   2.385
    1SIL  Si1YU17480   9.323   6.385   2.204
    1SIL  O036t17481   9.123   6.561   2.449
    1SIL  O036u17482   9.171   6.749   2.087
    1SIL  O036v17483   8.984   6.696   2.268
    1SIL  O036w17484   9.230   6.499   2.139
    1SIL  O036x17485   9.416   6.446   2.320
    1SIL  O036y17486   9.369   6.634   2.501
    1SIL  Si1YV17487   8.977   7.036   2.023
    1SIL  Si1YW17488   8.732   7.010   2.385
    1SIL  Si1YX17489   9.077   6.810   2.204
    1SIL  O036z17490   8.878   6.986   2.449
    1SIL  O037017491   8.925   7.175   2.087
    1SIL  O037117492   8.738   7.121   2.268
    1SIL  O037217493   8.984   6.925   2.139
    1SIL  O037317494   9.171   6.872   2.320
    1SIL  O037417495   9.123   7.060   2.501
    1SIL  Si1YY17496   8.732   7.462   2.023
    1SIL  Si1YZ17497   8.486   7.436   2.385
    1SIL  Si1Ya17498   8.832   7.236   2.204
    1SIL  O037517499   8.632   7.412   2.449
    1SIL  O037617500   8.679   7.600   2.087
    1SIL  O037717501   8.492   7.547   2.268
    1SIL  O037817502   8.738   7.351   2.139
    1SIL  O037917503   8.925   7.297   2.320
    1SIL  O037A17504   8.878   7.486   2.501
    1SIL  Si1Yb17505   8.486   7.888   2.023
    1SIL  Si1Yc17506   8.240   7.861   2.385
    1SIL  Si1Yd17507   8.586   7.662   2.204
    1SIL  O037B17508   8.386   7.838   2.449
    1SIL  O037C17509   8.433   8.026   2.087
    1SIL  O037D17510   8.247   7.973   2.268
    1SIL  O037E17511   8.492   7.776   2.139
    1SIL  O037F17512   8.679   7.723   2.320
    1SIL  O037G17513   8.632   7.911   2.501
    1SIL  Si1Ye17514   8.240   8.313   2.023
    1SIL  Si1Yf17515   7.994   8.287   2.385
    1SIL  Si1Yg17516   8.340   8.087   2.204
    1SIL  O037H17517   8.140   8.263   2.449
    1SIL  O037I17518   8.188   8.452   2.087
    1SIL  O037J17519   8.001   8.398   2.268
    1SIL  O037K17520   8.247   8.202   2.139
    1SIL  O037L17521   8.433   8.149   2.320
    1SIL  O037M17522   8.386   8.337   2.501
    1SIL  Si1Yh17523   7.994   8.739   2.023
    1SIL  Si1Yi17524   7.749   8.713   2.385
    1SIL  Si1Yj17525   8.094   8.513   2.204
    1SIL  O037N17526   7.895   8.689   2.449
    1SIL  O037O17527   7.942   8.877   2.087
    1SIL  O037P17528   7.755   8.824   2.268
    1SIL  O037Q17529   8.001   8.628   2.139
    1SIL  O037R17530   8.188   8.574   2.320
    1SIL  O037S17531   8.140   8.763   2.501
    1SIL  Si1Yk17532   7.749   9.165   2.023
    1SIL  Si1Yl17533   7.503   9.138   2.385
    1SIL  Si1Ym17534   7.849   8.939   2.204
    1SIL  O037T17535   7.649   9.115   2.449
    1SIL  O037U17536   7.696   9.303   2.087
    1SIL  O037V17537   7.509   9.250   2.268
    1SIL  O037W17538   7.755   9.053   2.139
    1SIL  O037X17539   7.942   9.000   2.320
    1SIL  O037Y17540   7.895   9.188   2.501
    1SIL  Si1Yn17541   7.503   9.590   2.023
    1SIL  Si1Yo17542   7.257   9.564   2.385
    1SIL  Si1Yp17543   7.603   9.364   2.204
    1SIL  O037Z17544   7.403   9.540   2.449
    1SIL  O037a17545   7.450   9.729   2.087
    1SIL  O037b17546   7.264   9.675   2.268
    1SIL  O037c17547   7.509   9.479   2.139
    1SIL  O037d17548   7.696   9.426   2.320
    1SIL  O037e17549   7.649   9.614   2.501
    1SIL  Si1Yq17550   3.571   0.226   2.023
    1SIL  Si1Yr17551   3.325   0.200   2.385
    1SIL  Si1Ys17552   3.671   0.000   2.204
    1SIL  O037f17553   3.471   0.176   2.449
    1SIL  O037g17554   3.518   0.364   2.087
    1SIL  O037h17555   3.332   0.311   2.268
    1SIL  O037i17556   3.577   0.115   2.139
    1SIL  O037j17557   3.764   0.061   2.320
    1SIL  O037k17558   3.717   0.250   2.501
    1SIL  Si1Yt17559   3.325   0.652   2.023
    1SIL  Si1Yu17560   3.079   0.625   2.385
    1SIL  Si1Yv17561   3.425   0.426   2.204
    1SIL  O037l17562   3.225   0.602   2.449
    1SIL  O037m17563   3.273   0.790   2.087
    1SIL  O037n17564   3.086   0.737   2.268
    1SIL  O037o17565   3.332   0.540   2.139
    1SIL  O037p17566   3.518   0.487   2.320
    1SIL  O037q17567   3.471   0.675   2.501
    1SIL  Si1Yw17568   3.079   1.077   2.023
    1SIL  Si1Yx17569   2.834   1.051   2.385
    1SIL  Si1Yy17570   3.179   0.851   2.204
    1SIL  O037r17571   2.980   1.027   2.449
    1SIL  O037s17572   3.027   1.216   2.087
    1SIL  O037t17573   2.840   1.162   2.268
    1SIL  O037u17574   3.086   0.966   2.139
    1SIL  O037v17575   3.273   0.913   2.320
    1SIL  O037w17576   3.225   1.101   2.501
    1SIL  Si1Yz17577   2.834   1.503   2.023
    1SIL  Si1Z017578   2.588   1.477   2.385
    1SIL  Si1Z117579   2.934   1.277   2.204
    1SIL  O037x17580   2.734   1.453   2.449
    1SIL  O037y17581   2.781   1.641   2.087
    1SIL  O037z17582   2.595   1.588   2.268
    1SIL  O038017583   2.840   1.392   2.139
    1SIL  O038117584   3.027   1.338   2.320
    1SIL  O038217585   2.980   1.527   2.501
    1SIL  Si1Z217586   2.588   1.929   2.023
    1SIL  Si1Z317587   2.342   1.902   2.385
    1SIL  Si1Z417588   2.688   1.703   2.204
    1SIL  O038317589   2.488   1.879   2.449
    1SIL  O038417590   2.535   2.067   2.087
    1SIL  O038517591   2.349   2.014   2.268
    1SIL  O038617592   2.595   1.817   2.139
    1SIL  O038717593   2.781   1.764   2.320
    1SIL  O038817594   2.734   1.952   2.501
    1SIL  Si1Z517595   2.342   2.354   2.023
    1SIL  Si1Z617596   2.097   2.328   2.385
    1SIL  Si1Z717597   2.442   2.128   2.204
    1SIL  O038917598   2.242   2.304   2.449
    1SIL  O038A17599   2.290   2.493   2.087
    1SIL  O038B17600   2.103   2.439   2.268
    1SIL  O038C17601   2.349   2.243   2.139
    1SIL  O038D17602   2.535   2.190   2.320
    1SIL  O038E17603   2.488   2.378   2.501
    1SIL  Si1Z817604   2.097   2.780   2.023
    1SIL  Si1Z917605   1.851   2.753   2.385
    1SIL  Si1ZA17606   2.196   2.554   2.204
    1SIL  O038F17607   1.997   2.730   2.449
    1SIL  O038G17608   2.044   2.918   2.087
    1SIL  O038H17609   1.857   2.865   2.268
    1SIL  O038I17610   2.103   2.668   2.139
    1SIL  O038J17611   2.290   2.615   2.320
    1SIL  O038K17612   2.242   2.804   2.501
    1SIL  Si1ZB17613   1.851   3.206   2.023
    1SIL  Si1ZC17614   1.605   3.179   2.385
    1SIL  Si1ZD17615   1.951   2.980   2.204
    1SIL  O038L17616   1.751   3.156   2.449
    1SIL  O038M17617   1.798   3.344   2.087
    1SIL  O038N17618   1.612   3.291   2.268
    1SIL  O038O17619   1.857   3.094   2.139
    1SIL  O038P17620   2.044   3.041   2.320
    1SIL  O038Q17621   1.997   3.229   2.501
    1SIL  Si1ZE17622   1.605   3.631   2.023
    1SIL  Si1ZF17623   1.359   3.605   2.385
    1SIL  Si1ZG17624   1.705   3.405   2.204
    1SIL  O038R17625   1.505   3.581   2.449
    1SIL  O038S17626   1.552   3.769   2.087
    1SIL  O038T17627   1.366   3.716   2.268
    1SIL  O038U17628   1.612   3.520   2.139
    1SIL  O038V17629   1.798   3.467   2.320
    1SIL  O038W17630   1.751   3.655   2.501
    1SIL  Si1ZH17631   1.359   4.057   2.023
    1SIL  Si1ZI17632   1.114   4.030   2.385
    1SIL  Si1ZJ17633   1.459   3.831   2.204
    1SIL  O038X17634   1.259   4.007   2.449
    1SIL  O038Y17635   1.307   4.195   2.087
    1SIL  O038Z17636   1.120   4.142   2.268
    1SIL  O038a17637   1.366   3.945   2.139
    1SIL  O038b17638   1.552   3.892   2.320
    1SIL  O038c17639   1.505   4.081   2.501
    1SIL  Si1ZK17640   1.114   4.483   2.023
    1SIL  Si1ZL17641   0.868   4.456   2.385
    1SIL  Si1ZM17642   1.213   4.256   2.204
    1SIL  O038d17643   1.014   4.432   2.449
    1SIL  O038e17644   1.061   4.621   2.087
    1SIL  O038f17645   0.874   4.568   2.268
    1SIL  O038g17646   1.120   4.371   2.139
    1SIL  O038h17647   1.307   4.318   2.320
    1SIL  O038i17648   1.259   4.506   2.501
    1SIL  Si1ZN17649   0.868   4.908   2.023
    1SIL  Si1ZO17650   0.622   4.882   2.385
    1SIL  Si1ZP17651   0.968   4.682   2.204
    1SIL  O038j17652   0.768   4.858   2.449
    1SIL  O038k17653   0.815   5.046   2.087
    1SIL  O038l17654   0.629   4.993   2.268
    1SIL  O038m17655   0.874   4.797   2.139
    1SIL  O038n17656   1.061   4.744   2.320
    1SIL  O038o17657   1.014   4.932   2.501
    1SIL  Si1ZQ17658   0.622   5.334   2.023
    1SIL  Si1ZR17659   0.376   5.307   2.385
    1SIL  Si1ZS17660   0.722   5.108   2.204
    1SIL  O038p17661   0.522   5.284   2.449
    1SIL  O038q17662   0.569   5.472   2.087
    1SIL  O038r17663   0.383   5.419   2.268
    1SIL  O038s17664   0.629   5.222   2.139
    1SIL  O038t17665   0.815   5.169   2.320
    1SIL  O038u17666   0.768   5.357   2.501
    1SIL  Si1ZT17667   0.376   5.759   2.023
    1SIL  Si1ZU17668   0.131   5.733   2.385
    1SIL  Si1ZV17669   0.476   5.533   2.204
    1SIL  O038v17670   0.276   5.709   2.449
    1SIL  O038w17671   0.324   5.898   2.087
    1SIL  O038x17672   0.137   5.844   2.268
    1SIL  O038y17673   0.383   5.648   2.139
    1SIL  O038z17674   0.569   5.595   2.320
    1SIL  O039017675   0.522   5.783   2.501
    1SIL  Si1ZW17676   0.131   6.185   2.023
    1SIL  Si1ZX17677   9.715   6.159   2.385
    1SIL  Si1ZY17678   0.230   5.959   2.204
    1SIL  O039117679   0.031   6.135   2.449
    1SIL  O039217680   0.078   6.323   2.087
    1SIL  O039317681   9.721   6.270   2.268
    1SIL  O039417682   0.137   6.074   2.139
    1SIL  O039517683   0.324   6.020   2.320
    1SIL  O039617684   0.276   6.209   2.501
    1SIL  Si1ZZ17685   9.715   6.611   2.023
    1SIL  Si1Za17686   9.469   6.584   2.385
    1SIL  Si1Zb17687   9.815   6.385   2.204
    1SIL  O039717688   9.615   6.561   2.449
    1SIL  O039817689   9.662   6.749   2.087
    1SIL  O039917690   9.475   6.696   2.268
    1SIL  O039A17691   9.721   6.499   2.139
    1SIL  O039B17692   0.078   6.446   2.320
    1SIL  O039C17693   0.031   6.634   2.501
    1SIL  Si1Zc17694   9.469   7.036   2.023
    1SIL  Si1Zd17695   9.223   7.010   2.385
    1SIL  Si1Ze17696   9.569   6.810   2.204
    1SIL  O039D17697   9.369   6.986   2.449
    1SIL  O039E17698   9.416   7.175   2.087
    1SIL  O039F17699   9.230   7.121   2.268
    1SIL  O039G17700   9.475   6.925   2.139
    1SIL  O039H17701   9.662   6.872   2.320
    1SIL  O039I17702   9.615   7.060   2.501
    1SIL  Si1Zf17703   9.223   7.462   2.023
    1SIL  Si1Zg17704   8.977   7.436   2.385
    1SIL  Si1Zh17705   9.323   7.236   2.204
    1SIL  O039J17706   9.123   7.412   2.449
    1SIL  O039K17707   9.171   7.600   2.087
    1SIL  O039L17708   8.984   7.547   2.268
    1SIL  O039M17709   9.230   7.351   2.139
    1SIL  O039N17710   9.416   7.297   2.320
    1SIL  O039O17711   9.369   7.486   2.501
    1SIL  Si1Zi17712   8.977   7.888   2.023
    1SIL  Si1Zj17713   8.732   7.861   2.385
    1SIL  Si1Zk17714   9.077   7.662   2.204
    1SIL  O039P17715   8.878   7.838   2.449
    1SIL  O039Q17716   8.925   8.026   2.087
    1SIL  O039R17717   8.738   7.973   2.268
    1SIL  O039S17718   8.984   7.776   2.139
    1SIL  O039T17719   9.171   7.723   2.320
    1SIL  O039U17720   9.123   7.911   2.501
    1SIL  Si1Zl17721   8.732   8.313   2.023
    1SIL  Si1Zm17722   8.486   8.287   2.385
    1SIL  Si1Zn17723   8.832   8.087   2.204
    1SIL  O039V17724   8.632   8.263   2.449
    1SIL  O039W17725   8.679   8.452   2.087
    1SIL  O039X17726   8.492   8.398   2.268
    1SIL  O039Y17727   8.738   8.202   2.139
    1SIL  O039Z17728   8.925   8.149   2.320
    1SIL  O039a17729   8.878   8.337   2.501
    1SIL  Si1Zo17730   8.486   8.739   2.023
    1SIL  Si1Zp17731   8.240   8.713   2.385
    1SIL  Si1Zq17732   8.586   8.513   2.204
    1SIL  O039b17733   8.386   8.689   2.449
    1SIL  O039c17734   8.433   8.877   2.087
    1SIL  O039d17735   8.247   8.824   2.268
    1SIL  O039e17736   8.492   8.628   2.139
    1SIL  O039f17737   8.679   8.574   2.320
    1SIL  O039g17738   8.632   8.763   2.501
    1SIL  Si1Zr17739   8.240   9.165   2.023
    1SIL  Si1Zs17740   7.994   9.138   2.385
    1SIL  Si1Zt17741   8.340   8.939   2.204
    1SIL  O039h17742   8.140   9.115   2.449
    1SIL  O039i17743   8.188   9.303   2.087
    1SIL  O039j17744   8.001   9.250   2.268
    1SIL  O039k17745   8.247   9.053   2.139
    1SIL  O039l17746   8.433   9.000   2.320
    1SIL  O039m17747   8.386   9.188   2.501
    1SIL  Si1Zu17748   7.994   9.590   2.023
    1SIL  Si1Zv17749   7.749   9.564   2.385
    1SIL  Si1Zw17750   8.094   9.364   2.204
    1SIL  O039n17751   7.895   9.540   2.449
    1SIL  O039o17752   7.942   9.729   2.087
    1SIL  O039p17753   7.755   9.675   2.268
    1SIL  O039q17754   8.001   9.479   2.139
    1SIL  O039r17755   8.188   9.426   2.320
    1SIL  O039s17756   8.140   9.614   2.501
    1SIL  Si1Zx17757   4.062   0.226   2.023
    1SIL  Si1Zy17758   3.817   0.200   2.385
    1SIL  Si1Zz17759   4.162   0.000   2.204
    1SIL  O039t17760   3.963   0.176   2.449
    1SIL  O039u17761   4.010   0.364   2.087
    1SIL  O039v17762   3.823   0.311   2.268
    1SIL  O039w17763   4.069   0.115   2.139
    1SIL  O039x17764   4.256   0.061   2.320
    1SIL  O039y17765   4.208   0.250   2.501
    1SIL  Si1a017766   3.817   0.652   2.023
    1SIL  Si1a117767   3.571   0.625   2.385
    1SIL  Si1a217768   3.917   0.426   2.204
    1SIL  O039z17769   3.717   0.602   2.449
    1SIL  O03A017770   3.764   0.790   2.087
    1SIL  O03A117771   3.577   0.737   2.268
    1SIL  O03A217772   3.823   0.540   2.139
    1SIL  O03A317773   4.010   0.487   2.320
    1SIL  O03A417774   3.963   0.675   2.501
    1SIL  Si1a317775   3.571   1.077   2.023
    1SIL  Si1a417776   3.325   1.051   2.385
    1SIL  Si1a517777   3.671   0.851   2.204
    1SIL  O03A517778   3.471   1.027   2.449
    1SIL  O03A617779   3.518   1.216   2.087
    1SIL  O03A717780   3.332   1.162   2.268
    1SIL  O03A817781   3.577   0.966   2.139
    1SIL  O03A917782   3.764   0.913   2.320
    1SIL  O03AA17783   3.717   1.101   2.501
    1SIL  Si1a617784   3.325   1.503   2.023
    1SIL  Si1a717785   3.079   1.477   2.385
    1SIL  Si1a817786   3.425   1.277   2.204
    1SIL  O03AB17787   3.225   1.453   2.449
    1SIL  O03AC17788   3.273   1.641   2.087
    1SIL  O03AD17789   3.086   1.588   2.268
    1SIL  O03AE17790   3.332   1.392   2.139
    1SIL  O03AF17791   3.518   1.338   2.320
    1SIL  O03AG17792   3.471   1.527   2.501
    1SIL  Si1a917793   3.079   1.929   2.023
    1SIL  Si1aA17794   2.834   1.902   2.385
    1SIL  Si1aB17795   3.179   1.703   2.204
    1SIL  O03AH17796   2.980   1.879   2.449
    1SIL  O03AI17797   3.027   2.067   2.087
    1SIL  O03AJ17798   2.840   2.014   2.268
    1SIL  O03AK17799   3.086   1.817   2.139
    1SIL  O03AL17800   3.273   1.764   2.320
    1SIL  O03AM17801   3.225   1.952   2.501
    1SIL  Si1aC17802   2.834   2.354   2.023
    1SIL  Si1aD17803   2.588   2.328   2.385
    1SIL  Si1aE17804   2.934   2.128   2.204
    1SIL  O03AN17805   2.734   2.304   2.449
    1SIL  O03AO17806   2.781   2.493   2.087
    1SIL  O03AP17807   2.595   2.439   2.268
    1SIL  O03AQ17808   2.840   2.243   2.139
    1SIL  O03AR17809   3.027   2.190   2.320
    1SIL  O03AS17810   2.980   2.378   2.501
    1SIL  Si1aF17811   2.588   2.780   2.023
    1SIL  Si1aG17812   2.342   2.753   2.385
    1SIL  Si1aH17813   2.688   2.554   2.204
    1SIL  O03AT17814   2.488   2.730   2.449
    1SIL  O03AU17815   2.535   2.918   2.087
    1SIL  O03AV17816   2.349   2.865   2.268
    1SIL  O03AW17817   2.595   2.668   2.139
    1SIL  O03AX17818   2.781   2.615   2.320
    1SIL  O03AY17819   2.734   2.804   2.501
    1SIL  Si1aI17820   2.342   3.206   2.023
    1SIL  Si1aJ17821   2.097   3.179   2.385
    1SIL  Si1aK17822   2.442   2.980   2.204
    1SIL  O03AZ17823   2.242   3.156   2.449
    1SIL  O03Aa17824   2.290   3.344   2.087
    1SIL  O03Ab17825   2.103   3.291   2.268
    1SIL  O03Ac17826   2.349   3.094   2.139
    1SIL  O03Ad17827   2.535   3.041   2.320
    1SIL  O03Ae17828   2.488   3.229   2.501
    1SIL  Si1aL17829   2.097   3.631   2.023
    1SIL  Si1aM17830   1.851   3.605   2.385
    1SIL  Si1aN17831   2.196   3.405   2.204
    1SIL  O03Af17832   1.997   3.581   2.449
    1SIL  O03Ag17833   2.044   3.769   2.087
    1SIL  O03Ah17834   1.857   3.716   2.268
    1SIL  O03Ai17835   2.103   3.520   2.139
    1SIL  O03Aj17836   2.290   3.467   2.320
    1SIL  O03Ak17837   2.242   3.655   2.501
    1SIL  Si1aO17838   1.851   4.057   2.023
    1SIL  Si1aP17839   1.605   4.030   2.385
    1SIL  Si1aQ17840   1.951   3.831   2.204
    1SIL  O03Al17841   1.751   4.007   2.449
    1SIL  O03Am17842   1.798   4.195   2.087
    1SIL  O03An17843   1.612   4.142   2.268
    1SIL  O03Ao17844   1.857   3.945   2.139
    1SIL  O03Ap17845   2.044   3.892   2.320
    1SIL  O03Aq17846   1.997   4.081   2.501
    1SIL  Si1aR17847   1.605   4.483   2.023
    1SIL  Si1aS17848   1.359   4.456   2.385
    1SIL  Si1aT17849   1.705   4.256   2.204
    1SIL  O03Ar17850   1.505   4.432   2.449
    1SIL  O03As17851   1.552   4.621   2.087
    1SIL  O03At17852   1.366   4.568   2.268
    1SIL  O03Au17853   1.612   4.371   2.139
    1SIL  O03Av17854   1.798   4.318   2.320
    1SIL  O03Aw17855   1.751   4.506   2.501
    1SIL  Si1aU17856   1.359   4.908   2.023
    1SIL  Si1aV17857   1.114   4.882   2.385
    1SIL  Si1aW17858   1.459   4.682   2.204
    1SIL  O03Ax17859   1.259   4.858   2.449
    1SIL  O03Ay17860   1.307   5.046   2.087
    1SIL  O03Az17861   1.120   4.993   2.268
    1SIL  O03B017862   1.366   4.797   2.139
    1SIL  O03B117863   1.552   4.744   2.320
    1SIL  O03B217864   1.505   4.932   2.501
    1SIL  Si1aX17865   1.114   5.334   2.023
    1SIL  Si1aY17866   0.868   5.307   2.385
    1SIL  Si1aZ17867   1.213   5.108   2.204
    1SIL  O03B317868   1.014   5.284   2.449
    1SIL  O03B417869   1.061   5.472   2.087
    1SIL  O03B517870   0.874   5.419   2.268
    1SIL  O03B617871   1.120   5.222   2.139
    1SIL  O03B717872   1.307   5.169   2.320
    1SIL  O03B817873   1.259   5.357   2.501
    1SIL  Si1aa17874   0.868   5.759   2.023
    1SIL  Si1ab17875   0.622   5.733   2.385
    1SIL  Si1ac17876   0.968   5.533   2.204
    1SIL  O03B917877   0.768   5.709   2.449
    1SIL  O03BA17878   0.815   5.898   2.087
    1SIL  O03BB17879   0.629   5.844   2.268
    1SIL  O03BC17880   0.874   5.648   2.139
    1SIL  O03BD17881   1.061   5.595   2.320
    1SIL  O03BE17882   1.014   5.783   2.501
    1SIL  Si1ad17883   0.622   6.185   2.023
    1SIL  Si1ae17884   0.376   6.159   2.385
    1SIL  Si1af17885   0.722   5.959   2.204
    1SIL  O03BF17886   0.522   6.135   2.449
    1SIL  O03BG17887   0.569   6.323   2.087
    1SIL  O03BH17888   0.383   6.270   2.268
    1SIL  O03BI17889   0.629   6.074   2.139
    1SIL  O03BJ17890   0.815   6.020   2.320
    1SIL  O03BK17891   0.768   6.209   2.501
    1SIL  Si1ag17892   0.376   6.611   2.023
    1SIL  Si1ah17893   0.131   6.584   2.385
    1SIL  Si1ai17894   0.476   6.385   2.204
    1SIL  O03BL17895   0.276   6.561   2.449
    1SIL  O03BM17896   0.324   6.749   2.087
    1SIL  O03BN17897   0.137   6.696   2.268
    1SIL  O03BO17898   0.383   6.499   2.139
    1SIL  O03BP17899   0.569   6.446   2.320
    1SIL  O03BQ17900   0.522   6.634   2.501
    1SIL  Si1aj17901   0.131   7.036   2.023
    1SIL  Si1ak17902   9.715   7.010   2.385
    1SIL  Si1al17903   0.230   6.810   2.204
    1SIL  O03BR17904   0.031   6.986   2.449
    1SIL  O03BS17905   0.078   7.175   2.087
    1SIL  O03BT17906   9.721   7.121   2.268
    1SIL  O03BU17907   0.137   6.925   2.139
    1SIL  O03BV17908   0.324   6.872   2.320
    1SIL  O03BW17909   0.276   7.060   2.501
    1SIL  Si1am17910   9.715   7.462   2.023
    1SIL  Si1an17911   9.469   7.436   2.385
    1SIL  Si1ao17912   9.815   7.236   2.204
    1SIL  O03BX17913   9.615   7.412   2.449
    1SIL  O03BY17914   9.662   7.600   2.087
    1SIL  O03BZ17915   9.475   7.547   2.268
    1SIL  O03Ba17916   9.721   7.351   2.139
    1SIL  O03Bb17917   0.078   7.297   2.320
    1SIL  O03Bc17918   0.031   7.486   2.501
    1SIL  Si1ap17919   9.469   7.888   2.023
    1SIL  Si1aq17920   9.223   7.861   2.385
    1SIL  Si1ar17921   9.569   7.662   2.204
    1SIL  O03Bd17922   9.369   7.838   2.449
    1SIL  O03Be17923   9.416   8.026   2.087
    1SIL  O03Bf17924   9.230   7.973   2.268
    1SIL  O03Bg17925   9.475   7.776   2.139
    1SIL  O03Bh17926   9.662   7.723   2.320
    1SIL  O03Bi17927   9.615   7.911   2.501
    1SIL  Si1as17928   9.223   8.313   2.023
    1SIL  Si1at17929   8.977   8.287   2.385
    1SIL  Si1au17930   9.323   8.087   2.204
    1SIL  O03Bj17931   9.123   8.263   2.449
    1SIL  O03Bk17932   9.171   8.452   2.087
    1SIL  O03Bl17933   8.984   8.398   2.268
    1SIL  O03Bm17934   9.230   8.202   2.139
    1SIL  O03Bn17935   9.416   8.149   2.320
    1SIL  O03Bo17936   9.369   8.337   2.501
    1SIL  Si1av17937   8.977   8.739   2.023
    1SIL  Si1aw17938   8.732   8.713   2.385
    1SIL  Si1ax17939   9.077   8.513   2.204
    1SIL  O03Bp17940   8.878   8.689   2.449
    1SIL  O03Bq17941   8.925   8.877   2.087
    1SIL  O03Br17942   8.738   8.824   2.268
    1SIL  O03Bs17943   8.984   8.628   2.139
    1SIL  O03Bt17944   9.171   8.574   2.320
    1SIL  O03Bu17945   9.123   8.763   2.501
    1SIL  Si1ay17946   8.732   9.165   2.023
    1SIL  Si1az17947   8.486   9.138   2.385
    1SIL  Si1b017948   8.832   8.939   2.204
    1SIL  O03Bv17949   8.632   9.115   2.449
    1SIL  O03Bw17950   8.679   9.303   2.087
    1SIL  O03Bx17951   8.492   9.250   2.268
    1SIL  O03By17952   8.738   9.053   2.139
    1SIL  O03Bz17953   8.925   9.000   2.320
    1SIL  O03C017954   8.878   9.188   2.501
    1SIL  Si1b117955   8.486   9.590   2.023
    1SIL  Si1b217956   8.240   9.564   2.385
    1SIL  Si1b317957   8.586   9.364   2.204
    1SIL  O03C117958   8.386   9.540   2.449
    1SIL  O03C217959   8.433   9.729   2.087
    1SIL  O03C317960   8.247   9.675   2.268
    1SIL  O03C417961   8.492   9.479   2.139
    1SIL  O03C517962   8.679   9.426   2.320
    1SIL  O03C617963   8.632   9.614   2.501
    1SIL  Si1b417964   4.554   0.226   2.023
    1SIL  Si1b517965   4.308   0.200   2.385
    1SIL  Si1b617966   4.654   0.000   2.204
    1SIL  O03C717967   4.454   0.176   2.449
    1SIL  O03C817968   4.501   0.364   2.087
    1SIL  O03C917969   4.315   0.311   2.268
    1SIL  O03CA17970   4.560   0.115   2.139
    1SIL  O03CB17971   4.747   0.061   2.320
    1SIL  O03CC17972   4.700   0.250   2.501
    1SIL  Si1b717973   4.308   0.652   2.023
    1SIL  Si1b817974   4.062   0.625   2.385
    1SIL  Si1b917975   4.408   0.426   2.204
    1SIL  O03CD17976   4.208   0.602   2.449
    1SIL  O03CE17977   4.256   0.790   2.087
    1SIL  O03CF17978   4.069   0.737   2.268
    1SIL  O03CG17979   4.315   0.540   2.139
    1SIL  O03CH17980   4.501   0.487   2.320
    1SIL  O03CI17981   4.454   0.675   2.501
    1SIL  Si1bA17982   4.062   1.077   2.023
    1SIL  Si1bB17983   3.817   1.051   2.385
    1SIL  Si1bC17984   4.162   0.851   2.204
    1SIL  O03CJ17985   3.963   1.027   2.449
    1SIL  O03CK17986   4.010   1.216   2.087
    1SIL  O03CL17987   3.823   1.162   2.268
    1SIL  O03CM17988   4.069   0.966   2.139
    1SIL  O03CN17989   4.256   0.913   2.320
    1SIL  O03CO17990   4.208   1.101   2.501
    1SIL  Si1bD17991   3.817   1.503   2.023
    1SIL  Si1bE17992   3.571   1.477   2.385
    1SIL  Si1bF17993   3.917   1.277   2.204
    1SIL  O03CP17994   3.717   1.453   2.449
    1SIL  O03CQ17995   3.764   1.641   2.087
    1SIL  O03CR17996   3.577   1.588   2.268
    1SIL  O03CS17997   3.823   1.392   2.139
    1SIL  O03CT17998   4.010   1.338   2.320
    1SIL  O03CU17999   3.963   1.527   2.501
    1SIL  Si1bG18000   3.571   1.929   2.023
    1SIL  Si1bH18001   3.325   1.902   2.385
    1SIL  Si1bI18002   3.671   1.703   2.204
    1SIL  O03CV18003   3.471   1.879   2.449
    1SIL  O03CW18004   3.518   2.067   2.087
    1SIL  O03CX18005   3.332   2.014   2.268
    1SIL  O03CY18006   3.577   1.817   2.139
    1SIL  O03CZ18007   3.764   1.764   2.320
    1SIL  O03Ca18008   3.717   1.952   2.501
    1SIL  Si1bJ18009   3.325   2.354   2.023
    1SIL  Si1bK18010   3.079   2.328   2.385
    1SIL  Si1bL18011   3.425   2.128   2.204
    1SIL  O03Cb18012   3.225   2.304   2.449
    1SIL  O03Cc18013   3.273   2.493   2.087
    1SIL  O03Cd18014   3.086   2.439   2.268
    1SIL  O03Ce18015   3.332   2.243   2.139
    1SIL  O03Cf18016   3.518   2.190   2.320
    1SIL  O03Cg18017   3.471   2.378   2.501
    1SIL  Si1bM18018   3.079   2.780   2.023
    1SIL  Si1bN18019   2.834   2.753   2.385
    1SIL  Si1bO18020   3.179   2.554   2.204
    1SIL  O03Ch18021   2.980   2.730   2.449
    1SIL  O03Ci18022   3.027   2.918   2.087
    1SIL  O03Cj18023   2.840   2.865   2.268
    1SIL  O03Ck18024   3.086   2.668   2.139
    1SIL  O03Cl18025   3.273   2.615   2.320
    1SIL  O03Cm18026   3.225   2.804   2.501
    1SIL  Si1bP18027   2.834   3.206   2.023
    1SIL  Si1bQ18028   2.588   3.179   2.385
    1SIL  Si1bR18029   2.934   2.980   2.204
    1SIL  O03Cn18030   2.734   3.156   2.449
    1SIL  O03Co18031   2.781   3.344   2.087
    1SIL  O03Cp18032   2.595   3.291   2.268
    1SIL  O03Cq18033   2.840   3.094   2.139
    1SIL  O03Cr18034   3.027   3.041   2.320
    1SIL  O03Cs18035   2.980   3.229   2.501
    1SIL  Si1bS18036   2.588   3.631   2.023
    1SIL  Si1bT18037   2.342   3.605   2.385
    1SIL  Si1bU18038   2.688   3.405   2.204
    1SIL  O03Ct18039   2.488   3.581   2.449
    1SIL  O03Cu18040   2.535   3.769   2.087
    1SIL  O03Cv18041   2.349   3.716   2.268
    1SIL  O03Cw18042   2.595   3.520   2.139
    1SIL  O03Cx18043   2.781   3.467   2.320
    1SIL  O03Cy18044   2.734   3.655   2.501
    1SIL  Si1bV18045   2.342   4.057   2.023
    1SIL  Si1bW18046   2.097   4.030   2.385
    1SIL  Si1bX18047   2.442   3.831   2.204
    1SIL  O03Cz18048   2.242   4.007   2.449
    1SIL  O03D018049   2.290   4.195   2.087
    1SIL  O03D118050   2.103   4.142   2.268
    1SIL  O03D218051   2.349   3.945   2.139
    1SIL  O03D318052   2.535   3.892   2.320
    1SIL  O03D418053   2.488   4.081   2.501
    1SIL  Si1bY18054   2.097   4.483   2.023
    1SIL  Si1bZ18055   1.851   4.456   2.385
    1SIL  Si1ba18056   2.196   4.256   2.204
    1SIL  O03D518057   1.997   4.432   2.449
    1SIL  O03D618058   2.044   4.621   2.087
    1SIL  O03D718059   1.857   4.568   2.268
    1SIL  O03D818060   2.103   4.371   2.139
    1SIL  O03D918061   2.290   4.318   2.320
    1SIL  O03DA18062   2.242   4.506   2.501
    1SIL  Si1bb18063   1.851   4.908   2.023
    1SIL  Si1bc18064   1.605   4.882   2.385
    1SIL  Si1bd18065   1.951   4.682   2.204
    1SIL  O03DB18066   1.751   4.858   2.449
    1SIL  O03DC18067   1.798   5.046   2.087
    1SIL  O03DD18068   1.612   4.993   2.268
    1SIL  O03DE18069   1.857   4.797   2.139
    1SIL  O03DF18070   2.044   4.744   2.320
    1SIL  O03DG18071   1.997   4.932   2.501
    1SIL  Si1be18072   1.605   5.334   2.023
    1SIL  Si1bf18073   1.359   5.307   2.385
    1SIL  Si1bg18074   1.705   5.108   2.204
    1SIL  O03DH18075   1.505   5.284   2.449
    1SIL  O03DI18076   1.552   5.472   2.087
    1SIL  O03DJ18077   1.366   5.419   2.268
    1SIL  O03DK18078   1.612   5.222   2.139
    1SIL  O03DL18079   1.798   5.169   2.320
    1SIL  O03DM18080   1.751   5.357   2.501
    1SIL  Si1bh18081   1.359   5.759   2.023
    1SIL  Si1bi18082   1.114   5.733   2.385
    1SIL  Si1bj18083   1.459   5.533   2.204
    1SIL  O03DN18084   1.259   5.709   2.449
    1SIL  O03DO18085   1.307   5.898   2.087
    1SIL  O03DP18086   1.120   5.844   2.268
    1SIL  O03DQ18087   1.366   5.648   2.139
    1SIL  O03DR18088   1.552   5.595   2.320
    1SIL  O03DS18089   1.505   5.783   2.501
    1SIL  Si1bk18090   1.114   6.185   2.023
    1SIL  Si1bl18091   0.868   6.159   2.385
    1SIL  Si1bm18092   1.213   5.959   2.204
    1SIL  O03DT18093   1.014   6.135   2.449
    1SIL  O03DU18094   1.061   6.323   2.087
    1SIL  O03DV18095   0.874   6.270   2.268
    1SIL  O03DW18096   1.120   6.074   2.139
    1SIL  O03DX18097   1.307   6.020   2.320
    1SIL  O03DY18098   1.259   6.209   2.501
    1SIL  Si1bn18099   0.868   6.611   2.023
    1SIL  Si1bo18100   0.622   6.584   2.385
    1SIL  Si1bp18101   0.968   6.385   2.204
    1SIL  O03DZ18102   0.768   6.561   2.449
    1SIL  O03Da18103   0.815   6.749   2.087
    1SIL  O03Db18104   0.629   6.696   2.268
    1SIL  O03Dc18105   0.874   6.499   2.139
    1SIL  O03Dd18106   1.061   6.446   2.320
    1SIL  O03De18107   1.014   6.634   2.501
    1SIL  Si1bq18108   0.622   7.036   2.023
    1SIL  Si1br18109   0.376   7.010   2.385
    1SIL  Si1bs18110   0.722   6.810   2.204
    1SIL  O03Df18111   0.522   6.986   2.449
    1SIL  O03Dg18112   0.569   7.175   2.087
    1SIL  O03Dh18113   0.383   7.121   2.268
    1SIL  O03Di18114   0.629   6.925   2.139
    1SIL  O03Dj18115   0.815   6.872   2.320
    1SIL  O03Dk18116   0.768   7.060   2.501
    1SIL  Si1bt18117   0.376   7.462   2.023
    1SIL  Si1bu18118   0.131   7.436   2.385
    1SIL  Si1bv18119   0.476   7.236   2.204
    1SIL  O03Dl18120   0.276   7.412   2.449
    1SIL  O03Dm18121   0.324   7.600   2.087
    1SIL  O03Dn18122   0.137   7.547   2.268
    1SIL  O03Do18123   0.383   7.351   2.139
    1SIL  O03Dp18124   0.569   7.297   2.320
    1SIL  O03Dq18125   0.522   7.486   2.501
    1SIL  Si1bw18126   0.131   7.888   2.023
    1SIL  Si1bx18127   9.715   7.861   2.385
    1SIL  Si1by18128   0.230   7.662   2.204
    1SIL  O03Dr18129   0.031   7.838   2.449
    1SIL  O03Ds18130   0.078   8.026   2.087
    1SIL  O03Dt18131   9.721   7.973   2.268
    1SIL  O03Du18132   0.137   7.776   2.139
    1SIL  O03Dv18133   0.324   7.723   2.320
    1SIL  O03Dw18134   0.276   7.911   2.501
    1SIL  Si1bz18135   9.715   8.313   2.023
    1SIL  Si1c018136   9.469   8.287   2.385
    1SIL  Si1c118137   9.815   8.087   2.204
    1SIL  O03Dx18138   9.615   8.263   2.449
    1SIL  O03Dy18139   9.662   8.452   2.087
    1SIL  O03Dz18140   9.475   8.398   2.268
    1SIL  O03E018141   9.721   8.202   2.139
    1SIL  O03E118142   0.078   8.149   2.320
    1SIL  O03E218143   0.031   8.337   2.501
    1SIL  Si1c218144   9.469   8.739   2.023
    1SIL  Si1c318145   9.223   8.713   2.385
    1SIL  Si1c418146   9.569   8.513   2.204
    1SIL  O03E318147   9.369   8.689   2.449
    1SIL  O03E418148   9.416   8.877   2.087
    1SIL  O03E518149   9.230   8.824   2.268
    1SIL  O03E618150   9.475   8.628   2.139
    1SIL  O03E718151   9.662   8.574   2.320
    1SIL  O03E818152   9.615   8.763   2.501
    1SIL  Si1c518153   9.223   9.165   2.023
    1SIL  Si1c618154   8.977   9.138   2.385
    1SIL  Si1c718155   9.323   8.939   2.204
    1SIL  O03E918156   9.123   9.115   2.449
    1SIL  O03EA18157   9.171   9.303   2.087
    1SIL  O03EB18158   8.984   9.250   2.268
    1SIL  O03EC18159   9.230   9.053   2.139
    1SIL  O03ED18160   9.416   9.000   2.320
    1SIL  O03EE18161   9.369   9.188   2.501
    1SIL  Si1c818162   8.977   9.590   2.023
    1SIL  Si1c918163   8.732   9.564   2.385
    1SIL  Si1cA18164   9.077   9.364   2.204
    1SIL  O03EF18165   8.878   9.540   2.449
    1SIL  O03EG18166   8.925   9.729   2.087
    1SIL  O03EH18167   8.738   9.675   2.268
    1SIL  O03EI18168   8.984   9.479   2.139
    1SIL  O03EJ18169   9.171   9.426   2.320
    1SIL  O03EK18170   9.123   9.614   2.501
    1SIL  Si1cB18171   5.045   0.226   2.023
    1SIL  Si1cC18172   4.800   0.200   2.385
    1SIL  Si1cD18173   5.145   0.000   2.204
    1SIL  O03EL18174   4.946   0.176   2.449
    1SIL  O03EM18175   4.993   0.364   2.087
    1SIL  O03EN18176   4.806   0.311   2.268
    1SIL  O03EO18177   5.052   0.115   2.139
    1SIL  O03EP18178   5.239   0.061   2.320
    1SIL  O03EQ18179   5.191   0.250   2.501
    1SIL  Si1cE18180   4.800   0.652   2.023
    1SIL  Si1cF18181   4.554   0.625   2.385
    1SIL  Si1cG18182   4.900   0.426   2.204
    1SIL  O03ER18183   4.700   0.602   2.449
    1SIL  O03ES18184   4.747   0.790   2.087
    1SIL  O03ET18185   4.560   0.737   2.268
    1SIL  O03EU18186   4.806   0.540   2.139
    1SIL  O03EV18187   4.993   0.487   2.320
    1SIL  O03EW18188   4.946   0.675   2.501
    1SIL  Si1cH18189   4.554   1.077   2.023
    1SIL  Si1cI18190   4.308   1.051   2.385
    1SIL  Si1cJ18191   4.654   0.851   2.204
    1SIL  O03EX18192   4.454   1.027   2.449
    1SIL  O03EY18193   4.501   1.216   2.087
    1SIL  O03EZ18194   4.315   1.162   2.268
    1SIL  O03Ea18195   4.560   0.966   2.139
    1SIL  O03Eb18196   4.747   0.913   2.320
    1SIL  O03Ec18197   4.700   1.101   2.501
    1SIL  Si1cK18198   4.308   1.503   2.023
    1SIL  Si1cL18199   4.062   1.477   2.385
    1SIL  Si1cM18200   4.408   1.277   2.204
    1SIL  O03Ed18201   4.208   1.453   2.449
    1SIL  O03Ee18202   4.256   1.641   2.087
    1SIL  O03Ef18203   4.069   1.588   2.268
    1SIL  O03Eg18204   4.315   1.392   2.139
    1SIL  O03Eh18205   4.501   1.338   2.320
    1SIL  O03Ei18206   4.454   1.527   2.501
    1SIL  Si1cN18207   4.062   1.929   2.023
    1SIL  Si1cO18208   3.817   1.902   2.385
    1SIL  Si1cP18209   4.162   1.703   2.204
    1SIL  O03Ej18210   3.963   1.879   2.449
    1SIL  O03Ek18211   4.010   2.067   2.087
    1SIL  O03El18212   3.823   2.014   2.268
    1SIL  O03Em18213   4.069   1.817   2.139
    1SIL  O03En18214   4.256   1.764   2.320
    1SIL  O03Eo18215   4.208   1.952   2.501
    1SIL  Si1cQ18216   3.817   2.354   2.023
    1SIL  Si1cR18217   3.571   2.328   2.385
    1SIL  Si1cS18218   3.917   2.128   2.204
    1SIL  O03Ep18219   3.717   2.304   2.449
    1SIL  O03Eq18220   3.764   2.493   2.087
    1SIL  O03Er18221   3.577   2.439   2.268
    1SIL  O03Es18222   3.823   2.243   2.139
    1SIL  O03Et18223   4.010   2.190   2.320
    1SIL  O03Eu18224   3.963   2.378   2.501
    1SIL  Si1cT18225   3.571   2.780   2.023
    1SIL  Si1cU18226   3.325   2.753   2.385
    1SIL  Si1cV18227   3.671   2.554   2.204
    1SIL  O03Ev18228   3.471   2.730   2.449
    1SIL  O03Ew18229   3.518   2.918   2.087
    1SIL  O03Ex18230   3.332   2.865   2.268
    1SIL  O03Ey18231   3.577   2.668   2.139
    1SIL  O03Ez18232   3.764   2.615   2.320
    1SIL  O03F018233   3.717   2.804   2.501
    1SIL  Si1cW18234   3.325   3.206   2.023
    1SIL  Si1cX18235   3.079   3.179   2.385
    1SIL  Si1cY18236   3.425   2.980   2.204
    1SIL  O03F118237   3.225   3.156   2.449
    1SIL  O03F218238   3.273   3.344   2.087
    1SIL  O03F318239   3.086   3.291   2.268
    1SIL  O03F418240   3.332   3.094   2.139
    1SIL  O03F518241   3.518   3.041   2.320
    1SIL  O03F618242   3.471   3.229   2.501
    1SIL  Si1cZ18243   3.079   3.631   2.023
    1SIL  Si1ca18244   2.834   3.605   2.385
    1SIL  Si1cb18245   3.179   3.405   2.204
    1SIL  O03F718246   2.980   3.581   2.449
    1SIL  O03F818247   3.027   3.769   2.087
    1SIL  O03F918248   2.840   3.716   2.268
    1SIL  O03FA18249   3.086   3.520   2.139
    1SIL  O03FB18250   3.273   3.467   2.320
    1SIL  O03FC18251   3.225   3.655   2.501
    1SIL  Si1cc18252   2.834   4.057   2.023
    1SIL  Si1cd18253   2.588   4.030   2.385
    1SIL  Si1ce18254   2.934   3.831   2.204
    1SIL  O03FD18255   2.734   4.007   2.449
    1SIL  O03FE18256   2.781   4.195   2.087
    1SIL  O03FF18257   2.595   4.142   2.268
    1SIL  O03FG18258   2.840   3.945   2.139
    1SIL  O03FH18259   3.027   3.892   2.320
    1SIL  O03FI18260   2.980   4.081   2.501
    1SIL  Si1cf18261   2.588   4.483   2.023
    1SIL  Si1cg18262   2.342   4.456   2.385
    1SIL  Si1ch18263   2.688   4.256   2.204
    1SIL  O03FJ18264   2.488   4.432   2.449
    1SIL  O03FK18265   2.535   4.621   2.087
    1SIL  O03FL18266   2.349   4.568   2.268
    1SIL  O03FM18267   2.595   4.371   2.139
    1SIL  O03FN18268   2.781   4.318   2.320
    1SIL  O03FO18269   2.734   4.506   2.501
    1SIL  Si1ci18270   2.342   4.908   2.023
    1SIL  Si1cj18271   2.097   4.882   2.385
    1SIL  Si1ck18272   2.442   4.682   2.204
    1SIL  O03FP18273   2.242   4.858   2.449
    1SIL  O03FQ18274   2.290   5.046   2.087
    1SIL  O03FR18275   2.103   4.993   2.268
    1SIL  O03FS18276   2.349   4.797   2.139
    1SIL  O03FT18277   2.535   4.744   2.320
    1SIL  O03FU18278   2.488   4.932   2.501
    1SIL  Si1cl18279   2.097   5.334   2.023
    1SIL  Si1cm18280   1.851   5.307   2.385
    1SIL  Si1cn18281   2.196   5.108   2.204
    1SIL  O03FV18282   1.997   5.284   2.449
    1SIL  O03FW18283   2.044   5.472   2.087
    1SIL  O03FX18284   1.857   5.419   2.268
    1SIL  O03FY18285   2.103   5.222   2.139
    1SIL  O03FZ18286   2.290   5.169   2.320
    1SIL  O03Fa18287   2.242   5.357   2.501
    1SIL  Si1co18288   1.851   5.759   2.023
    1SIL  Si1cp18289   1.605   5.733   2.385
    1SIL  Si1cq18290   1.951   5.533   2.204
    1SIL  O03Fb18291   1.751   5.709   2.449
    1SIL  O03Fc18292   1.798   5.898   2.087
    1SIL  O03Fd18293   1.612   5.844   2.268
    1SIL  O03Fe18294   1.857   5.648   2.139
    1SIL  O03Ff18295   2.044   5.595   2.320
    1SIL  O03Fg18296   1.997   5.783   2.501
    1SIL  Si1cr18297   1.605   6.185   2.023
    1SIL  Si1cs18298   1.359   6.159   2.385
    1SIL  Si1ct18299   1.705   5.959   2.204
    1SIL  O03Fh18300   1.505   6.135   2.449
    1SIL  O03Fi18301   1.552   6.323   2.087
    1SIL  O03Fj18302   1.366   6.270   2.268
    1SIL  O03Fk18303   1.612   6.074   2.139
    1SIL  O03Fl18304   1.798   6.020   2.320
    1SIL  O03Fm18305   1.751   6.209   2.501
    1SIL  Si1cu18306   1.359   6.611   2.023
    1SIL  Si1cv18307   1.114   6.584   2.385
    1SIL  Si1cw18308   1.459   6.385   2.204
    1SIL  O03Fn18309   1.259   6.561   2.449
    1SIL  O03Fo18310   1.307   6.749   2.087
    1SIL  O03Fp18311   1.120   6.696   2.268
    1SIL  O03Fq18312   1.366   6.499   2.139
    1SIL  O03Fr18313   1.552   6.446   2.320
    1SIL  O03Fs18314   1.505   6.634   2.501
    1SIL  Si1cx18315   1.114   7.036   2.023
    1SIL  Si1cy18316   0.868   7.010   2.385
    1SIL  Si1cz18317   1.213   6.810   2.204
    1SIL  O03Ft18318   1.014   6.986   2.449
    1SIL  O03Fu18319   1.061   7.175   2.087
    1SIL  O03Fv18320   0.874   7.121   2.268
    1SIL  O03Fw18321   1.120   6.925   2.139
    1SIL  O03Fx18322   1.307   6.872   2.320
    1SIL  O03Fy18323   1.259   7.060   2.501
    1SIL  Si1d018324   0.868   7.462   2.023
    1SIL  Si1d118325   0.622   7.436   2.385
    1SIL  Si1d218326   0.968   7.236   2.204
    1SIL  O03Fz18327   0.768   7.412   2.449
    1SIL  O03G018328   0.815   7.600   2.087
    1SIL  O03G118329   0.629   7.547   2.268
    1SIL  O03G218330   0.874   7.351   2.139
    1SIL  O03G318331   1.061   7.297   2.320
    1SIL  O03G418332   1.014   7.486   2.501
    1SIL  Si1d318333   0.622   7.888   2.023
    1SIL  Si1d418334   0.376   7.861   2.385
    1SIL  Si1d518335   0.722   7.662   2.204
    1SIL  O03G518336   0.522   7.838   2.449
    1SIL  O03G618337   0.569   8.026   2.087
    1SIL  O03G718338   0.383   7.973   2.268
    1SIL  O03G818339   0.629   7.776   2.139
    1SIL  O03G918340   0.815   7.723   2.320
    1SIL  O03GA18341   0.768   7.911   2.501
    1SIL  Si1d618342   0.376   8.313   2.023
    1SIL  Si1d718343   0.131   8.287   2.385
    1SIL  Si1d818344   0.476   8.087   2.204
    1SIL  O03GB18345   0.276   8.263   2.449
    1SIL  O03GC18346   0.324   8.452   2.087
    1SIL  O03GD18347   0.137   8.398   2.268
    1SIL  O03GE18348   0.383   8.202   2.139
    1SIL  O03GF18349   0.569   8.149   2.320
    1SIL  O03GG18350   0.522   8.337   2.501
    1SIL  Si1d918351   0.131   8.739   2.023
    1SIL  Si1dA18352   9.715   8.713   2.385
    1SIL  Si1dB18353   0.230   8.513   2.204
    1SIL  O03GH18354   0.031   8.689   2.449
    1SIL  O03GI18355   0.078   8.877   2.087
    1SIL  O03GJ18356   9.721   8.824   2.268
    1SIL  O03GK18357   0.137   8.628   2.139
    1SIL  O03GL18358   0.324   8.574   2.320
    1SIL  O03GM18359   0.276   8.763   2.501
    1SIL  Si1dC18360   9.715   9.165   2.023
    1SIL  Si1dD18361   9.469   9.138   2.385
    1SIL  Si1dE18362   9.815   8.939   2.204
    1SIL  O03GN18363   9.615   9.115   2.449
    1SIL  O03GO18364   9.662   9.303   2.087
    1SIL  O03GP18365   9.475   9.250   2.268
    1SIL  O03GQ18366   9.721   9.053   2.139
    1SIL  O03GR18367   0.078   9.000   2.320
    1SIL  O03GS18368   0.031   9.188   2.501
    1SIL  Si1dF18369   9.469   9.590   2.023
    1SIL  Si1dG18370   9.223   9.564   2.385
    1SIL  Si1dH18371   9.569   9.364   2.204
    1SIL  O03GT18372   9.369   9.540   2.449
    1SIL  O03GU18373   9.416   9.729   2.087
    1SIL  O03GV18374   9.230   9.675   2.268
    1SIL  O03GW18375   9.475   9.479   2.139
    1SIL  O03GX18376   9.662   9.426   2.320
    1SIL  O03GY18377   9.615   9.614   2.501
    1SIL  Si1dI18378   5.537   0.226   2.023
    1SIL  Si1dJ18379   5.291   0.200   2.385
    1SIL  Si1dK18380   5.637   0.000   2.204
    1SIL  O03GZ18381   5.437   0.176   2.449
    1SIL  O03Ga18382   5.484   0.364   2.087
    1SIL  O03Gb18383   5.298   0.311   2.268
    1SIL  O03Gc18384   5.543   0.115   2.139
    1SIL  O03Gd18385   5.730   0.061   2.320
    1SIL  O03Ge18386   5.683   0.250   2.501
    1SIL  Si1dL18387   5.291   0.652   2.023
    1SIL  Si1dM18388   5.045   0.625   2.385
    1SIL  Si1dN18389   5.391   0.426   2.204
    1SIL  O03Gf18390   5.191   0.602   2.449
    1SIL  O03Gg18391   5.239   0.790   2.087
    1SIL  O03Gh18392   5.052   0.737   2.268
    1SIL  O03Gi18393   5.298   0.540   2.139
    1SIL  O03Gj18394   5.484   0.487   2.320
    1SIL  O03Gk18395   5.437   0.675   2.501
    1SIL  Si1dO18396   5.045   1.077   2.023
    1SIL  Si1dP18397   4.800   1.051   2.385
    1SIL  Si1dQ18398   5.145   0.851   2.204
    1SIL  O03Gl18399   4.946   1.027   2.449
    1SIL  O03Gm18400   4.993   1.216   2.087
    1SIL  O03Gn18401   4.806   1.162   2.268
    1SIL  O03Go18402   5.052   0.966   2.139
    1SIL  O03Gp18403   5.239   0.913   2.320
    1SIL  O03Gq18404   5.191   1.101   2.501
    1SIL  Si1dR18405   4.800   1.503   2.023
    1SIL  Si1dS18406   4.554   1.477   2.385
    1SIL  Si1dT18407   4.900   1.277   2.204
    1SIL  O03Gr18408   4.700   1.453   2.449
    1SIL  O03Gs18409   4.747   1.641   2.087
    1SIL  O03Gt18410   4.560   1.588   2.268
    1SIL  O03Gu18411   4.806   1.392   2.139
    1SIL  O03Gv18412   4.993   1.338   2.320
    1SIL  O03Gw18413   4.946   1.527   2.501
    1SIL  Si1dU18414   4.554   1.929   2.023
    1SIL  Si1dV18415   4.308   1.902   2.385
    1SIL  Si1dW18416   4.654   1.703   2.204
    1SIL  O03Gx18417   4.454   1.879   2.449
    1SIL  O03Gy18418   4.501   2.067   2.087
    1SIL  O03Gz18419   4.315   2.014   2.268
    1SIL  O03H018420   4.560   1.817   2.139
    1SIL  O03H118421   4.747   1.764   2.320
    1SIL  O03H218422   4.700   1.952   2.501
    1SIL  Si1dX18423   4.308   2.354   2.023
    1SIL  Si1dY18424   4.062   2.328   2.385
    1SIL  Si1dZ18425   4.408   2.128   2.204
    1SIL  O03H318426   4.208   2.304   2.449
    1SIL  O03H418427   4.256   2.493   2.087
    1SIL  O03H518428   4.069   2.439   2.268
    1SIL  O03H618429   4.315   2.243   2.139
    1SIL  O03H718430   4.501   2.190   2.320
    1SIL  O03H818431   4.454   2.378   2.501
    1SIL  Si1da18432   4.062   2.780   2.023
    1SIL  Si1db18433   3.817   2.753   2.385
    1SIL  Si1dc18434   4.162   2.554   2.204
    1SIL  O03H918435   3.963   2.730   2.449
    1SIL  O03HA18436   4.010   2.918   2.087
    1SIL  O03HB18437   3.823   2.865   2.268
    1SIL  O03HC18438   4.069   2.668   2.139
    1SIL  O03HD18439   4.256   2.615   2.320
    1SIL  O03HE18440   4.208   2.804   2.501
    1SIL  Si1dd18441   3.817   3.206   2.023
    1SIL  Si1de18442   3.571   3.179   2.385
    1SIL  Si1df18443   3.917   2.980   2.204
    1SIL  O03HF18444   3.717   3.156   2.449
    1SIL  O03HG18445   3.764   3.344   2.087
    1SIL  O03HH18446   3.577   3.291   2.268
    1SIL  O03HI18447   3.823   3.094   2.139
    1SIL  O03HJ18448   4.010   3.041   2.320
    1SIL  O03HK18449   3.963   3.229   2.501
    1SIL  Si1dg18450   3.571   3.631   2.023
    1SIL  Si1dh18451   3.325   3.605   2.385
    1SIL  Si1di18452   3.671   3.405   2.204
    1SIL  O03HL18453   3.471   3.581   2.449
    1SIL  O03HM18454   3.518   3.769   2.087
    1SIL  O03HN18455   3.332   3.716   2.268
    1SIL  O03HO18456   3.577   3.520   2.139
    1SIL  O03HP18457   3.764   3.467   2.320
    1SIL  O03HQ18458   3.717   3.655   2.501
    1SIL  Si1dj18459   3.325   4.057   2.023
    1SIL  Si1dk18460   3.079   4.030   2.385
    1SIL  Si1dl18461   3.425   3.831   2.204
    1SIL  O03HR18462   3.225   4.007   2.449
    1SIL  O03HS18463   3.273   4.195   2.087
    1SIL  O03HT18464   3.086   4.142   2.268
    1SIL  O03HU18465   3.332   3.945   2.139
    1SIL  O03HV18466   3.518   3.892   2.320
    1SIL  O03HW18467   3.471   4.081   2.501
    1SIL  Si1dm18468   3.079   4.483   2.023
    1SIL  Si1dn18469   2.834   4.456   2.385
    1SIL  Si1do18470   3.179   4.256   2.204
    1SIL  O03HX18471   2.980   4.432   2.449
    1SIL  O03HY18472   3.027   4.621   2.087
    1SIL  O03HZ18473   2.840   4.568   2.268
    1SIL  O03Ha18474   3.086   4.371   2.139
    1SIL  O03Hb18475   3.273   4.318   2.320
    1SIL  O03Hc18476   3.225   4.506   2.501
    1SIL  Si1dp18477   2.834   4.908   2.023
    1SIL  Si1dq18478   2.588   4.882   2.385
    1SIL  Si1dr18479   2.934   4.682   2.204
    1SIL  O03Hd18480   2.734   4.858   2.449
    1SIL  O03He18481   2.781   5.046   2.087
    1SIL  O03Hf18482   2.595   4.993   2.268
    1SIL  O03Hg18483   2.840   4.797   2.139
    1SIL  O03Hh18484   3.027   4.744   2.320
    1SIL  O03Hi18485   2.980   4.932   2.501
    1SIL  Si1ds18486   2.588   5.334   2.023
    1SIL  Si1dt18487   2.342   5.307   2.385
    1SIL  Si1du18488   2.688   5.108   2.204
    1SIL  O03Hj18489   2.488   5.284   2.449
    1SIL  O03Hk18490   2.535   5.472   2.087
    1SIL  O03Hl18491   2.349   5.419   2.268
    1SIL  O03Hm18492   2.595   5.222   2.139
    1SIL  O03Hn18493   2.781   5.169   2.320
    1SIL  O03Ho18494   2.734   5.357   2.501
    1SIL  Si1dv18495   2.342   5.759   2.023
    1SIL  Si1dw18496   2.097   5.733   2.385
    1SIL  Si1dx18497   2.442   5.533   2.204
    1SIL  O03Hp18498   2.242   5.709   2.449
    1SIL  O03Hq18499   2.290   5.898   2.087
    1SIL  O03Hr18500   2.103   5.844   2.268
    1SIL  O03Hs18501   2.349   5.648   2.139
    1SIL  O03Ht18502   2.535   5.595   2.320
    1SIL  O03Hu18503   2.488   5.783   2.501
    1SIL  Si1dy18504   2.097   6.185   2.023
    1SIL  Si1dz18505   1.851   6.159   2.385
    1SIL  Si1e018506   2.196   5.959   2.204
    1SIL  O03Hv18507   1.997   6.135   2.449
    1SIL  O03Hw18508   2.044   6.323   2.087
    1SIL  O03Hx18509   1.857   6.270   2.268
    1SIL  O03Hy18510   2.103   6.074   2.139
    1SIL  O03Hz18511   2.290   6.020   2.320
    1SIL  O03I018512   2.242   6.209   2.501
    1SIL  Si1e118513   1.851   6.611   2.023
    1SIL  Si1e218514   1.605   6.584   2.385
    1SIL  Si1e318515   1.951   6.385   2.204
    1SIL  O03I118516   1.751   6.561   2.449
    1SIL  O03I218517   1.798   6.749   2.087
    1SIL  O03I318518   1.612   6.696   2.268
    1SIL  O03I418519   1.857   6.499   2.139
    1SIL  O03I518520   2.044   6.446   2.320
    1SIL  O03I618521   1.997   6.634   2.501
    1SIL  Si1e418522   1.605   7.036   2.023
    1SIL  Si1e518523   1.359   7.010   2.385
    1SIL  Si1e618524   1.705   6.810   2.204
    1SIL  O03I718525   1.505   6.986   2.449
    1SIL  O03I818526   1.552   7.175   2.087
    1SIL  O03I918527   1.366   7.121   2.268
    1SIL  O03IA18528   1.612   6.925   2.139
    1SIL  O03IB18529   1.798   6.872   2.320
    1SIL  O03IC18530   1.751   7.060   2.501
    1SIL  Si1e718531   1.359   7.462   2.023
    1SIL  Si1e818532   1.114   7.436   2.385
    1SIL  Si1e918533   1.459   7.236   2.204
    1SIL  O03ID18534   1.259   7.412   2.449
    1SIL  O03IE18535   1.307   7.600   2.087
    1SIL  O03IF18536   1.120   7.547   2.268
    1SIL  O03IG18537   1.366   7.351   2.139
    1SIL  O03IH18538   1.552   7.297   2.320
    1SIL  O03II18539   1.505   7.486   2.501
    1SIL  Si1eA18540   1.114   7.888   2.023
    1SIL  Si1eB18541   0.868   7.861   2.385
    1SIL  Si1eC18542   1.213   7.662   2.204
    1SIL  O03IJ18543   1.014   7.838   2.449
    1SIL  O03IK18544   1.061   8.026   2.087
    1SIL  O03IL18545   0.874   7.973   2.268
    1SIL  O03IM18546   1.120   7.776   2.139
    1SIL  O03IN18547   1.307   7.723   2.320
    1SIL  O03IO18548   1.259   7.911   2.501
    1SIL  Si1eD18549   0.868   8.313   2.023
    1SIL  Si1eE18550   0.622   8.287   2.385
    1SIL  Si1eF18551   0.968   8.087   2.204
    1SIL  O03IP18552   0.768   8.263   2.449
    1SIL  O03IQ18553   0.815   8.452   2.087
    1SIL  O03IR18554   0.629   8.398   2.268
    1SIL  O03IS18555   0.874   8.202   2.139
    1SIL  O03IT18556   1.061   8.149   2.320
    1SIL  O03IU18557   1.014   8.337   2.501
    1SIL  Si1eG18558   0.622   8.739   2.023
    1SIL  Si1eH18559   0.376   8.713   2.385
    1SIL  Si1eI18560   0.722   8.513   2.204
    1SIL  O03IV18561   0.522   8.689   2.449
    1SIL  O03IW18562   0.569   8.877   2.087
    1SIL  O03IX18563   0.383   8.824   2.268
    1SIL  O03IY18564   0.629   8.628   2.139
    1SIL  O03IZ18565   0.815   8.574   2.320
    1SIL  O03Ia18566   0.768   8.763   2.501
    1SIL  Si1eJ18567   0.376   9.165   2.023
    1SIL  Si1eK18568   0.131   9.138   2.385
    1SIL  Si1eL18569   0.476   8.939   2.204
    1SIL  O03Ib18570   0.276   9.115   2.449
    1SIL  O03Ic18571   0.324   9.303   2.087
    1SIL  O03Id18572   0.137   9.250   2.268
    1SIL  O03Ie18573   0.383   9.053   2.139
    1SIL  O03If18574   0.569   9.000   2.320
    1SIL  O03Ig18575   0.522   9.188   2.501
    1SIL  Si1eM18576   0.131   9.590   2.023
    1SIL  Si1eN18577   9.715   9.564   2.385
    1SIL  Si1eO18578   0.230   9.364   2.204
    1SIL  O03Ih18579   0.031   9.540   2.449
    1SIL  O03Ii18580   0.078   9.729   2.087
    1SIL  O03Ij18581   9.721   9.675   2.268
    1SIL  O03Ik18582   0.137   9.479   2.139
    1SIL  O03Il18583   0.324   9.426   2.320
    1SIL  O03Im18584   0.276   9.614   2.501
    1SIL  Si1eP18585   6.028   0.226   2.023
    1SIL  Si1eQ18586   5.783   0.200   2.385
    1SIL  Si1eR18587   6.128   0.000   2.204
    1SIL  O03In18588   5.929   0.176   2.449
    1SIL  O03Io18589   5.976   0.364   2.087
    1SIL  O03Ip18590   5.789   0.311   2.268
    1SIL  O03Iq18591   6.035   0.115   2.139
    1SIL  O03Ir18592   6.222   0.061   2.320
    1SIL  O03Is18593   6.174   0.250   2.501
    1SIL  Si1eS18594   5.783   0.652   2.023
    1SIL  Si1eT18595   5.537   0.625   2.385
    1SIL  Si1eU18596   5.883   0.426   2.204
    1SIL  O03It18597   5.683   0.602   2.449
    1SIL  O03Iu18598   5.730   0.790   2.087
    1SIL  O03Iv18599   5.543   0.737   2.268
    1SIL  O03Iw18600   5.789   0.540   2.139
    1SIL  O03Ix18601   5.976   0.487   2.320
    1SIL  O03Iy18602   5.929   0.675   2.501
    1SIL  Si1eV18603   5.537   1.077   2.023
    1SIL  Si1eW18604   5.291   1.051   2.385
    1SIL  Si1eX18605   5.637   0.851   2.204
    1SIL  O03Iz18606   5.437   1.027   2.449
    1SIL  O03J018607   5.484   1.216   2.087
    1SIL  O03J118608   5.298   1.162   2.268
    1SIL  O03J218609   5.543   0.966   2.139
    1SIL  O03J318610   5.730   0.913   2.320
    1SIL  O03J418611   5.683   1.101   2.501
    1SIL  Si1eY18612   5.291   1.503   2.023
    1SIL  Si1eZ18613   5.045   1.477   2.385
    1SIL  Si1ea18614   5.391   1.277   2.204
    1SIL  O03J518615   5.191   1.453   2.449
    1SIL  O03J618616   5.239   1.641   2.087
    1SIL  O03J718617   5.052   1.588   2.268
    1SIL  O03J818618   5.298   1.392   2.139
    1SIL  O03J918619   5.484   1.338   2.320
    1SIL  O03JA18620   5.437   1.527   2.501
    1SIL  Si1eb18621   5.045   1.929   2.023
    1SIL  Si1ec18622   4.800   1.902   2.385
    1SIL  Si1ed18623   5.145   1.703   2.204
    1SIL  O03JB18624   4.946   1.879   2.449
    1SIL  O03JC18625   4.993   2.067   2.087
    1SIL  O03JD18626   4.806   2.014   2.268
    1SIL  O03JE18627   5.052   1.817   2.139
    1SIL  O03JF18628   5.239   1.764   2.320
    1SIL  O03JG18629   5.191   1.952   2.501
    1SIL  Si1ee18630   4.800   2.354   2.023
    1SIL  Si1ef18631   4.554   2.328   2.385
    1SIL  Si1eg18632   4.900   2.128   2.204
    1SIL  O03JH18633   4.700   2.304   2.449
    1SIL  O03JI18634   4.747   2.493   2.087
    1SIL  O03JJ18635   4.560   2.439   2.268
    1SIL  O03JK18636   4.806   2.243   2.139
    1SIL  O03JL18637   4.993   2.190   2.320
    1SIL  O03JM18638   4.946   2.378   2.501
    1SIL  Si1eh18639   4.554   2.780   2.023
    1SIL  Si1ei18640   4.308   2.753   2.385
    1SIL  Si1ej18641   4.654   2.554   2.204
    1SIL  O03JN18642   4.454   2.730   2.449
    1SIL  O03JO18643   4.501   2.918   2.087
    1SIL  O03JP18644   4.315   2.865   2.268
    1SIL  O03JQ18645   4.560   2.668   2.139
    1SIL  O03JR18646   4.747   2.615   2.320
    1SIL  O03JS18647   4.700   2.804   2.501
    1SIL  Si1ek18648   4.308   3.206   2.023
    1SIL  Si1el18649   4.062   3.179   2.385
    1SIL  Si1em18650   4.408   2.980   2.204
    1SIL  O03JT18651   4.208   3.156   2.449
    1SIL  O03JU18652   4.256   3.344   2.087
    1SIL  O03JV18653   4.069   3.291   2.268
    1SIL  O03JW18654   4.315   3.094   2.139
    1SIL  O03JX18655   4.501   3.041   2.320
    1SIL  O03JY18656   4.454   3.229   2.501
    1SIL  Si1en18657   4.062   3.631   2.023
    1SIL  Si1eo18658   3.817   3.605   2.385
    1SIL  Si1ep18659   4.162   3.405   2.204
    1SIL  O03JZ18660   3.963   3.581   2.449
    1SIL  O03Ja18661   4.010   3.769   2.087
    1SIL  O03Jb18662   3.823   3.716   2.268
    1SIL  O03Jc18663   4.069   3.520   2.139
    1SIL  O03Jd18664   4.256   3.467   2.320
    1SIL  O03Je18665   4.208   3.655   2.501
    1SIL  Si1eq18666   3.817   4.057   2.023
    1SIL  Si1er18667   3.571   4.030   2.385
    1SIL  Si1es18668   3.917   3.831   2.204
    1SIL  O03Jf18669   3.717   4.007   2.449
    1SIL  O03Jg18670   3.764   4.195   2.087
    1SIL  O03Jh18671   3.577   4.142   2.268
    1SIL  O03Ji18672   3.823   3.945   2.139
    1SIL  O03Jj18673   4.010   3.892   2.320
    1SIL  O03Jk18674   3.963   4.081   2.501
    1SIL  Si1et18675   3.571   4.483   2.023
    1SIL  Si1eu18676   3.325   4.456   2.385
    1SIL  Si1ev18677   3.671   4.256   2.204
    1SIL  O03Jl18678   3.471   4.432   2.449
    1SIL  O03Jm18679   3.518   4.621   2.087
    1SIL  O03Jn18680   3.332   4.568   2.268
    1SIL  O03Jo18681   3.577   4.371   2.139
    1SIL  O03Jp18682   3.764   4.318   2.320
    1SIL  O03Jq18683   3.717   4.506   2.501
    1SIL  Si1ew18684   3.325   4.908   2.023
    1SIL  Si1ex18685   3.079   4.882   2.385
    1SIL  Si1ey18686   3.425   4.682   2.204
    1SIL  O03Jr18687   3.225   4.858   2.449
    1SIL  O03Js18688   3.273   5.046   2.087
    1SIL  O03Jt18689   3.086   4.993   2.268
    1SIL  O03Ju18690   3.332   4.797   2.139
    1SIL  O03Jv18691   3.518   4.744   2.320
    1SIL  O03Jw18692   3.471   4.932   2.501
    1SIL  Si1ez18693   3.079   5.334   2.023
    1SIL  Si1f018694   2.834   5.307   2.385
    1SIL  Si1f118695   3.179   5.108   2.204
    1SIL  O03Jx18696   2.980   5.284   2.449
    1SIL  O03Jy18697   3.027   5.472   2.087
    1SIL  O03Jz18698   2.840   5.419   2.268
    1SIL  O03K018699   3.086   5.222   2.139
    1SIL  O03K118700   3.273   5.169   2.320
    1SIL  O03K218701   3.225   5.357   2.501
    1SIL  Si1f218702   2.834   5.759   2.023
    1SIL  Si1f318703   2.588   5.733   2.385
    1SIL  Si1f418704   2.934   5.533   2.204
    1SIL  O03K318705   2.734   5.709   2.449
    1SIL  O03K418706   2.781   5.898   2.087
    1SIL  O03K518707   2.595   5.844   2.268
    1SIL  O03K618708   2.840   5.648   2.139
    1SIL  O03K718709   3.027   5.595   2.320
    1SIL  O03K818710   2.980   5.783   2.501
    1SIL  Si1f518711   2.588   6.185   2.023
    1SIL  Si1f618712   2.342   6.159   2.385
    1SIL  Si1f718713   2.688   5.959   2.204
    1SIL  O03K918714   2.488   6.135   2.449
    1SIL  O03KA18715   2.535   6.323   2.087
    1SIL  O03KB18716   2.349   6.270   2.268
    1SIL  O03KC18717   2.595   6.074   2.139
    1SIL  O03KD18718   2.781   6.020   2.320
    1SIL  O03KE18719   2.734   6.209   2.501
    1SIL  Si1f818720   2.342   6.611   2.023
    1SIL  Si1f918721   2.097   6.584   2.385
    1SIL  Si1fA18722   2.442   6.385   2.204
    1SIL  O03KF18723   2.242   6.561   2.449
    1SIL  O03KG18724   2.290   6.749   2.087
    1SIL  O03KH18725   2.103   6.696   2.268
    1SIL  O03KI18726   2.349   6.499   2.139
    1SIL  O03KJ18727   2.535   6.446   2.320
    1SIL  O03KK18728   2.488   6.634   2.501
    1SIL  Si1fB18729   2.097   7.036   2.023
    1SIL  Si1fC18730   1.851   7.010   2.385
    1SIL  Si1fD18731   2.196   6.810   2.204
    1SIL  O03KL18732   1.997   6.986   2.449
    1SIL  O03KM18733   2.044   7.175   2.087
    1SIL  O03KN18734   1.857   7.121   2.268
    1SIL  O03KO18735   2.103   6.925   2.139
    1SIL  O03KP18736   2.290   6.872   2.320
    1SIL  O03KQ18737   2.242   7.060   2.501
    1SIL  Si1fE18738   1.851   7.462   2.023
    1SIL  Si1fF18739   1.605   7.436   2.385
    1SIL  Si1fG18740   1.951   7.236   2.204
    1SIL  O03KR18741   1.751   7.412   2.449
    1SIL  O03KS18742   1.798   7.600   2.087
    1SIL  O03KT18743   1.612   7.547   2.268
    1SIL  O03KU18744   1.857   7.351   2.139
    1SIL  O03KV18745   2.044   7.297   2.320
    1SIL  O03KW18746   1.997   7.486   2.501
    1SIL  Si1fH18747   1.605   7.888   2.023
    1SIL  Si1fI18748   1.359   7.861   2.385
    1SIL  Si1fJ18749   1.705   7.662   2.204
    1SIL  O03KX18750   1.505   7.838   2.449
    1SIL  O03KY18751   1.552   8.026   2.087
    1SIL  O03KZ18752   1.366   7.973   2.268
    1SIL  O03Ka18753   1.612   7.776   2.139
    1SIL  O03Kb18754   1.798   7.723   2.320
    1SIL  O03Kc18755   1.751   7.911   2.501
    1SIL  Si1fK18756   1.359   8.313   2.023
    1SIL  Si1fL18757   1.114   8.287   2.385
    1SIL  Si1fM18758   1.459   8.087   2.204
    1SIL  O03Kd18759   1.259   8.263   2.449
    1SIL  O03Ke18760   1.307   8.452   2.087
    1SIL  O03Kf18761   1.120   8.398   2.268
    1SIL  O03Kg18762   1.366   8.202   2.139
    1SIL  O03Kh18763   1.552   8.149   2.320
    1SIL  O03Ki18764   1.505   8.337   2.501
    1SIL  Si1fN18765   1.114   8.739   2.023
    1SIL  Si1fO18766   0.868   8.713   2.385
    1SIL  Si1fP18767   1.213   8.513   2.204
    1SIL  O03Kj18768   1.014   8.689   2.449
    1SIL  O03Kk18769   1.061   8.877   2.087
    1SIL  O03Kl18770   0.874   8.824   2.268
    1SIL  O03Km18771   1.120   8.628   2.139
    1SIL  O03Kn18772   1.307   8.574   2.320
    1SIL  O03Ko18773   1.259   8.763   2.501
    1SIL  Si1fQ18774   0.868   9.165   2.023
    1SIL  Si1fR18775   0.622   9.138   2.385
    1SIL  Si1fS18776   0.968   8.939   2.204
    1SIL  O03Kp18777   0.768   9.115   2.449
    1SIL  O03Kq18778   0.815   9.303   2.087
    1SIL  O03Kr18779   0.629   9.250   2.268
    1SIL  O03Ks18780   0.874   9.053   2.139
    1SIL  O03Kt18781   1.061   9.000   2.320
    1SIL  O03Ku18782   1.014   9.188   2.501
    1SIL  Si1fT18783   0.622   9.590   2.023
    1SIL  Si1fU18784   0.376   9.564   2.385
    1SIL  Si1fV18785   0.722   9.364   2.204
    1SIL  O03Kv18786   0.522   9.540   2.449
    1SIL  O03Kw18787   0.569   9.729   2.087
    1SIL  O03Kx18788   0.383   9.675   2.268
    1SIL  O03Ky18789   0.629   9.479   2.139
    1SIL  O03Kz18790   0.815   9.426   2.320
    1SIL  O03L018791   0.768   9.614   2.501
    1SIL  Si1fW18792   6.520   0.226   2.023
    1SIL  Si1fX18793   6.274   0.200   2.385
    1SIL  Si1fY18794   6.620   0.000   2.204
    1SIL  O03L118795   6.420   0.176   2.449
    1SIL  O03L218796   6.467   0.364   2.087
    1SIL  O03L318797   6.281   0.311   2.268
    1SIL  O03L418798   6.526   0.115   2.139
    1SIL  O03L518799   6.713   0.061   2.320
    1SIL  O03L618800   6.666   0.250   2.501
    1SIL  Si1fZ18801   6.274   0.652   2.023
    1SIL  Si1fa18802   6.028   0.625   2.385
    1SIL  Si1fb18803   6.374   0.426   2.204
    1SIL  O03L718804   6.174   0.602   2.449
    1SIL  O03L818805   6.222   0.790   2.087
    1SIL  O03L918806   6.035   0.737   2.268
    1SIL  O03LA18807   6.281   0.540   2.139
    1SIL  O03LB18808   6.467   0.487   2.320
    1SIL  O03LC18809   6.420   0.675   2.501
    1SIL  Si1fc18810   6.028   1.077   2.023
    1SIL  Si1fd18811   5.783   1.051   2.385
    1SIL  Si1fe18812   6.128   0.851   2.204
    1SIL  O03LD18813   5.929   1.027   2.449
    1SIL  O03LE18814   5.976   1.216   2.087
    1SIL  O03LF18815   5.789   1.162   2.268
    1SIL  O03LG18816   6.035   0.966   2.139
    1SIL  O03LH18817   6.222   0.913   2.320
    1SIL  O03LI18818   6.174   1.101   2.501
    1SIL  Si1ff18819   5.783   1.503   2.023
    1SIL  Si1fg18820   5.537   1.477   2.385
    1SIL  Si1fh18821   5.883   1.277   2.204
    1SIL  O03LJ18822   5.683   1.453   2.449
    1SIL  O03LK18823   5.730   1.641   2.087
    1SIL  O03LL18824   5.543   1.588   2.268
    1SIL  O03LM18825   5.789   1.392   2.139
    1SIL  O03LN18826   5.976   1.338   2.320
    1SIL  O03LO18827   5.929   1.527   2.501
    1SIL  Si1fi18828   5.537   1.929   2.023
    1SIL  Si1fj18829   5.291   1.902   2.385
    1SIL  Si1fk18830   5.637   1.703   2.204
    1SIL  O03LP18831   5.437   1.879   2.449
    1SIL  O03LQ18832   5.484   2.067   2.087
    1SIL  O03LR18833   5.298   2.014   2.268
    1SIL  O03LS18834   5.543   1.817   2.139
    1SIL  O03LT18835   5.730   1.764   2.320
    1SIL  O03LU18836   5.683   1.952   2.501
    1SIL  Si1fl18837   5.291   2.354   2.023
    1SIL  Si1fm18838   5.045   2.328   2.385
    1SIL  Si1fn18839   5.391   2.128   2.204
    1SIL  O03LV18840   5.191   2.304   2.449
    1SIL  O03LW18841   5.239   2.493   2.087
    1SIL  O03LX18842   5.052   2.439   2.268
    1SIL  O03LY18843   5.298   2.243   2.139
    1SIL  O03LZ18844   5.484   2.190   2.320
    1SIL  O03La18845   5.437   2.378   2.501
    1SIL  Si1fo18846   5.045   2.780   2.023
    1SIL  Si1fp18847   4.800   2.753   2.385
    1SIL  Si1fq18848   5.145   2.554   2.204
    1SIL  O03Lb18849   4.946   2.730   2.449
    1SIL  O03Lc18850   4.993   2.918   2.087
    1SIL  O03Ld18851   4.806   2.865   2.268
    1SIL  O03Le18852   5.052   2.668   2.139
    1SIL  O03Lf18853   5.239   2.615   2.320
    1SIL  O03Lg18854   5.191   2.804   2.501
    1SIL  Si1fr18855   4.800   3.206   2.023
    1SIL  Si1fs18856   4.554   3.179   2.385
    1SIL  Si1ft18857   4.900   2.980   2.204
    1SIL  O03Lh18858   4.700   3.156   2.449
    1SIL  O03Li18859   4.747   3.344   2.087
    1SIL  O03Lj18860   4.560   3.291   2.268
    1SIL  O03Lk18861   4.806   3.094   2.139
    1SIL  O03Ll18862   4.993   3.041   2.320
    1SIL  O03Lm18863   4.946   3.229   2.501
    1SIL  Si1fu18864   4.554   3.631   2.023
    1SIL  Si1fv18865   4.308   3.605   2.385
    1SIL  Si1fw18866   4.654   3.405   2.204
    1SIL  O03Ln18867   4.454   3.581   2.449
    1SIL  O03Lo18868   4.501   3.769   2.087
    1SIL  O03Lp18869   4.315   3.716   2.268
    1SIL  O03Lq18870   4.560   3.520   2.139
    1SIL  O03Lr18871   4.747   3.467   2.320
    1SIL  O03Ls18872   4.700   3.655   2.501
    1SIL  Si1fx18873   4.308   4.057   2.023
    1SIL  Si1fy18874   4.062   4.030   2.385
    1SIL  Si1fz18875   4.408   3.831   2.204
    1SIL  O03Lt18876   4.208   4.007   2.449
    1SIL  O03Lu18877   4.256   4.195   2.087
    1SIL  O03Lv18878   4.069   4.142   2.268
    1SIL  O03Lw18879   4.315   3.945   2.139
    1SIL  O03Lx18880   4.501   3.892   2.320
    1SIL  O03Ly18881   4.454   4.081   2.501
    1SIL  Si1g018882   4.062   4.483   2.023
    1SIL  Si1g118883   3.817   4.456   2.385
    1SIL  Si1g218884   4.162   4.256   2.204
    1SIL  O03Lz18885   3.963   4.432   2.449
    1SIL  O03M018886   4.010   4.621   2.087
    1SIL  O03M118887   3.823   4.568   2.268
    1SIL  O03M218888   4.069   4.371   2.139
    1SIL  O03M318889   4.256   4.318   2.320
    1SIL  O03M418890   4.208   4.506   2.501
    1SIL  Si1g318891   3.817   4.908   2.023
    1SIL  Si1g418892   3.571   4.882   2.385
    1SIL  Si1g518893   3.917   4.682   2.204
    1SIL  O03M518894   3.717   4.858   2.449
    1SIL  O03M618895   3.764   5.046   2.087
    1SIL  O03M718896   3.577   4.993   2.268
    1SIL  O03M818897   3.823   4.797   2.139
    1SIL  O03M918898   4.010   4.744   2.320
    1SIL  O03MA18899   3.963   4.932   2.501
    1SIL  Si1g618900   3.571   5.334   2.023
    1SIL  Si1g718901   3.325   5.307   2.385
    1SIL  Si1g818902   3.671   5.108   2.204
    1SIL  O03MB18903   3.471   5.284   2.449
    1SIL  O03MC18904   3.518   5.472   2.087
    1SIL  O03MD18905   3.332   5.419   2.268
    1SIL  O03ME18906   3.577   5.222   2.139
    1SIL  O03MF18907   3.764   5.169   2.320
    1SIL  O03MG18908   3.717   5.357   2.501
    1SIL  Si1g918909   3.325   5.759   2.023
    1SIL  Si1gA18910   3.079   5.733   2.385
    1SIL  Si1gB18911   3.425   5.533   2.204
    1SIL  O03MH18912   3.225   5.709   2.449
    1SIL  O03MI18913   3.273   5.898   2.087
    1SIL  O03MJ18914   3.086   5.844   2.268
    1SIL  O03MK18915   3.332   5.648   2.139
    1SIL  O03ML18916   3.518   5.595   2.320
    1SIL  O03MM18917   3.471   5.783   2.501
    1SIL  Si1gC18918   3.079   6.185   2.023
    1SIL  Si1gD18919   2.834   6.159   2.385
    1SIL  Si1gE18920   3.179   5.959   2.204
    1SIL  O03MN18921   2.980   6.135   2.449
    1SIL  O03MO18922   3.027   6.323   2.087
    1SIL  O03MP18923   2.840   6.270   2.268
    1SIL  O03MQ18924   3.086   6.074   2.139
    1SIL  O03MR18925   3.273   6.020   2.320
    1SIL  O03MS18926   3.225   6.209   2.501
    1SIL  Si1gF18927   2.834   6.611   2.023
    1SIL  Si1gG18928   2.588   6.584   2.385
    1SIL  Si1gH18929   2.934   6.385   2.204
    1SIL  O03MT18930   2.734   6.561   2.449
    1SIL  O03MU18931   2.781   6.749   2.087
    1SIL  O03MV18932   2.595   6.696   2.268
    1SIL  O03MW18933   2.840   6.499   2.139
    1SIL  O03MX18934   3.027   6.446   2.320
    1SIL  O03MY18935   2.980   6.634   2.501
    1SIL  Si1gI18936   2.588   7.036   2.023
    1SIL  Si1gJ18937   2.342   7.010   2.385
    1SIL  Si1gK18938   2.688   6.810   2.204
    1SIL  O03MZ18939   2.488   6.986   2.449
    1SIL  O03Ma18940   2.535   7.175   2.087
    1SIL  O03Mb18941   2.349   7.121   2.268
    1SIL  O03Mc18942   2.595   6.925   2.139
    1SIL  O03Md18943   2.781   6.872   2.320
    1SIL  O03Me18944   2.734   7.060   2.501
    1SIL  Si1gL18945   2.342   7.462   2.023
    1SIL  Si1gM18946   2.097   7.436   2.385
    1SIL  Si1gN18947   2.442   7.236   2.204
    1SIL  O03Mf18948   2.242   7.412   2.449
    1SIL  O03Mg18949   2.290   7.600   2.087
    1SIL  O03Mh18950   2.103   7.547   2.268
    1SIL  O03Mi18951   2.349   7.351   2.139
    1SIL  O03Mj18952   2.535   7.297   2.320
    1SIL  O03Mk18953   2.488   7.486   2.501
    1SIL  Si1gO18954   2.097   7.888   2.023
    1SIL  Si1gP18955   1.851   7.861   2.385
    1SIL  Si1gQ18956   2.196   7.662   2.204
    1SIL  O03Ml18957   1.997   7.838   2.449
    1SIL  O03Mm18958   2.044   8.026   2.087
    1SIL  O03Mn18959   1.857   7.973   2.268
    1SIL  O03Mo18960   2.103   7.776   2.139
    1SIL  O03Mp18961   2.290   7.723   2.320
    1SIL  O03Mq18962   2.242   7.911   2.501
    1SIL  Si1gR18963   1.851   8.313   2.023
    1SIL  Si1gS18964   1.605   8.287   2.385
    1SIL  Si1gT18965   1.951   8.087   2.204
    1SIL  O03Mr18966   1.751   8.263   2.449
    1SIL  O03Ms18967   1.798   8.452   2.087
    1SIL  O03Mt18968   1.612   8.398   2.268
    1SIL  O03Mu18969   1.857   8.202   2.139
    1SIL  O03Mv18970   2.044   8.149   2.320
    1SIL  O03Mw18971   1.997   8.337   2.501
    1SIL  Si1gU18972   1.605   8.739   2.023
    1SIL  Si1gV18973   1.359   8.713   2.385
    1SIL  Si1gW18974   1.705   8.513   2.204
    1SIL  O03Mx18975   1.505   8.689   2.449
    1SIL  O03My18976   1.552   8.877   2.087
    1SIL  O03Mz18977   1.366   8.824   2.268
    1SIL  O03N018978   1.612   8.628   2.139
    1SIL  O03N118979   1.798   8.574   2.320
    1SIL  O03N218980   1.751   8.763   2.501
    1SIL  Si1gX18981   1.359   9.165   2.023
    1SIL  Si1gY18982   1.114   9.138   2.385
    1SIL  Si1gZ18983   1.459   8.939   2.204
    1SIL  O03N318984   1.259   9.115   2.449
    1SIL  O03N418985   1.307   9.303   2.087
    1SIL  O03N518986   1.120   9.250   2.268
    1SIL  O03N618987   1.366   9.053   2.139
    1SIL  O03N718988   1.552   9.000   2.320
    1SIL  O03N818989   1.505   9.188   2.501
    1SIL  Si1ga18990   1.114   9.590   2.023
    1SIL  Si1gb18991   0.868   9.564   2.385
    1SIL  Si1gc18992   1.213   9.364   2.204
    1SIL  O03N918993   1.014   9.540   2.449
    1SIL  O03NA18994   1.061   9.729   2.087
    1SIL  O03NB18995   0.874   9.675   2.268
    1SIL  O03NC18996   1.120   9.479   2.139
    1SIL  O03ND18997   1.307   9.426   2.320
    1SIL  O03NE18998   1.259   9.614   2.501
    1SIL  Si1gd18999   7.011   0.226   2.023
    1SIL  Si1ge19000   6.766   0.200   2.385
    1SIL  Si1gf19001   7.111   0.000   2.204
    1SIL  O03NF19002   6.912   0.176   2.449
    1SIL  O03NG19003   6.959   0.364   2.087
    1SIL  O03NH19004   6.772   0.311   2.268
    1SIL  O03NI19005   7.018   0.115   2.139
    1SIL  O03NJ19006   7.205   0.061   2.320
    1SIL  O03NK19007   7.157   0.250   2.501
    1SIL  Si1gg19008   6.766   0.652   2.023
    1SIL  Si1gh19009   6.520   0.625   2.385
    1SIL  Si1gi19010   6.866   0.426   2.204
    1SIL  O03NL19011   6.666   0.602   2.449
    1SIL  O03NM19012   6.713   0.790   2.087
    1SIL  O03NN19013   6.526   0.737   2.268
    1SIL  O03NO19014   6.772   0.540   2.139
    1SIL  O03NP19015   6.959   0.487   2.320
    1SIL  O03NQ19016   6.912   0.675   2.501
    1SIL  Si1gj19017   6.520   1.077   2.023
    1SIL  Si1gk19018   6.274   1.051   2.385
    1SIL  Si1gl19019   6.620   0.851   2.204
    1SIL  O03NR19020   6.420   1.027   2.449
    1SIL  O03NS19021   6.467   1.216   2.087
    1SIL  O03NT19022   6.281   1.162   2.268
    1SIL  O03NU19023   6.526   0.966   2.139
    1SIL  O03NV19024   6.713   0.913   2.320
    1SIL  O03NW19025   6.666   1.101   2.501
    1SIL  Si1gm19026   6.274   1.503   2.023
    1SIL  Si1gn19027   6.028   1.477   2.385
    1SIL  Si1go19028   6.374   1.277   2.204
    1SIL  O03NX19029   6.174   1.453   2.449
    1SIL  O03NY19030   6.222   1.641   2.087
    1SIL  O03NZ19031   6.035   1.588   2.268
    1SIL  O03Na19032   6.281   1.392   2.139
    1SIL  O03Nb19033   6.467   1.338   2.320
    1SIL  O03Nc19034   6.420   1.527   2.501
    1SIL  Si1gp19035   6.028   1.929   2.023
    1SIL  Si1gq19036   5.783   1.902   2.385
    1SIL  Si1gr19037   6.128   1.703   2.204
    1SIL  O03Nd19038   5.929   1.879   2.449
    1SIL  O03Ne19039   5.976   2.067   2.087
    1SIL  O03Nf19040   5.789   2.014   2.268
    1SIL  O03Ng19041   6.035   1.817   2.139
    1SIL  O03Nh19042   6.222   1.764   2.320
    1SIL  O03Ni19043   6.174   1.952   2.501
    1SIL  Si1gs19044   5.783   2.354   2.023
    1SIL  Si1gt19045   5.537   2.328   2.385
    1SIL  Si1gu19046   5.883   2.128   2.204
    1SIL  O03Nj19047   5.683   2.304   2.449
    1SIL  O03Nk19048   5.730   2.493   2.087
    1SIL  O03Nl19049   5.543   2.439   2.268
    1SIL  O03Nm19050   5.789   2.243   2.139
    1SIL  O03Nn19051   5.976   2.190   2.320
    1SIL  O03No19052   5.929   2.378   2.501
    1SIL  Si1gv19053   5.537   2.780   2.023
    1SIL  Si1gw19054   5.291   2.753   2.385
    1SIL  Si1gx19055   5.637   2.554   2.204
    1SIL  O03Np19056   5.437   2.730   2.449
    1SIL  O03Nq19057   5.484   2.918   2.087
    1SIL  O03Nr19058   5.298   2.865   2.268
    1SIL  O03Ns19059   5.543   2.668   2.139
    1SIL  O03Nt19060   5.730   2.615   2.320
    1SIL  O03Nu19061   5.683   2.804   2.501
    1SIL  Si1gy19062   5.291   3.206   2.023
    1SIL  Si1gz19063   5.045   3.179   2.385
    1SIL  Si1h019064   5.391   2.980   2.204
    1SIL  O03Nv19065   5.191   3.156   2.449
    1SIL  O03Nw19066   5.239   3.344   2.087
    1SIL  O03Nx19067   5.052   3.291   2.268
    1SIL  O03Ny19068   5.298   3.094   2.139
    1SIL  O03Nz19069   5.484   3.041   2.320
    1SIL  O03O019070   5.437   3.229   2.501
    1SIL  Si1h119071   5.045   3.631   2.023
    1SIL  Si1h219072   4.800   3.605   2.385
    1SIL  Si1h319073   5.145   3.405   2.204
    1SIL  O03O119074   4.946   3.581   2.449
    1SIL  O03O219075   4.993   3.769   2.087
    1SIL  O03O319076   4.806   3.716   2.268
    1SIL  O03O419077   5.052   3.520   2.139
    1SIL  O03O519078   5.239   3.467   2.320
    1SIL  O03O619079   5.191   3.655   2.501
    1SIL  Si1h419080   4.800   4.057   2.023
    1SIL  Si1h519081   4.554   4.030   2.385
    1SIL  Si1h619082   4.900   3.831   2.204
    1SIL  O03O719083   4.700   4.007   2.449
    1SIL  O03O819084   4.747   4.195   2.087
    1SIL  O03O919085   4.560   4.142   2.268
    1SIL  O03OA19086   4.806   3.945   2.139
    1SIL  O03OB19087   4.993   3.892   2.320
    1SIL  O03OC19088   4.946   4.081   2.501
    1SIL  Si1h719089   4.554   4.483   2.023
    1SIL  Si1h819090   4.308   4.456   2.385
    1SIL  Si1h919091   4.654   4.256   2.204
    1SIL  O03OD19092   4.454   4.432   2.449
    1SIL  O03OE19093   4.501   4.621   2.087
    1SIL  O03OF19094   4.315   4.568   2.268
    1SIL  O03OG19095   4.560   4.371   2.139
    1SIL  O03OH19096   4.747   4.318   2.320
    1SIL  O03OI19097   4.700   4.506   2.501
    1SIL  Si1hA19098   4.308   4.908   2.023
    1SIL  Si1hB19099   4.062   4.882   2.385
    1SIL  Si1hC19100   4.408   4.682   2.204
    1SIL  O03OJ19101   4.208   4.858   2.449
    1SIL  O03OK19102   4.256   5.046   2.087
    1SIL  O03OL19103   4.069   4.993   2.268
    1SIL  O03OM19104   4.315   4.797   2.139
    1SIL  O03ON19105   4.501   4.744   2.320
    1SIL  O03OO19106   4.454   4.932   2.501
    1SIL  Si1hD19107   4.062   5.334   2.023
    1SIL  Si1hE19108   3.817   5.307   2.385
    1SIL  Si1hF19109   4.162   5.108   2.204
    1SIL  O03OP19110   3.963   5.284   2.449
    1SIL  O03OQ19111   4.010   5.472   2.087
    1SIL  O03OR19112   3.823   5.419   2.268
    1SIL  O03OS19113   4.069   5.222   2.139
    1SIL  O03OT19114   4.256   5.169   2.320
    1SIL  O03OU19115   4.208   5.357   2.501
    1SIL  Si1hG19116   3.817   5.759   2.023
    1SIL  Si1hH19117   3.571   5.733   2.385
    1SIL  Si1hI19118   3.917   5.533   2.204
    1SIL  O03OV19119   3.717   5.709   2.449
    1SIL  O03OW19120   3.764   5.898   2.087
    1SIL  O03OX19121   3.577   5.844   2.268
    1SIL  O03OY19122   3.823   5.648   2.139
    1SIL  O03OZ19123   4.010   5.595   2.320
    1SIL  O03Oa19124   3.963   5.783   2.501
    1SIL  Si1hJ19125   3.571   6.185   2.023
    1SIL  Si1hK19126   3.325   6.159   2.385
    1SIL  Si1hL19127   3.671   5.959   2.204
    1SIL  O03Ob19128   3.471   6.135   2.449
    1SIL  O03Oc19129   3.518   6.323   2.087
    1SIL  O03Od19130   3.332   6.270   2.268
    1SIL  O03Oe19131   3.577   6.074   2.139
    1SIL  O03Of19132   3.764   6.020   2.320
    1SIL  O03Og19133   3.717   6.209   2.501
    1SIL  Si1hM19134   3.325   6.611   2.023
    1SIL  Si1hN19135   3.079   6.584   2.385
    1SIL  Si1hO19136   3.425   6.385   2.204
    1SIL  O03Oh19137   3.225   6.561   2.449
    1SIL  O03Oi19138   3.273   6.749   2.087
    1SIL  O03Oj19139   3.086   6.696   2.268
    1SIL  O03Ok19140   3.332   6.499   2.139
    1SIL  O03Ol19141   3.518   6.446   2.320
    1SIL  O03Om19142   3.471   6.634   2.501
    1SIL  Si1hP19143   3.079   7.036   2.023
    1SIL  Si1hQ19144   2.834   7.010   2.385
    1SIL  Si1hR19145   3.179   6.810   2.204
    1SIL  O03On19146   2.980   6.986   2.449
    1SIL  O03Oo19147   3.027   7.175   2.087
    1SIL  O03Op19148   2.840   7.121   2.268
    1SIL  O03Oq19149   3.086   6.925   2.139
    1SIL  O03Or19150   3.273   6.872   2.320
    1SIL  O03Os19151   3.225   7.060   2.501
    1SIL  Si1hS19152   2.834   7.462   2.023
    1SIL  Si1hT19153   2.588   7.436   2.385
    1SIL  Si1hU19154   2.934   7.236   2.204
    1SIL  O03Ot19155   2.734   7.412   2.449
    1SIL  O03Ou19156   2.781   7.600   2.087
    1SIL  O03Ov19157   2.595   7.547   2.268
    1SIL  O03Ow19158   2.840   7.351   2.139
    1SIL  O03Ox19159   3.027   7.297   2.320
    1SIL  O03Oy19160   2.980   7.486   2.501
    1SIL  Si1hV19161   2.588   7.888   2.023
    1SIL  Si1hW19162   2.342   7.861   2.385
    1SIL  Si1hX19163   2.688   7.662   2.204
    1SIL  O03Oz19164   2.488   7.838   2.449
    1SIL  O03P019165   2.535   8.026   2.087
    1SIL  O03P119166   2.349   7.973   2.268
    1SIL  O03P219167   2.595   7.776   2.139
    1SIL  O03P319168   2.781   7.723   2.320
    1SIL  O03P419169   2.734   7.911   2.501
    1SIL  Si1hY19170   2.342   8.313   2.023
    1SIL  Si1hZ19171   2.097   8.287   2.385
    1SIL  Si1ha19172   2.442   8.087   2.204
    1SIL  O03P519173   2.242   8.263   2.449
    1SIL  O03P619174   2.290   8.452   2.087
    1SIL  O03P719175   2.103   8.398   2.268
    1SIL  O03P819176   2.349   8.202   2.139
    1SIL  O03P919177   2.535   8.149   2.320
    1SIL  O03PA19178   2.488   8.337   2.501
    1SIL  Si1hb19179   2.097   8.739   2.023
    1SIL  Si1hc19180   1.851   8.713   2.385
    1SIL  Si1hd19181   2.196   8.513   2.204
    1SIL  O03PB19182   1.997   8.689   2.449
    1SIL  O03PC19183   2.044   8.877   2.087
    1SIL  O03PD19184   1.857   8.824   2.268
    1SIL  O03PE19185   2.103   8.628   2.139
    1SIL  O03PF19186   2.290   8.574   2.320
    1SIL  O03PG19187   2.242   8.763   2.501
    1SIL  Si1he19188   1.851   9.165   2.023
    1SIL  Si1hf19189   1.605   9.138   2.385
    1SIL  Si1hg19190   1.951   8.939   2.204
    1SIL  O03PH19191   1.751   9.115   2.449
    1SIL  O03PI19192   1.798   9.303   2.087
    1SIL  O03PJ19193   1.612   9.250   2.268
    1SIL  O03PK19194   1.857   9.053   2.139
    1SIL  O03PL19195   2.044   9.000   2.320
    1SIL  O03PM19196   1.997   9.188   2.501
    1SIL  Si1hh19197   1.605   9.590   2.023
    1SIL  Si1hi19198   1.359   9.564   2.385
    1SIL  Si1hj19199   1.705   9.364   2.204
    1SIL  O03PN19200   1.505   9.540   2.449
    1SIL  O03PO19201   1.552   9.729   2.087
    1SIL  O03PP19202   1.366   9.675   2.268
    1SIL  O03PQ19203   1.612   9.479   2.139
    1SIL  O03PR19204   1.798   9.426   2.320
    1SIL  O03PS19205   1.751   9.614   2.501
    1SIL  Si1hk19206   7.503   0.226   2.023
    1SIL  Si1hl19207   7.257   0.200   2.385
    1SIL  Si1hm19208   7.603   0.000   2.204
    1SIL  O03PT19209   7.403   0.176   2.449
    1SIL  O03PU19210   7.450   0.364   2.087
    1SIL  O03PV19211   7.264   0.311   2.268
    1SIL  O03PW19212   7.509   0.115   2.139
    1SIL  O03PX19213   7.696   0.061   2.320
    1SIL  O03PY19214   7.649   0.250   2.501
    1SIL  Si1hn19215   7.257   0.652   2.023
    1SIL  Si1ho19216   7.011   0.625   2.385
    1SIL  Si1hp19217   7.357   0.426   2.204
    1SIL  O03PZ19218   7.157   0.602   2.449
    1SIL  O03Pa19219   7.205   0.790   2.087
    1SIL  O03Pb19220   7.018   0.737   2.268
    1SIL  O03Pc19221   7.264   0.540   2.139
    1SIL  O03Pd19222   7.450   0.487   2.320
    1SIL  O03Pe19223   7.403   0.675   2.501
    1SIL  Si1hq19224   7.011   1.077   2.023
    1SIL  Si1hr19225   6.766   1.051   2.385
    1SIL  Si1hs19226   7.111   0.851   2.204
    1SIL  O03Pf19227   6.912   1.027   2.449
    1SIL  O03Pg19228   6.959   1.216   2.087
    1SIL  O03Ph19229   6.772   1.162   2.268
    1SIL  O03Pi19230   7.018   0.966   2.139
    1SIL  O03Pj19231   7.205   0.913   2.320
    1SIL  O03Pk19232   7.157   1.101   2.501
    1SIL  Si1ht19233   6.766   1.503   2.023
    1SIL  Si1hu19234   6.520   1.477   2.385
    1SIL  Si1hv19235   6.866   1.277   2.204
    1SIL  O03Pl19236   6.666   1.453   2.449
    1SIL  O03Pm19237   6.713   1.641   2.087
    1SIL  O03Pn19238   6.526   1.588   2.268
    1SIL  O03Po19239   6.772   1.392   2.139
    1SIL  O03Pp19240   6.959   1.338   2.320
    1SIL  O03Pq19241   6.912   1.527   2.501
    1SIL  Si1hw19242   6.520   1.929   2.023
    1SIL  Si1hx19243   6.274   1.902   2.385
    1SIL  Si1hy19244   6.620   1.703   2.204
    1SIL  O03Pr19245   6.420   1.879   2.449
    1SIL  O03Ps19246   6.467   2.067   2.087
    1SIL  O03Pt19247   6.281   2.014   2.268
    1SIL  O03Pu19248   6.526   1.817   2.139
    1SIL  O03Pv19249   6.713   1.764   2.320
    1SIL  O03Pw19250   6.666   1.952   2.501
    1SIL  Si1hz19251   6.274   2.354   2.023
    1SIL  Si1i019252   6.028   2.328   2.385
    1SIL  Si1i119253   6.374   2.128   2.204
    1SIL  O03Px19254   6.174   2.304   2.449
    1SIL  O03Py19255   6.222   2.493   2.087
    1SIL  O03Pz19256   6.035   2.439   2.268
    1SIL  O03Q019257   6.281   2.243   2.139
    1SIL  O03Q119258   6.467   2.190   2.320
    1SIL  O03Q219259   6.420   2.378   2.501
    1SIL  Si1i219260   6.028   2.780   2.023
    1SIL  Si1i319261   5.783   2.753   2.385
    1SIL  Si1i419262   6.128   2.554   2.204
    1SIL  O03Q319263   5.929   2.730   2.449
    1SIL  O03Q419264   5.976   2.918   2.087
    1SIL  O03Q519265   5.789   2.865   2.268
    1SIL  O03Q619266   6.035   2.668   2.139
    1SIL  O03Q719267   6.222   2.615   2.320
    1SIL  O03Q819268   6.174   2.804   2.501
    1SIL  Si1i519269   5.783   3.206   2.023
    1SIL  Si1i619270   5.537   3.179   2.385
    1SIL  Si1i719271   5.883   2.980   2.204
    1SIL  O03Q919272   5.683   3.156   2.449
    1SIL  O03QA19273   5.730   3.344   2.087
    1SIL  O03QB19274   5.543   3.291   2.268
    1SIL  O03QC19275   5.789   3.094   2.139
    1SIL  O03QD19276   5.976   3.041   2.320
    1SIL  O03QE19277   5.929   3.229   2.501
    1SIL  Si1i819278   5.537   3.631   2.023
    1SIL  Si1i919279   5.291   3.605   2.385
    1SIL  Si1iA19280   5.637   3.405   2.204
    1SIL  O03QF19281   5.437   3.581   2.449
    1SIL  O03QG19282   5.484   3.769   2.087
    1SIL  O03QH19283   5.298   3.716   2.268
    1SIL  O03QI19284   5.543   3.520   2.139
    1SIL  O03QJ19285   5.730   3.467   2.320
    1SIL  O03QK19286   5.683   3.655   2.501
    1SIL  Si1iB19287   5.291   4.057   2.023
    1SIL  Si1iC19288   5.045   4.030   2.385
    1SIL  Si1iD19289   5.391   3.831   2.204
    1SIL  O03QL19290   5.191   4.007   2.449
    1SIL  O03QM19291   5.239   4.195   2.087
    1SIL  O03QN19292   5.052   4.142   2.268
    1SIL  O03QO19293   5.298   3.945   2.139
    1SIL  O03QP19294   5.484   3.892   2.320
    1SIL  O03QQ19295   5.437   4.081   2.501
    1SIL  Si1iE19296   5.045   4.483   2.023
    1SIL  Si1iF19297   4.800   4.456   2.385
    1SIL  Si1iG19298   5.145   4.256   2.204
    1SIL  O03QR19299   4.946   4.432   2.449
    1SIL  O03QS19300   4.993   4.621   2.087
    1SIL  O03QT19301   4.806   4.568   2.268
    1SIL  O03QU19302   5.052   4.371   2.139
    1SIL  O03QV19303   5.239   4.318   2.320
    1SIL  O03QW19304   5.191   4.506   2.501
    1SIL  Si1iH19305   4.800   4.908   2.023
    1SIL  Si1iI19306   4.554   4.882   2.385
    1SIL  Si1iJ19307   4.900   4.682   2.204
    1SIL  O03QX19308   4.700   4.858   2.449
    1SIL  O03QY19309   4.747   5.046   2.087
    1SIL  O03QZ19310   4.560   4.993   2.268
    1SIL  O03Qa19311   4.806   4.797   2.139
    1SIL  O03Qb19312   4.993   4.744   2.320
    1SIL  O03Qc19313   4.946   4.932   2.501
    1SIL  Si1iK19314   4.554   5.334   2.023
    1SIL  Si1iL19315   4.308   5.307   2.385
    1SIL  Si1iM19316   4.654   5.108   2.204
    1SIL  O03Qd19317   4.454   5.284   2.449
    1SIL  O03Qe19318   4.501   5.472   2.087
    1SIL  O03Qf19319   4.315   5.419   2.268
    1SIL  O03Qg19320   4.560   5.222   2.139
    1SIL  O03Qh19321   4.747   5.169   2.320
    1SIL  O03Qi19322   4.700   5.357   2.501
    1SIL  Si1iN19323   4.308   5.759   2.023
    1SIL  Si1iO19324   4.062   5.733   2.385
    1SIL  Si1iP19325   4.408   5.533   2.204
    1SIL  O03Qj19326   4.208   5.709   2.449
    1SIL  O03Qk19327   4.256   5.898   2.087
    1SIL  O03Ql19328   4.069   5.844   2.268
    1SIL  O03Qm19329   4.315   5.648   2.139
    1SIL  O03Qn19330   4.501   5.595   2.320
    1SIL  O03Qo19331   4.454   5.783   2.501
    1SIL  Si1iQ19332   4.062   6.185   2.023
    1SIL  Si1iR19333   3.817   6.159   2.385
    1SIL  Si1iS19334   4.162   5.959   2.204
    1SIL  O03Qp19335   3.963   6.135   2.449
    1SIL  O03Qq19336   4.010   6.323   2.087
    1SIL  O03Qr19337   3.823   6.270   2.268
    1SIL  O03Qs19338   4.069   6.074   2.139
    1SIL  O03Qt19339   4.256   6.020   2.320
    1SIL  O03Qu19340   4.208   6.209   2.501
    1SIL  Si1iT19341   3.817   6.611   2.023
    1SIL  Si1iU19342   3.571   6.584   2.385
    1SIL  Si1iV19343   3.917   6.385   2.204
    1SIL  O03Qv19344   3.717   6.561   2.449
    1SIL  O03Qw19345   3.764   6.749   2.087
    1SIL  O03Qx19346   3.577   6.696   2.268
    1SIL  O03Qy19347   3.823   6.499   2.139
    1SIL  O03Qz19348   4.010   6.446   2.320
    1SIL  O03R019349   3.963   6.634   2.501
    1SIL  Si1iW19350   3.571   7.036   2.023
    1SIL  Si1iX19351   3.325   7.010   2.385
    1SIL  Si1iY19352   3.671   6.810   2.204
    1SIL  O03R119353   3.471   6.986   2.449
    1SIL  O03R219354   3.518   7.175   2.087
    1SIL  O03R319355   3.332   7.121   2.268
    1SIL  O03R419356   3.577   6.925   2.139
    1SIL  O03R519357   3.764   6.872   2.320
    1SIL  O03R619358   3.717   7.060   2.501
    1SIL  Si1iZ19359   3.325   7.462   2.023
    1SIL  Si1ia19360   3.079   7.436   2.385
    1SIL  Si1ib19361   3.425   7.236   2.204
    1SIL  O03R719362   3.225   7.412   2.449
    1SIL  O03R819363   3.273   7.600   2.087
    1SIL  O03R919364   3.086   7.547   2.268
    1SIL  O03RA19365   3.332   7.351   2.139
    1SIL  O03RB19366   3.518   7.297   2.320
    1SIL  O03RC19367   3.471   7.486   2.501
    1SIL  Si1ic19368   3.079   7.888   2.023
    1SIL  Si1id19369   2.834   7.861   2.385
    1SIL  Si1ie19370   3.179   7.662   2.204
    1SIL  O03RD19371   2.980   7.838   2.449
    1SIL  O03RE19372   3.027   8.026   2.087
    1SIL  O03RF19373   2.840   7.973   2.268
    1SIL  O03RG19374   3.086   7.776   2.139
    1SIL  O03RH19375   3.273   7.723   2.320
    1SIL  O03RI19376   3.225   7.911   2.501
    1SIL  Si1if19377   2.834   8.313   2.023
    1SIL  Si1ig19378   2.588   8.287   2.385
    1SIL  Si1ih19379   2.934   8.087   2.204
    1SIL  O03RJ19380   2.734   8.263   2.449
    1SIL  O03RK19381   2.781   8.452   2.087
    1SIL  O03RL19382   2.595   8.398   2.268
    1SIL  O03RM19383   2.840   8.202   2.139
    1SIL  O03RN19384   3.027   8.149   2.320
    1SIL  O03RO19385   2.980   8.337   2.501
    1SIL  Si1ii19386   2.588   8.739   2.023
    1SIL  Si1ij19387   2.342   8.713   2.385
    1SIL  Si1ik19388   2.688   8.513   2.204
    1SIL  O03RP19389   2.488   8.689   2.449
    1SIL  O03RQ19390   2.535   8.877   2.087
    1SIL  O03RR19391   2.349   8.824   2.268
    1SIL  O03RS19392   2.595   8.628   2.139
    1SIL  O03RT19393   2.781   8.574   2.320
    1SIL  O03RU19394   2.734   8.763   2.501
    1SIL  Si1il19395   2.342   9.165   2.023
    1SIL  Si1im19396   2.097   9.138   2.385
    1SIL  Si1in19397   2.442   8.939   2.204
    1SIL  O03RV19398   2.242   9.115   2.449
    1SIL  O03RW19399   2.290   9.303   2.087
    1SIL  O03RX19400   2.103   9.250   2.268
    1SIL  O03RY19401   2.349   9.053   2.139
    1SIL  O03RZ19402   2.535   9.000   2.320
    1SIL  O03Ra19403   2.488   9.188   2.501
    1SIL  Si1io19404   2.097   9.590   2.023
    1SIL  Si1ip19405   1.851   9.564   2.385
    1SIL  Si1iq19406   2.196   9.364   2.204
    1SIL  O03Rb19407   1.997   9.540   2.449
    1SIL  O03Rc19408   2.044   9.729   2.087
    1SIL  O03Rd19409   1.857   9.675   2.268
    1SIL  O03Re19410   2.103   9.479   2.139
    1SIL  O03Rf19411   2.290   9.426   2.320
    1SIL  O03Rg19412   2.242   9.614   2.501
    1SIL  Si1ir19413   7.994   0.226   2.023
    1SIL  Si1is19414   7.749   0.200   2.385
    1SIL  Si1it19415   8.094   0.000   2.204
    1SIL  O03Rh19416   7.895   0.176   2.449
    1SIL  O03Ri19417   7.942   0.364   2.087
    1SIL  O03Rj19418   7.755   0.311   2.268
    1SIL  O03Rk19419   8.001   0.115   2.139
    1SIL  O03Rl19420   8.188   0.061   2.320
    1SIL  O03Rm19421   8.140   0.250   2.501
    1SIL  Si1iu19422   7.749   0.652   2.023
    1SIL  Si1iv19423   7.503   0.625   2.385
    1SIL  Si1iw19424   7.849   0.426   2.204
    1SIL  O03Rn19425   7.649   0.602   2.449
    1SIL  O03Ro19426   7.696   0.790   2.087
    1SIL  O03Rp19427   7.509   0.737   2.268
    1SIL  O03Rq19428   7.755   0.540   2.139
    1SIL  O03Rr19429   7.942   0.487   2.320
    1SIL  O03Rs19430   7.895   0.675   2.501
    1SIL  Si1ix19431   7.503   1.077   2.023
    1SIL  Si1iy19432   7.257   1.051   2.385
    1SIL  Si1iz19433   7.603   0.851   2.204
    1SIL  O03Rt19434   7.403   1.027   2.449
    1SIL  O03Ru19435   7.450   1.216   2.087
    1SIL  O03Rv19436   7.264   1.162   2.268
    1SIL  O03Rw19437   7.509   0.966   2.139
    1SIL  O03Rx19438   7.696   0.913   2.320
    1SIL  O03Ry19439   7.649   1.101   2.501
    1SIL  Si1j019440   7.257   1.503   2.023
    1SIL  Si1j119441   7.011   1.477   2.385
    1SIL  Si1j219442   7.357   1.277   2.204
    1SIL  O03Rz19443   7.157   1.453   2.449
    1SIL  O03S019444   7.205   1.641   2.087
    1SIL  O03S119445   7.018   1.588   2.268
    1SIL  O03S219446   7.264   1.392   2.139
    1SIL  O03S319447   7.450   1.338   2.320
    1SIL  O03S419448   7.403   1.527   2.501
    1SIL  Si1j319449   7.011   1.929   2.023
    1SIL  Si1j419450   6.766   1.902   2.385
    1SIL  Si1j519451   7.111   1.703   2.204
    1SIL  O03S519452   6.912   1.879   2.449
    1SIL  O03S619453   6.959   2.067   2.087
    1SIL  O03S719454   6.772   2.014   2.268
    1SIL  O03S819455   7.018   1.817   2.139
    1SIL  O03S919456   7.205   1.764   2.320
    1SIL  O03SA19457   7.157   1.952   2.501
    1SIL  Si1j619458   6.766   2.354   2.023
    1SIL  Si1j719459   6.520   2.328   2.385
    1SIL  Si1j819460   6.866   2.128   2.204
    1SIL  O03SB19461   6.666   2.304   2.449
    1SIL  O03SC19462   6.713   2.493   2.087
    1SIL  O03SD19463   6.526   2.439   2.268
    1SIL  O03SE19464   6.772   2.243   2.139
    1SIL  O03SF19465   6.959   2.190   2.320
    1SIL  O03SG19466   6.912   2.378   2.501
    1SIL  Si1j919467   6.520   2.780   2.023
    1SIL  Si1jA19468   6.274   2.753   2.385
    1SIL  Si1jB19469   6.620   2.554   2.204
    1SIL  O03SH19470   6.420   2.730   2.449
    1SIL  O03SI19471   6.467   2.918   2.087
    1SIL  O03SJ19472   6.281   2.865   2.268
    1SIL  O03SK19473   6.526   2.668   2.139
    1SIL  O03SL19474   6.713   2.615   2.320
    1SIL  O03SM19475   6.666   2.804   2.501
    1SIL  Si1jC19476   6.274   3.206   2.023
    1SIL  Si1jD19477   6.028   3.179   2.385
    1SIL  Si1jE19478   6.374   2.980   2.204
    1SIL  O03SN19479   6.174   3.156   2.449
    1SIL  O03SO19480   6.222   3.344   2.087
    1SIL  O03SP19481   6.035   3.291   2.268
    1SIL  O03SQ19482   6.281   3.094   2.139
    1SIL  O03SR19483   6.467   3.041   2.320
    1SIL  O03SS19484   6.420   3.229   2.501
    1SIL  Si1jF19485   6.028   3.631   2.023
    1SIL  Si1jG19486   5.783   3.605   2.385
    1SIL  Si1jH19487   6.128   3.405   2.204
    1SIL  O03ST19488   5.929   3.581   2.449
    1SIL  O03SU19489   5.976   3.769   2.087
    1SIL  O03SV19490   5.789   3.716   2.268
    1SIL  O03SW19491   6.035   3.520   2.139
    1SIL  O03SX19492   6.222   3.467   2.320
    1SIL  O03SY19493   6.174   3.655   2.501
    1SIL  Si1jI19494   5.783   4.057   2.023
    1SIL  Si1jJ19495   5.537   4.030   2.385
    1SIL  Si1jK19496   5.883   3.831   2.204
    1SIL  O03SZ19497   5.683   4.007   2.449
    1SIL  O03Sa19498   5.730   4.195   2.087
    1SIL  O03Sb19499   5.543   4.142   2.268
    1SIL  O03Sc19500   5.789   3.945   2.139
    1SIL  O03Sd19501   5.976   3.892   2.320
    1SIL  O03Se19502   5.929   4.081   2.501
    1SIL  Si1jL19503   5.537   4.483   2.023
    1SIL  Si1jM19504   5.291   4.456   2.385
    1SIL  Si1jN19505   5.637   4.256   2.204
    1SIL  O03Sf19506   5.437   4.432   2.449
    1SIL  O03Sg19507   5.484   4.621   2.087
    1SIL  O03Sh19508   5.298   4.568   2.268
    1SIL  O03Si19509   5.543   4.371   2.139
    1SIL  O03Sj19510   5.730   4.318   2.320
    1SIL  O03Sk19511   5.683   4.506   2.501
    1SIL  Si1jO19512   5.291   4.908   2.023
    1SIL  Si1jP19513   5.045   4.882   2.385
    1SIL  Si1jQ19514   5.391   4.682   2.204
    1SIL  O03Sl19515   5.191   4.858   2.449
    1SIL  O03Sm19516   5.239   5.046   2.087
    1SIL  O03Sn19517   5.052   4.993   2.268
    1SIL  O03So19518   5.298   4.797   2.139
    1SIL  O03Sp19519   5.484   4.744   2.320
    1SIL  O03Sq19520   5.437   4.932   2.501
    1SIL  Si1jR19521   5.045   5.334   2.023
    1SIL  Si1jS19522   4.800   5.307   2.385
    1SIL  Si1jT19523   5.145   5.108   2.204
    1SIL  O03Sr19524   4.946   5.284   2.449
    1SIL  O03Ss19525   4.993   5.472   2.087
    1SIL  O03St19526   4.806   5.419   2.268
    1SIL  O03Su19527   5.052   5.222   2.139
    1SIL  O03Sv19528   5.239   5.169   2.320
    1SIL  O03Sw19529   5.191   5.357   2.501
    1SIL  Si1jU19530   4.800   5.759   2.023
    1SIL  Si1jV19531   4.554   5.733   2.385
    1SIL  Si1jW19532   4.900   5.533   2.204
    1SIL  O03Sx19533   4.700   5.709   2.449
    1SIL  O03Sy19534   4.747   5.898   2.087
    1SIL  O03Sz19535   4.560   5.844   2.268
    1SIL  O03T019536   4.806   5.648   2.139
    1SIL  O03T119537   4.993   5.595   2.320
    1SIL  O03T219538   4.946   5.783   2.501
    1SIL  Si1jX19539   4.554   6.185   2.023
    1SIL  Si1jY19540   4.308   6.159   2.385
    1SIL  Si1jZ19541   4.654   5.959   2.204
    1SIL  O03T319542   4.454   6.135   2.449
    1SIL  O03T419543   4.501   6.323   2.087
    1SIL  O03T519544   4.315   6.270   2.268
    1SIL  O03T619545   4.560   6.074   2.139
    1SIL  O03T719546   4.747   6.020   2.320
    1SIL  O03T819547   4.700   6.209   2.501
    1SIL  Si1ja19548   4.308   6.611   2.023
    1SIL  Si1jb19549   4.062   6.584   2.385
    1SIL  Si1jc19550   4.408   6.385   2.204
    1SIL  O03T919551   4.208   6.561   2.449
    1SIL  O03TA19552   4.256   6.749   2.087
    1SIL  O03TB19553   4.069   6.696   2.268
    1SIL  O03TC19554   4.315   6.499   2.139
    1SIL  O03TD19555   4.501   6.446   2.320
    1SIL  O03TE19556   4.454   6.634   2.501
    1SIL  Si1jd19557   4.062   7.036   2.023
    1SIL  Si1je19558   3.817   7.010   2.385
    1SIL  Si1jf19559   4.162   6.810   2.204
    1SIL  O03TF19560   3.963   6.986   2.449
    1SIL  O03TG19561   4.010   7.175   2.087
    1SIL  O03TH19562   3.823   7.121   2.268
    1SIL  O03TI19563   4.069   6.925   2.139
    1SIL  O03TJ19564   4.256   6.872   2.320
    1SIL  O03TK19565   4.208   7.060   2.501
    1SIL  Si1jg19566   3.817   7.462   2.023
    1SIL  Si1jh19567   3.571   7.436   2.385
    1SIL  Si1ji19568   3.917   7.236   2.204
    1SIL  O03TL19569   3.717   7.412   2.449
    1SIL  O03TM19570   3.764   7.600   2.087
    1SIL  O03TN19571   3.577   7.547   2.268
    1SIL  O03TO19572   3.823   7.351   2.139
    1SIL  O03TP19573   4.010   7.297   2.320
    1SIL  O03TQ19574   3.963   7.486   2.501
    1SIL  Si1jj19575   3.571   7.888   2.023
    1SIL  Si1jk19576   3.325   7.861   2.385
    1SIL  Si1jl19577   3.671   7.662   2.204
    1SIL  O03TR19578   3.471   7.838   2.449
    1SIL  O03TS19579   3.518   8.026   2.087
    1SIL  O03TT19580   3.332   7.973   2.268
    1SIL  O03TU19581   3.577   7.776   2.139
    1SIL  O03TV19582   3.764   7.723   2.320
    1SIL  O03TW19583   3.717   7.911   2.501
    1SIL  Si1jm19584   3.325   8.313   2.023
    1SIL  Si1jn19585   3.079   8.287   2.385
    1SIL  Si1jo19586   3.425   8.087   2.204
    1SIL  O03TX19587   3.225   8.263   2.449
    1SIL  O03TY19588   3.273   8.452   2.087
    1SIL  O03TZ19589   3.086   8.398   2.268
    1SIL  O03Ta19590   3.332   8.202   2.139
    1SIL  O03Tb19591   3.518   8.149   2.320
    1SIL  O03Tc19592   3.471   8.337   2.501
    1SIL  Si1jp19593   3.079   8.739   2.023
    1SIL  Si1jq19594   2.834   8.713   2.385
    1SIL  Si1jr19595   3.179   8.513   2.204
    1SIL  O03Td19596   2.980   8.689   2.449
    1SIL  O03Te19597   3.027   8.877   2.087
    1SIL  O03Tf19598   2.840   8.824   2.268
    1SIL  O03Tg19599   3.086   8.628   2.139
    1SIL  O03Th19600   3.273   8.574   2.320
    1SIL  O03Ti19601   3.225   8.763   2.501
    1SIL  Si1js19602   2.834   9.165   2.023
    1SIL  Si1jt19603   2.588   9.138   2.385
    1SIL  Si1ju19604   2.934   8.939   2.204
    1SIL  O03Tj19605   2.734   9.115   2.449
    1SIL  O03Tk19606   2.781   9.303   2.087
    1SIL  O03Tl19607   2.595   9.250   2.268
    1SIL  O03Tm19608   2.840   9.053   2.139
    1SIL  O03Tn19609   3.027   9.000   2.320
    1SIL  O03To19610   2.980   9.188   2.501
    1SIL  Si1jv19611   2.588   9.590   2.023
    1SIL  Si1jw19612   2.342   9.564   2.385
    1SIL  Si1jx19613   2.688   9.364   2.204
    1SIL  O03Tp19614   2.488   9.540   2.449
    1SIL  O03Tq19615   2.535   9.729   2.087
    1SIL  O03Tr19616   2.349   9.675   2.268
    1SIL  O03Ts19617   2.595   9.479   2.139
    1SIL  O03Tt19618   2.781   9.426   2.320
    1SIL  O03Tu19619   2.734   9.614   2.501
    1SIL  Si1jy19620   8.486   0.226   2.023
    1SIL  Si1jz19621   8.240   0.200   2.385
    1SIL  Si1k019622   8.586   0.000   2.204
    1SIL  O03Tv19623   8.386   0.176   2.449
    1SIL  O03Tw19624   8.433   0.364   2.087
    1SIL  O03Tx19625   8.247   0.311   2.268
    1SIL  O03Ty19626   8.492   0.115   2.139
    1SIL  O03Tz19627   8.679   0.061   2.320
    1SIL  O03U019628   8.632   0.250   2.501
    1SIL  Si1k119629   8.240   0.652   2.023
    1SIL  Si1k219630   7.994   0.625   2.385
    1SIL  Si1k319631   8.340   0.426   2.204
    1SIL  O03U119632   8.140   0.602   2.449
    1SIL  O03U219633   8.188   0.790   2.087
    1SIL  O03U319634   8.001   0.737   2.268
    1SIL  O03U419635   8.247   0.540   2.139
    1SIL  O03U519636   8.433   0.487   2.320
    1SIL  O03U619637   8.386   0.675   2.501
    1SIL  Si1k419638   7.994   1.077   2.023
    1SIL  Si1k519639   7.749   1.051   2.385
    1SIL  Si1k619640   8.094   0.851   2.204
    1SIL  O03U719641   7.895   1.027   2.449
    1SIL  O03U819642   7.942   1.216   2.087
    1SIL  O03U919643   7.755   1.162   2.268
    1SIL  O03UA19644   8.001   0.966   2.139
    1SIL  O03UB19645   8.188   0.913   2.320
    1SIL  O03UC19646   8.140   1.101   2.501
    1SIL  Si1k719647   7.749   1.503   2.023
    1SIL  Si1k819648   7.503   1.477   2.385
    1SIL  Si1k919649   7.849   1.277   2.204
    1SIL  O03UD19650   7.649   1.453   2.449
    1SIL  O03UE19651   7.696   1.641   2.087
    1SIL  O03UF19652   7.509   1.588   2.268
    1SIL  O03UG19653   7.755   1.392   2.139
    1SIL  O03UH19654   7.942   1.338   2.320
    1SIL  O03UI19655   7.895   1.527   2.501
    1SIL  Si1kA19656   7.503   1.929   2.023
    1SIL  Si1kB19657   7.257   1.902   2.385
    1SIL  Si1kC19658   7.603   1.703   2.204
    1SIL  O03UJ19659   7.403   1.879   2.449
    1SIL  O03UK19660   7.450   2.067   2.087
    1SIL  O03UL19661   7.264   2.014   2.268
    1SIL  O03UM19662   7.509   1.817   2.139
    1SIL  O03UN19663   7.696   1.764   2.320
    1SIL  O03UO19664   7.649   1.952   2.501
    1SIL  Si1kD19665   7.257   2.354   2.023
    1SIL  Si1kE19666   7.011   2.328   2.385
    1SIL  Si1kF19667   7.357   2.128   2.204
    1SIL  O03UP19668   7.157   2.304   2.449
    1SIL  O03UQ19669   7.205   2.493   2.087
    1SIL  O03UR19670   7.018   2.439   2.268
    1SIL  O03US19671   7.264   2.243   2.139
    1SIL  O03UT19672   7.450   2.190   2.320
    1SIL  O03UU19673   7.403   2.378   2.501
    1SIL  Si1kG19674   7.011   2.780   2.023
    1SIL  Si1kH19675   6.766   2.753   2.385
    1SIL  Si1kI19676   7.111   2.554   2.204
    1SIL  O03UV19677   6.912   2.730   2.449
    1SIL  O03UW19678   6.959   2.918   2.087
    1SIL  O03UX19679   6.772   2.865   2.268
    1SIL  O03UY19680   7.018   2.668   2.139
    1SIL  O03UZ19681   7.205   2.615   2.320
    1SIL  O03Ua19682   7.157   2.804   2.501
    1SIL  Si1kJ19683   6.766   3.206   2.023
    1SIL  Si1kK19684   6.520   3.179   2.385
    1SIL  Si1kL19685   6.866   2.980   2.204
    1SIL  O03Ub19686   6.666   3.156   2.449
    1SIL  O03Uc19687   6.713   3.344   2.087
    1SIL  O03Ud19688   6.526   3.291   2.268
    1SIL  O03Ue19689   6.772   3.094   2.139
    1SIL  O03Uf19690   6.959   3.041   2.320
    1SIL  O03Ug19691   6.912   3.229   2.501
    1SIL  Si1kM19692   6.520   3.631   2.023
    1SIL  Si1kN19693   6.274   3.605   2.385
    1SIL  Si1kO19694   6.620   3.405   2.204
    1SIL  O03Uh19695   6.420   3.581   2.449
    1SIL  O03Ui19696   6.467   3.769   2.087
    1SIL  O03Uj19697   6.281   3.716   2.268
    1SIL  O03Uk19698   6.526   3.520   2.139
    1SIL  O03Ul19699   6.713   3.467   2.320
    1SIL  O03Um19700   6.666   3.655   2.501
    1SIL  Si1kP19701   6.274   4.057   2.023
    1SIL  Si1kQ19702   6.028   4.030   2.385
    1SIL  Si1kR19703   6.374   3.831   2.204
    1SIL  O03Un19704   6.174   4.007   2.449
    1SIL  O03Uo19705   6.222   4.195   2.087
    1SIL  O03Up19706   6.035   4.142   2.268
    1SIL  O03Uq19707   6.281   3.945   2.139
    1SIL  O03Ur19708   6.467   3.892   2.320
    1SIL  O03Us19709   6.420   4.081   2.501
    1SIL  Si1kS19710   6.028   4.483   2.023
    1SIL  Si1kT19711   5.783   4.456   2.385
    1SIL  Si1kU19712   6.128   4.256   2.204
    1SIL  O03Ut19713   5.929   4.432   2.449
    1SIL  O03Uu19714   5.976   4.621   2.087
    1SIL  O03Uv19715   5.789   4.568   2.268
    1SIL  O03Uw19716   6.035   4.371   2.139
    1SIL  O03Ux19717   6.222   4.318   2.320
    1SIL  O03Uy19718   6.174   4.506   2.501
    1SIL  Si1kV19719   5.783   4.908   2.023
    1SIL  Si1kW19720   5.537   4.882   2.385
    1SIL  Si1kX19721   5.883   4.682   2.204
    1SIL  O03Uz19722   5.683   4.858   2.449
    1SIL  O03V019723   5.730   5.046   2.087
    1SIL  O03V119724   5.543   4.993   2.268
    1SIL  O03V219725   5.789   4.797   2.139
    1SIL  O03V319726   5.976   4.744   2.320
    1SIL  O03V419727   5.929   4.932   2.501
    1SIL  Si1kY19728   5.537   5.334   2.023
    1SIL  Si1kZ19729   5.291   5.307   2.385
    1SIL  Si1ka19730   5.637   5.108   2.204
    1SIL  O03V519731   5.437   5.284   2.449
    1SIL  O03V619732   5.484   5.472   2.087
    1SIL  O03V719733   5.298   5.419   2.268
    1SIL  O03V819734   5.543   5.222   2.139
    1SIL  O03V919735   5.730   5.169   2.320
    1SIL  O03VA19736   5.683   5.357   2.501
    1SIL  Si1kb19737   5.291   5.759   2.023
    1SIL  Si1kc19738   5.045   5.733   2.385
    1SIL  Si1kd19739   5.391   5.533   2.204
    1SIL  O03VB19740   5.191   5.709   2.449
    1SIL  O03VC19741   5.239   5.898   2.087
    1SIL  O03VD19742   5.052   5.844   2.268
    1SIL  O03VE19743   5.298   5.648   2.139
    1SIL  O03VF19744   5.484   5.595   2.320
    1SIL  O03VG19745   5.437   5.783   2.501
    1SIL  Si1ke19746   5.045   6.185   2.023
    1SIL  Si1kf19747   4.800   6.159   2.385
    1SIL  Si1kg19748   5.145   5.959   2.204
    1SIL  O03VH19749   4.946   6.135   2.449
    1SIL  O03VI19750   4.993   6.323   2.087
    1SIL  O03VJ19751   4.806   6.270   2.268
    1SIL  O03VK19752   5.052   6.074   2.139
    1SIL  O03VL19753   5.239   6.020   2.320
    1SIL  O03VM19754   5.191   6.209   2.501
    1SIL  Si1kh19755   4.800   6.611   2.023
    1SIL  Si1ki19756   4.554   6.584   2.385
    1SIL  Si1kj19757   4.900   6.385   2.204
    1SIL  O03VN19758   4.700   6.561   2.449
    1SIL  O03VO19759   4.747   6.749   2.087
    1SIL  O03VP19760   4.560   6.696   2.268
    1SIL  O03VQ19761   4.806   6.499   2.139
    1SIL  O03VR19762   4.993   6.446   2.320
    1SIL  O03VS19763   4.946   6.634   2.501
    1SIL  Si1kk19764   4.554   7.036   2.023
    1SIL  Si1kl19765   4.308   7.010   2.385
    1SIL  Si1km19766   4.654   6.810   2.204
    1SIL  O03VT19767   4.454   6.986   2.449
    1SIL  O03VU19768   4.501   7.175   2.087
    1SIL  O03VV19769   4.315   7.121   2.268
    1SIL  O03VW19770   4.560   6.925   2.139
    1SIL  O03VX19771   4.747   6.872   2.320
    1SIL  O03VY19772   4.700   7.060   2.501
    1SIL  Si1kn19773   4.308   7.462   2.023
    1SIL  Si1ko19774   4.062   7.436   2.385
    1SIL  Si1kp19775   4.408   7.236   2.204
    1SIL  O03VZ19776   4.208   7.412   2.449
    1SIL  O03Va19777   4.256   7.600   2.087
    1SIL  O03Vb19778   4.069   7.547   2.268
    1SIL  O03Vc19779   4.315   7.351   2.139
    1SIL  O03Vd19780   4.501   7.297   2.320
    1SIL  O03Ve19781   4.454   7.486   2.501
    1SIL  Si1kq19782   4.062   7.888   2.023
    1SIL  Si1kr19783   3.817   7.861   2.385
    1SIL  Si1ks19784   4.162   7.662   2.204
    1SIL  O03Vf19785   3.963   7.838   2.449
    1SIL  O03Vg19786   4.010   8.026   2.087
    1SIL  O03Vh19787   3.823   7.973   2.268
    1SIL  O03Vi19788   4.069   7.776   2.139
    1SIL  O03Vj19789   4.256   7.723   2.320
    1SIL  O03Vk19790   4.208   7.911   2.501
    1SIL  Si1kt19791   3.817   8.313   2.023
    1SIL  Si1ku19792   3.571   8.287   2.385
    1SIL  Si1kv19793   3.917   8.087   2.204
    1SIL  O03Vl19794   3.717   8.263   2.449
    1SIL  O03Vm19795   3.764   8.452   2.087
    1SIL  O03Vn19796   3.577   8.398   2.268
    1SIL  O03Vo19797   3.823   8.202   2.139
    1SIL  O03Vp19798   4.010   8.149   2.320
    1SIL  O03Vq19799   3.963   8.337   2.501
    1SIL  Si1kw19800   3.571   8.739   2.023
    1SIL  Si1kx19801   3.325   8.713   2.385
    1SIL  Si1ky19802   3.671   8.513   2.204
    1SIL  O03Vr19803   3.471   8.689   2.449
    1SIL  O03Vs19804   3.518   8.877   2.087
    1SIL  O03Vt19805   3.332   8.824   2.268
    1SIL  O03Vu19806   3.577   8.628   2.139
    1SIL  O03Vv19807   3.764   8.574   2.320
    1SIL  O03Vw19808   3.717   8.763   2.501
    1SIL  Si1kz19809   3.325   9.165   2.023
    1SIL  Si1l019810   3.079   9.138   2.385
    1SIL  Si1l119811   3.425   8.939   2.204
    1SIL  O03Vx19812   3.225   9.115   2.449
    1SIL  O03Vy19813   3.273   9.303   2.087
    1SIL  O03Vz19814   3.086   9.250   2.268
    1SIL  O03W019815   3.332   9.053   2.139
    1SIL  O03W119816   3.518   9.000   2.320
    1SIL  O03W219817   3.471   9.188   2.501
    1SIL  Si1l219818   3.079   9.590   2.023
    1SIL  Si1l319819   2.834   9.564   2.385
    1SIL  Si1l419820   3.179   9.364   2.204
    1SIL  O03W319821   2.980   9.540   2.449
    1SIL  O03W419822   3.027   9.729   2.087
    1SIL  O03W519823   2.840   9.675   2.268
    1SIL  O03W619824   3.086   9.479   2.139
    1SIL  O03W719825   3.273   9.426   2.320
    1SIL  O03W819826   3.225   9.614   2.501
    1SIL  Si1l519827   8.977   0.226   2.023
    1SIL  Si1l619828   8.732   0.200   2.385
    1SIL  Si1l719829   9.077   0.000   2.204
    1SIL  O03W919830   8.878   0.176   2.449
    1SIL  O03WA19831   8.925   0.364   2.087
    1SIL  O03WB19832   8.738   0.311   2.268
    1SIL  O03WC19833   8.984   0.115   2.139
    1SIL  O03WD19834   9.171   0.061   2.320
    1SIL  O03WE19835   9.123   0.250   2.501
    1SIL  Si1l819836   8.732   0.652   2.023
    1SIL  Si1l919837   8.486   0.625   2.385
    1SIL  Si1lA19838   8.832   0.426   2.204
    1SIL  O03WF19839   8.632   0.602   2.449
    1SIL  O03WG19840   8.679   0.790   2.087
    1SIL  O03WH19841   8.492   0.737   2.268
    1SIL  O03WI19842   8.738   0.540   2.139
    1SIL  O03WJ19843   8.925   0.487   2.320
    1SIL  O03WK19844   8.878   0.675   2.501
    1SIL  Si1lB19845   8.486   1.077   2.023
    1SIL  Si1lC19846   8.240   1.051   2.385
    1SIL  Si1lD19847   8.586   0.851   2.204
    1SIL  O03WL19848   8.386   1.027   2.449
    1SIL  O03WM19849   8.433   1.216   2.087
    1SIL  O03WN19850   8.247   1.162   2.268
    1SIL  O03WO19851   8.492   0.966   2.139
    1SIL  O03WP19852   8.679   0.913   2.320
    1SIL  O03WQ19853   8.632   1.101   2.501
    1SIL  Si1lE19854   8.240   1.503   2.023
    1SIL  Si1lF19855   7.994   1.477   2.385
    1SIL  Si1lG19856   8.340   1.277   2.204
    1SIL  O03WR19857   8.140   1.453   2.449
    1SIL  O03WS19858   8.188   1.641   2.087
    1SIL  O03WT19859   8.001   1.588   2.268
    1SIL  O03WU19860   8.247   1.392   2.139
    1SIL  O03WV19861   8.433   1.338   2.320
    1SIL  O03WW19862   8.386   1.527   2.501
    1SIL  Si1lH19863   7.994   1.929   2.023
    1SIL  Si1lI19864   7.749   1.902   2.385
    1SIL  Si1lJ19865   8.094   1.703   2.204
    1SIL  O03WX19866   7.895   1.879   2.449
    1SIL  O03WY19867   7.942   2.067   2.087
    1SIL  O03WZ19868   7.755   2.014   2.268
    1SIL  O03Wa19869   8.001   1.817   2.139
    1SIL  O03Wb19870   8.188   1.764   2.320
    1SIL  O03Wc19871   8.140   1.952   2.501
    1SIL  Si1lK19872   7.749   2.354   2.023
    1SIL  Si1lL19873   7.503   2.328   2.385
    1SIL  Si1lM19874   7.849   2.128   2.204
    1SIL  O03Wd19875   7.649   2.304   2.449
    1SIL  O03We19876   7.696   2.493   2.087
    1SIL  O03Wf19877   7.509   2.439   2.268
    1SIL  O03Wg19878   7.755   2.243   2.139
    1SIL  O03Wh19879   7.942   2.190   2.320
    1SIL  O03Wi19880   7.895   2.378   2.501
    1SIL  Si1lN19881   7.503   2.780   2.023
    1SIL  Si1lO19882   7.257   2.753   2.385
    1SIL  Si1lP19883   7.603   2.554   2.204
    1SIL  O03Wj19884   7.403   2.730   2.449
    1SIL  O03Wk19885   7.450   2.918   2.087
    1SIL  O03Wl19886   7.264   2.865   2.268
    1SIL  O03Wm19887   7.509   2.668   2.139
    1SIL  O03Wn19888   7.696   2.615   2.320
    1SIL  O03Wo19889   7.649   2.804   2.501
    1SIL  Si1lQ19890   7.257   3.206   2.023
    1SIL  Si1lR19891   7.011   3.179   2.385
    1SIL  Si1lS19892   7.357   2.980   2.204
    1SIL  O03Wp19893   7.157   3.156   2.449
    1SIL  O03Wq19894   7.205   3.344   2.087
    1SIL  O03Wr19895   7.018   3.291   2.268
    1SIL  O03Ws19896   7.264   3.094   2.139
    1SIL  O03Wt19897   7.450   3.041   2.320
    1SIL  O03Wu19898   7.403   3.229   2.501
    1SIL  Si1lT19899   7.011   3.631   2.023
    1SIL  Si1lU19900   6.766   3.605   2.385
    1SIL  Si1lV19901   7.111   3.405   2.204
    1SIL  O03Wv19902   6.912   3.581   2.449
    1SIL  O03Ww19903   6.959   3.769   2.087
    1SIL  O03Wx19904   6.772   3.716   2.268
    1SIL  O03Wy19905   7.018   3.520   2.139
    1SIL  O03Wz19906   7.205   3.467   2.320
    1SIL  O03X019907   7.157   3.655   2.501
    1SIL  Si1lW19908   6.766   4.057   2.023
    1SIL  Si1lX19909   6.520   4.030   2.385
    1SIL  Si1lY19910   6.866   3.831   2.204
    1SIL  O03X119911   6.666   4.007   2.449
    1SIL  O03X219912   6.713   4.195   2.087
    1SIL  O03X319913   6.526   4.142   2.268
    1SIL  O03X419914   6.772   3.945   2.139
    1SIL  O03X519915   6.959   3.892   2.320
    1SIL  O03X619916   6.912   4.081   2.501
    1SIL  Si1lZ19917   6.520   4.483   2.023
    1SIL  Si1la19918   6.274   4.456   2.385
    1SIL  Si1lb19919   6.620   4.256   2.204
    1SIL  O03X719920   6.420   4.432   2.449
    1SIL  O03X819921   6.467   4.621   2.087
    1SIL  O03X919922   6.281   4.568   2.268
    1SIL  O03XA19923   6.526   4.371   2.139
    1SIL  O03XB19924   6.713   4.318   2.320
    1SIL  O03XC19925   6.666   4.506   2.501
    1SIL  Si1lc19926   6.274   4.908   2.023
    1SIL  Si1ld19927   6.028   4.882   2.385
    1SIL  Si1le19928   6.374   4.682   2.204
    1SIL  O03XD19929   6.174   4.858   2.449
    1SIL  O03XE19930   6.222   5.046   2.087
    1SIL  O03XF19931   6.035   4.993   2.268
    1SIL  O03XG19932   6.281   4.797   2.139
    1SIL  O03XH19933   6.467   4.744   2.320
    1SIL  O03XI19934   6.420   4.932   2.501
    1SIL  Si1lf19935   6.028   5.334   2.023
    1SIL  Si1lg19936   5.783   5.307   2.385
    1SIL  Si1lh19937   6.128   5.108   2.204
    1SIL  O03XJ19938   5.929   5.284   2.449
    1SIL  O03XK19939   5.976   5.472   2.087
    1SIL  O03XL19940   5.789   5.419   2.268
    1SIL  O03XM19941   6.035   5.222   2.139
    1SIL  O03XN19942   6.222   5.169   2.320
    1SIL  O03XO19943   6.174   5.357   2.501
    1SIL  Si1li19944   5.783   5.759   2.023
    1SIL  Si1lj19945   5.537   5.733   2.385
    1SIL  Si1lk19946   5.883   5.533   2.204
    1SIL  O03XP19947   5.683   5.709   2.449
    1SIL  O03XQ19948   5.730   5.898   2.087
    1SIL  O03XR19949   5.543   5.844   2.268
    1SIL  O03XS19950   5.789   5.648   2.139
    1SIL  O03XT19951   5.976   5.595   2.320
    1SIL  O03XU19952   5.929   5.783   2.501
    1SIL  Si1ll19953   5.537   6.185   2.023
    1SIL  Si1lm19954   5.291   6.159   2.385
    1SIL  Si1ln19955   5.637   5.959   2.204
    1SIL  O03XV19956   5.437   6.135   2.449
    1SIL  O03XW19957   5.484   6.323   2.087
    1SIL  O03XX19958   5.298   6.270   2.268
    1SIL  O03XY19959   5.543   6.074   2.139
    1SIL  O03XZ19960   5.730   6.020   2.320
    1SIL  O03Xa19961   5.683   6.209   2.501
    1SIL  Si1lo19962   5.291   6.611   2.023
    1SIL  Si1lp19963   5.045   6.584   2.385
    1SIL  Si1lq19964   5.391   6.385   2.204
    1SIL  O03Xb19965   5.191   6.561   2.449
    1SIL  O03Xc19966   5.239   6.749   2.087
    1SIL  O03Xd19967   5.052   6.696   2.268
    1SIL  O03Xe19968   5.298   6.499   2.139
    1SIL  O03Xf19969   5.484   6.446   2.320
    1SIL  O03Xg19970   5.437   6.634   2.501
    1SIL  Si1lr19971   5.045   7.036   2.023
    1SIL  Si1ls19972   4.800   7.010   2.385
    1SIL  Si1lt19973   5.145   6.810   2.204
    1SIL  O03Xh19974   4.946   6.986   2.449
    1SIL  O03Xi19975   4.993   7.175   2.087
    1SIL  O03Xj19976   4.806   7.121   2.268
    1SIL  O03Xk19977   5.052   6.925   2.139
    1SIL  O03Xl19978   5.239   6.872   2.320
    1SIL  O03Xm19979   5.191   7.060   2.501
    1SIL  Si1lu19980   4.800   7.462   2.023
    1SIL  Si1lv19981   4.554   7.436   2.385
    1SIL  Si1lw19982   4.900   7.236   2.204
    1SIL  O03Xn19983   4.700   7.412   2.449
    1SIL  O03Xo19984   4.747   7.600   2.087
    1SIL  O03Xp19985   4.560   7.547   2.268
    1SIL  O03Xq19986   4.806   7.351   2.139
    1SIL  O03Xr19987   4.993   7.297   2.320
    1SIL  O03Xs19988   4.946   7.486   2.501
    1SIL  Si1lx19989   4.554   7.888   2.023
    1SIL  Si1ly19990   4.308   7.861   2.385
    1SIL  Si1lz19991   4.654   7.662   2.204
    1SIL  O03Xt19992   4.454   7.838   2.449
    1SIL  O03Xu19993   4.501   8.026   2.087
    1SIL  O03Xv19994   4.315   7.973   2.268
    1SIL  O03Xw19995   4.560   7.776   2.139
    1SIL  O03Xx19996   4.747   7.723   2.320
    1SIL  O03Xy19997   4.700   7.911   2.501
    1SIL  Si1m019998   4.308   8.313   2.023
    1SIL  Si1m119999   4.062   8.287   2.385
    1SIL  Si1m220000   4.408   8.087   2.204
    1SIL  O03Xz20001   4.208   8.263   2.449
    1SIL  O03Y020002   4.256   8.452   2.087
    1SIL  O03Y120003   4.069   8.398   2.268
    1SIL  O03Y220004   4.315   8.202   2.139
    1SIL  O03Y320005   4.501   8.149   2.320
    1SIL  O03Y420006   4.454   8.337   2.501
    1SIL  Si1m320007   4.062   8.739   2.023
    1SIL  Si1m420008   3.817   8.713   2.385
    1SIL  Si1m520009   4.162   8.513   2.204
    1SIL  O03Y520010   3.963   8.689   2.449
    1SIL  O03Y620011   4.010   8.877   2.087
    1SIL  O03Y720012   3.823   8.824   2.268
    1SIL  O03Y820013   4.069   8.628   2.139
    1SIL  O03Y920014   4.256   8.574   2.320
    1SIL  O03YA20015   4.208   8.763   2.501
    1SIL  Si1m620016   3.817   9.165   2.023
    1SIL  Si1m720017   3.571   9.138   2.385
    1SIL  Si1m820018   3.917   8.939   2.204
    1SIL  O03YB20019   3.717   9.115   2.449
    1SIL  O03YC20020   3.764   9.303   2.087
    1SIL  O03YD20021   3.577   9.250   2.268
    1SIL  O03YE20022   3.823   9.053   2.139
    1SIL  O03YF20023   4.010   9.000   2.320
    1SIL  O03YG20024   3.963   9.188   2.501
    1SIL  Si1m920025   3.571   9.590   2.023
    1SIL  Si1mA20026   3.325   9.564   2.385
    1SIL  Si1mB20027   3.671   9.364   2.204
    1SIL  O03YH20028   3.471   9.540   2.449
    1SIL  O03YI20029   3.518   9.729   2.087
    1SIL  O03YJ20030   3.332   9.675   2.268
    1SIL  O03YK20031   3.577   9.479   2.139
    1SIL  O03YL20032   3.764   9.426   2.320
    1SIL  O03YM20033   3.717   9.614   2.501
    1SIL  Si1mC20034   9.469   0.226   2.023
    1SIL  Si1mD20035   9.223   0.200   2.385
    1SIL  Si1mE20036   9.569   0.000   2.204
    1SIL  O03YN20037   9.369   0.176   2.449
    1SIL  O03YO20038   9.416   0.364   2.087
    1SIL  O03YP20039   9.230   0.311   2.268
    1SIL  O03YQ20040   9.475   0.115   2.139
    1SIL  O03YR20041   9.662   0.061   2.320
    1SIL  O03YS20042   9.615   0.250   2.501
    1SIL  Si1mF20043   9.223   0.652   2.023
    1SIL  Si1mG20044   8.977   0.625   2.385
    1SIL  Si1mH20045   9.323   0.426   2.204
    1SIL  O03YT20046   9.123   0.602   2.449
    1SIL  O03YU20047   9.171   0.790   2.087
    1SIL  O03YV20048   8.984   0.737   2.268
    1SIL  O03YW20049   9.230   0.540   2.139
    1SIL  O03YX20050   9.416   0.487   2.320
    1SIL  O03YY20051   9.369   0.675   2.501
    1SIL  Si1mI20052   8.977   1.077   2.023
    1SIL  Si1mJ20053   8.732   1.051   2.385
    1SIL  Si1mK20054   9.077   0.851   2.204
    1SIL  O03YZ20055   8.878   1.027   2.449
    1SIL  O03Ya20056   8.925   1.216   2.087
    1SIL  O03Yb20057   8.738   1.162   2.268
    1SIL  O03Yc20058   8.984   0.966   2.139
    1SIL  O03Yd20059   9.171   0.913   2.320
    1SIL  O03Ye20060   9.123   1.101   2.501
    1SIL  Si1mL20061   8.732   1.503   2.023
    1SIL  Si1mM20062   8.486   1.477   2.385
    1SIL  Si1mN20063   8.832   1.277   2.204
    1SIL  O03Yf20064   8.632   1.453   2.449
    1SIL  O03Yg20065   8.679   1.641   2.087
    1SIL  O03Yh20066   8.492   1.588   2.268
    1SIL  O03Yi20067   8.738   1.392   2.139
    1SIL  O03Yj20068   8.925   1.338   2.320
    1SIL  O03Yk20069   8.878   1.527   2.501
    1SIL  Si1mO20070   8.486   1.929   2.023
    1SIL  Si1mP20071   8.240   1.902   2.385
    1SIL  Si1mQ20072   8.586   1.703   2.204
    1SIL  O03Yl20073   8.386   1.879   2.449
    1SIL  O03Ym20074   8.433   2.067   2.087
    1SIL  O03Yn20075   8.247   2.014   2.268
    1SIL  O03Yo20076   8.492   1.817   2.139
    1SIL  O03Yp20077   8.679   1.764   2.320
    1SIL  O03Yq20078   8.632   1.952   2.501
    1SIL  Si1mR20079   8.240   2.354   2.023
    1SIL  Si1mS20080   7.994   2.328   2.385
    1SIL  Si1mT20081   8.340   2.128   2.204
    1SIL  O03Yr20082   8.140   2.304   2.449
    1SIL  O03Ys20083   8.188   2.493   2.087
    1SIL  O03Yt20084   8.001   2.439   2.268
    1SIL  O03Yu20085   8.247   2.243   2.139
    1SIL  O03Yv20086   8.433   2.190   2.320
    1SIL  O03Yw20087   8.386   2.378   2.501
    1SIL  Si1mU20088   7.994   2.780   2.023
    1SIL  Si1mV20089   7.749   2.753   2.385
    1SIL  Si1mW20090   8.094   2.554   2.204
    1SIL  O03Yx20091   7.895   2.730   2.449
    1SIL  O03Yy20092   7.942   2.918   2.087
    1SIL  O03Yz20093   7.755   2.865   2.268
    1SIL  O03Z020094   8.001   2.668   2.139
    1SIL  O03Z120095   8.188   2.615   2.320
    1SIL  O03Z220096   8.140   2.804   2.501
    1SIL  Si1mX20097   7.749   3.206   2.023
    1SIL  Si1mY20098   7.503   3.179   2.385
    1SIL  Si1mZ20099   7.849   2.980   2.204
    1SIL  O03Z320100   7.649   3.156   2.449
    1SIL  O03Z420101   7.696   3.344   2.087
    1SIL  O03Z520102   7.509   3.291   2.268
    1SIL  O03Z620103   7.755   3.094   2.139
    1SIL  O03Z720104   7.942   3.041   2.320
    1SIL  O03Z820105   7.895   3.229   2.501
    1SIL  Si1ma20106   7.503   3.631   2.023
    1SIL  Si1mb20107   7.257   3.605   2.385
    1SIL  Si1mc20108   7.603   3.405   2.204
    1SIL  O03Z920109   7.403   3.581   2.449
    1SIL  O03ZA20110   7.450   3.769   2.087
    1SIL  O03ZB20111   7.264   3.716   2.268
    1SIL  O03ZC20112   7.509   3.520   2.139
    1SIL  O03ZD20113   7.696   3.467   2.320
    1SIL  O03ZE20114   7.649   3.655   2.501
    1SIL  Si1md20115   7.257   4.057   2.023
    1SIL  Si1me20116   7.011   4.030   2.385
    1SIL  Si1mf20117   7.357   3.831   2.204
    1SIL  O03ZF20118   7.157   4.007   2.449
    1SIL  O03ZG20119   7.205   4.195   2.087
    1SIL  O03ZH20120   7.018   4.142   2.268
    1SIL  O03ZI20121   7.264   3.945   2.139
    1SIL  O03ZJ20122   7.450   3.892   2.320
    1SIL  O03ZK20123   7.403   4.081   2.501
    1SIL  Si1mg20124   7.011   4.483   2.023
    1SIL  Si1mh20125   6.766   4.456   2.385
    1SIL  Si1mi20126   7.111   4.256   2.204
    1SIL  O03ZL20127   6.912   4.432   2.449
    1SIL  O03ZM20128   6.959   4.621   2.087
    1SIL  O03ZN20129   6.772   4.568   2.268
    1SIL  O03ZO20130   7.018   4.371   2.139
    1SIL  O03ZP20131   7.205   4.318   2.320
    1SIL  O03ZQ20132   7.157   4.506   2.501
    1SIL  Si1mj20133   6.766   4.908   2.023
    1SIL  Si1mk20134   6.520   4.882   2.385
    1SIL  Si1ml20135   6.866   4.682   2.204
    1SIL  O03ZR20136   6.666   4.858   2.449
    1SIL  O03ZS20137   6.713   5.046   2.087
    1SIL  O03ZT20138   6.526   4.993   2.268
    1SIL  O03ZU20139   6.772   4.797   2.139
    1SIL  O03ZV20140   6.959   4.744   2.320
    1SIL  O03ZW20141   6.912   4.932   2.501
    1SIL  Si1mm20142   6.520   5.334   2.023
    1SIL  Si1mn20143   6.274   5.307   2.385
    1SIL  Si1mo20144   6.620   5.108   2.204
    1SIL  O03ZX20145   6.420   5.284   2.449
    1SIL  O03ZY20146   6.467   5.472   2.087
    1SIL  O03ZZ20147   6.281   5.419   2.268
    1SIL  O03Za20148   6.526   5.222   2.139
    1SIL  O03Zb20149   6.713   5.169   2.320
    1SIL  O03Zc20150   6.666   5.357   2.501
    1SIL  Si1mp20151   6.274   5.759   2.023
    1SIL  Si1mq20152   6.028   5.733   2.385
    1SIL  Si1mr20153   6.374   5.533   2.204
    1SIL  O03Zd20154   6.174   5.709   2.449
    1SIL  O03Ze20155   6.222   5.898   2.087
    1SIL  O03Zf20156   6.035   5.844   2.268
    1SIL  O03Zg20157   6.281   5.648   2.139
    1SIL  O03Zh20158   6.467   5.595   2.320
    1SIL  O03Zi20159   6.420   5.783   2.501
    1SIL  Si1ms20160   6.028   6.185   2.023
    1SIL  Si1mt20161   5.783   6.159   2.385
    1SIL  Si1mu20162   6.128   5.959   2.204
    1SIL  O03Zj20163   5.929   6.135   2.449
    1SIL  O03Zk20164   5.976   6.323   2.087
    1SIL  O03Zl20165   5.789   6.270   2.268
    1SIL  O03Zm20166   6.035   6.074   2.139
    1SIL  O03Zn20167   6.222   6.020   2.320
    1SIL  O03Zo20168   6.174   6.209   2.501
    1SIL  Si1mv20169   5.783   6.611   2.023
    1SIL  Si1mw20170   5.537   6.584   2.385
    1SIL  Si1mx20171   5.883   6.385   2.204
    1SIL  O03Zp20172   5.683   6.561   2.449
    1SIL  O03Zq20173   5.730   6.749   2.087
    1SIL  O03Zr20174   5.543   6.696   2.268
    1SIL  O03Zs20175   5.789   6.499   2.139
    1SIL  O03Zt20176   5.976   6.446   2.320
    1SIL  O03Zu20177   5.929   6.634   2.501
    1SIL  Si1my20178   5.537   7.036   2.023
    1SIL  Si1mz20179   5.291   7.010   2.385
    1SIL  Si1n020180   5.637   6.810   2.204
    1SIL  O03Zv20181   5.437   6.986   2.449
    1SIL  O03Zw20182   5.484   7.175   2.087
    1SIL  O03Zx20183   5.298   7.121   2.268
    1SIL  O03Zy20184   5.543   6.925   2.139
    1SIL  O03Zz20185   5.730   6.872   2.320
    1SIL  O03a020186   5.683   7.060   2.501
    1SIL  Si1n120187   5.291   7.462   2.023
    1SIL  Si1n220188   5.045   7.436   2.385
    1SIL  Si1n320189   5.391   7.236   2.204
    1SIL  O03a120190   5.191   7.412   2.449
    1SIL  O03a220191   5.239   7.600   2.087
    1SIL  O03a320192   5.052   7.547   2.268
    1SIL  O03a420193   5.298   7.351   2.139
    1SIL  O03a520194   5.484   7.297   2.320
    1SIL  O03a620195   5.437   7.486   2.501
    1SIL  Si1n420196   5.045   7.888   2.023
    1SIL  Si1n520197   4.800   7.861   2.385
    1SIL  Si1n620198   5.145   7.662   2.204
    1SIL  O03a720199   4.946   7.838   2.449
    1SIL  O03a820200   4.993   8.026   2.087
    1SIL  O03a920201   4.806   7.973   2.268
    1SIL  O03aA20202   5.052   7.776   2.139
    1SIL  O03aB20203   5.239   7.723   2.320
    1SIL  O03aC20204   5.191   7.911   2.501
    1SIL  Si1n720205   4.800   8.313   2.023
    1SIL  Si1n820206   4.554   8.287   2.385
    1SIL  Si1n920207   4.900   8.087   2.204
    1SIL  O03aD20208   4.700   8.263   2.449
    1SIL  O03aE20209   4.747   8.452   2.087
    1SIL  O03aF20210   4.560   8.398   2.268
    1SIL  O03aG20211   4.806   8.202   2.139
    1SIL  O03aH20212   4.993   8.149   2.320
    1SIL  O03aI20213   4.946   8.337   2.501
    1SIL  Si1nA20214   4.554   8.739   2.023
    1SIL  Si1nB20215   4.308   8.713   2.385
    1SIL  Si1nC20216   4.654   8.513   2.204
    1SIL  O03aJ20217   4.454   8.689   2.449
    1SIL  O03aK20218   4.501   8.877   2.087
    1SIL  O03aL20219   4.315   8.824   2.268
    1SIL  O03aM20220   4.560   8.628   2.139
    1SIL  O03aN20221   4.747   8.574   2.320
    1SIL  O03aO20222   4.700   8.763   2.501
    1SIL  Si1nD20223   4.308   9.165   2.023
    1SIL  Si1nE20224   4.062   9.138   2.385
    1SIL  Si1nF20225   4.408   8.939   2.204
    1SIL  O03aP20226   4.208   9.115   2.449
    1SIL  O03aQ20227   4.256   9.303   2.087
    1SIL  O03aR20228   4.069   9.250   2.268
    1SIL  O03aS20229   4.315   9.053   2.139
    1SIL  O03aT20230   4.501   9.000   2.320
    1SIL  O03aU20231   4.454   9.188   2.501
    1SIL  Si1nG20232   4.062   9.590   2.023
    1SIL  Si1nH20233   3.817   9.564   2.385
    1SIL  Si1nI20234   4.162   9.364   2.204
    1SIL  O03aV20235   3.963   9.540   2.449
    1SIL  O03aW20236   4.010   9.729   2.087
    1SIL  O03aX20237   3.823   9.675   2.268
    1SIL  O03aY20238   4.069   9.479   2.139
    1SIL  O03aZ20239   4.256   9.426   2.320
    1SIL  O03aa20240   4.208   9.614   2.501
    1SIL  Si1nJ20241   0.131   0.226   2.566
    1SIL  Si1nK20242   9.715   0.200   2.928
    1SIL  Si1nL20243   0.230   0.000   2.747
    1SIL  O03ab20244   0.031   0.176   2.992
    1SIL  O03ac20245   0.078   0.364   2.630
    1SIL  O03ad20246   9.721   0.311   2.811
    1SIL  O03ae20247   0.137   0.115   2.682
    1SIL  O03af20248   0.324   0.061   2.864
    1SIL  O03ag20249   0.276   0.250   3.045
    1SIL  Si1nM20250   9.715   0.652   2.566
    1SIL  Si1nN20251   9.469   0.625   2.928
    1SIL  Si1nO20252   9.815   0.426   2.747
    1SIL  O03ah20253   9.615   0.602   2.992
    1SIL  O03ai20254   9.662   0.790   2.630
    1SIL  O03aj20255   9.475   0.737   2.811
    1SIL  O03ak20256   9.721   0.540   2.682
    1SIL  O03al20257   0.078   0.487   2.864
    1SIL  O03am20258   0.031   0.675   3.045
    1SIL  Si1nP20259   9.469   1.077   2.566
    1SIL  Si1nQ20260   9.223   1.051   2.928
    1SIL  Si1nR20261   9.569   0.851   2.747
    1SIL  O03an20262   9.369   1.027   2.992
    1SIL  O03ao20263   9.416   1.216   2.630
    1SIL  O03ap20264   9.230   1.162   2.811
    1SIL  O03aq20265   9.475   0.966   2.682
    1SIL  O03ar20266   9.662   0.913   2.864
    1SIL  O03as20267   9.615   1.101   3.045
    1SIL  Si1nS20268   9.223   1.503   2.566
    1SIL  Si1nT20269   8.977   1.477   2.928
    1SIL  Si1nU20270   9.323   1.277   2.747
    1SIL  O03at20271   9.123   1.453   2.992
    1SIL  O03au20272   9.171   1.641   2.630
    1SIL  O03av20273   8.984   1.588   2.811
    1SIL  O03aw20274   9.230   1.392   2.682
    1SIL  O03ax20275   9.416   1.338   2.864
    1SIL  O03ay20276   9.369   1.527   3.045
    1SIL  Si1nV20277   8.977   1.929   2.566
    1SIL  Si1nW20278   8.732   1.902   2.928
    1SIL  Si1nX20279   9.077   1.703   2.747
    1SIL  O03az20280   8.878   1.879   2.992
    1SIL  O03b020281   8.925   2.067   2.630
    1SIL  O03b120282   8.738   2.014   2.811
    1SIL  O03b220283   8.984   1.817   2.682
    1SIL  O03b320284   9.171   1.764   2.864
    1SIL  O03b420285   9.123   1.952   3.045
    1SIL  Si1nY20286   8.732   2.354   2.566
    1SIL  Si1nZ20287   8.486   2.328   2.928
    1SIL  Si1na20288   8.832   2.128   2.747
    1SIL  O03b520289   8.632   2.304   2.992
    1SIL  O03b620290   8.679   2.493   2.630
    1SIL  O03b720291   8.492   2.439   2.811
    1SIL  O03b820292   8.738   2.243   2.682
    1SIL  O03b920293   8.925   2.190   2.864
    1SIL  O03bA20294   8.878   2.378   3.045
    1SIL  Si1nb20295   8.486   2.780   2.566
    1SIL  Si1nc20296   8.240   2.753   2.928
    1SIL  Si1nd20297   8.586   2.554   2.747
    1SIL  O03bB20298   8.386   2.730   2.992
    1SIL  O03bC20299   8.433   2.918   2.630
    1SIL  O03bD20300   8.247   2.865   2.811
    1SIL  O03bE20301   8.492   2.668   2.682
    1SIL  O03bF20302   8.679   2.615   2.864
    1SIL  O03bG20303   8.632   2.804   3.045
    1SIL  Si1ne20304   8.240   3.206   2.566
    1SIL  Si1nf20305   7.994   3.179   2.928
    1SIL  Si1ng20306   8.340   2.980   2.747
    1SIL  O03bH20307   8.140   3.156   2.992
    1SIL  O03bI20308   8.188   3.344   2.630
    1SIL  O03bJ20309   8.001   3.291   2.811
    1SIL  O03bK20310   8.247   3.094   2.682
    1SIL  O03bL20311   8.433   3.041   2.864
    1SIL  O03bM20312   8.386   3.229   3.045
    1SIL  Si1nh20313   7.994   3.631   2.566
    1SIL  Si1ni20314   7.749   3.605   2.928
    1SIL  Si1nj20315   8.094   3.405   2.747
    1SIL  O03bN20316   7.895   3.581   2.992
    1SIL  O03bO20317   7.942   3.769   2.630
    1SIL  O03bP20318   7.755   3.716   2.811
    1SIL  O03bQ20319   8.001   3.520   2.682
    1SIL  O03bR20320   8.188   3.467   2.864
    1SIL  O03bS20321   8.140   3.655   3.045
    1SIL  Si1nk20322   7.749   4.057   2.566
    1SIL  Si1nl20323   7.503   4.030   2.928
    1SIL  Si1nm20324   7.849   3.831   2.747
    1SIL  O03bT20325   7.649   4.007   2.992
    1SIL  O03bU20326   7.696   4.195   2.630
    1SIL  O03bV20327   7.509   4.142   2.811
    1SIL  O03bW20328   7.755   3.945   2.682
    1SIL  O03bX20329   7.942   3.892   2.864
    1SIL  O03bY20330   7.895   4.081   3.045
    1SIL  Si1nn20331   7.503   4.483   2.566
    1SIL  Si1no20332   7.257   4.456   2.928
    1SIL  Si1np20333   7.603   4.256   2.747
    1SIL  O03bZ20334   7.403   4.432   2.992
    1SIL  O03ba20335   7.450   4.621   2.630
    1SIL  O03bb20336   7.264   4.568   2.811
    1SIL  O03bc20337   7.509   4.371   2.682
    1SIL  O03bd20338   7.696   4.318   2.864
    1SIL  O03be20339   7.649   4.506   3.045
    1SIL  Si1nq20340   7.257   4.908   2.566
    1SIL  Si1nr20341   7.011   4.882   2.928
    1SIL  Si1ns20342   7.357   4.682   2.747
    1SIL  O03bf20343   7.157   4.858   2.992
    1SIL  O03bg20344   7.205   5.046   2.630
    1SIL  O03bh20345   7.018   4.993   2.811
    1SIL  O03bi20346   7.264   4.797   2.682
    1SIL  O03bj20347   7.450   4.744   2.864
    1SIL  O03bk20348   7.403   4.932   3.045
    1SIL  Si1nt20349   7.011   5.334   2.566
    1SIL  Si1nu20350   6.766   5.307   2.928
    1SIL  Si1nv20351   7.111   5.108   2.747
    1SIL  O03bl20352   6.912   5.284   2.992
    1SIL  O03bm20353   6.959   5.472   2.630
    1SIL  O03bn20354   6.772   5.419   2.811
    1SIL  O03bo20355   7.018   5.222   2.682
    1SIL  O03bp20356   7.205   5.169   2.864
    1SIL  O03bq20357   7.157   5.357   3.045
    1SIL  Si1nw20358   6.766   5.759   2.566
    1SIL  Si1nx20359   6.520   5.733   2.928
    1SIL  Si1ny20360   6.866   5.533   2.747
    1SIL  O03br20361   6.666   5.709   2.992
    1SIL  O03bs20362   6.713   5.898   2.630
    1SIL  O03bt20363   6.526   5.844   2.811
    1SIL  O03bu20364   6.772   5.648   2.682
    1SIL  O03bv20365   6.959   5.595   2.864
    1SIL  O03bw20366   6.912   5.783   3.045
    1SIL  Si1nz20367   6.520   6.185   2.566
    1SIL  Si1o020368   6.274   6.159   2.928
    1SIL  Si1o120369   6.620   5.959   2.747
    1SIL  O03bx20370   6.420   6.135   2.992
    1SIL  O03by20371   6.467   6.323   2.630
    1SIL  O03bz20372   6.281   6.270   2.811
    1SIL  O03c020373   6.526   6.074   2.682
    1SIL  O03c120374   6.713   6.020   2.864
    1SIL  O03c220375   6.666   6.209   3.045
    1SIL  Si1o220376   6.274   6.611   2.566
    1SIL  Si1o320377   6.028   6.584   2.928
    1SIL  Si1o420378   6.374   6.385   2.747
    1SIL  O03c320379   6.174   6.561   2.992
    1SIL  O03c420380   6.222   6.749   2.630
    1SIL  O03c520381   6.035   6.696   2.811
    1SIL  O03c620382   6.281   6.499   2.682
    1SIL  O03c720383   6.467   6.446   2.864
    1SIL  O03c820384   6.420   6.634   3.045
    1SIL  Si1o520385   6.028   7.036   2.566
    1SIL  Si1o620386   5.783   7.010   2.928
    1SIL  Si1o720387   6.128   6.810   2.747
    1SIL  O03c920388   5.929   6.986   2.992
    1SIL  O03cA20389   5.976   7.175   2.630
    1SIL  O03cB20390   5.789   7.121   2.811
    1SIL  O03cC20391   6.035   6.925   2.682
    1SIL  O03cD20392   6.222   6.872   2.864
    1SIL  O03cE20393   6.174   7.060   3.045
    1SIL  Si1o820394   5.783   7.462   2.566
    1SIL  Si1o920395   5.537   7.436   2.928
    1SIL  Si1oA20396   5.883   7.236   2.747
    1SIL  O03cF20397   5.683   7.412   2.992
    1SIL  O03cG20398   5.730   7.600   2.630
    1SIL  O03cH20399   5.543   7.547   2.811
    1SIL  O03cI20400   5.789   7.351   2.682
    1SIL  O03cJ20401   5.976   7.297   2.864
    1SIL  O03cK20402   5.929   7.486   3.045
    1SIL  Si1oB20403   5.537   7.888   2.566
    1SIL  Si1oC20404   5.291   7.861   2.928
    1SIL  Si1oD20405   5.637   7.662   2.747
    1SIL  O03cL20406   5.437   7.838   2.992
    1SIL  O03cM20407   5.484   8.026   2.630
    1SIL  O03cN20408   5.298   7.973   2.811
    1SIL  O03cO20409   5.543   7.776   2.682
    1SIL  O03cP20410   5.730   7.723   2.864
    1SIL  O03cQ20411   5.683   7.911   3.045
    1SIL  Si1oE20412   5.291   8.313   2.566
    1SIL  Si1oF20413   5.045   8.287   2.928
    1SIL  Si1oG20414   5.391   8.087   2.747
    1SIL  O03cR20415   5.191   8.263   2.992
    1SIL  O03cS20416   5.239   8.452   2.630
    1SIL  O03cT20417   5.052   8.398   2.811
    1SIL  O03cU20418   5.298   8.202   2.682
    1SIL  O03cV20419   5.484   8.149   2.864
    1SIL  O03cW20420   5.437   8.337   3.045
    1SIL  Si1oH20421   5.045   8.739   2.566
    1SIL  Si1oI20422   4.800   8.713   2.928
    1SIL  Si1oJ20423   5.145   8.513   2.747
    1SIL  O03cX20424   4.946   8.689   2.992
    1SIL  O03cY20425   4.993   8.877   2.630
    1SIL  O03cZ20426   4.806   8.824   2.811
    1SIL  O03ca20427   5.052   8.628   2.682
    1SIL  O03cb20428   5.239   8.574   2.864
    1SIL  O03cc20429   5.191   8.763   3.045
    1SIL  Si1oK20430   4.800   9.165   2.566
    1SIL  Si1oL20431   4.554   9.138   2.928
    1SIL  Si1oM20432   4.900   8.939   2.747
    1SIL  O03cd20433   4.700   9.115   2.992
    1SIL  O03ce20434   4.747   9.303   2.630
    1SIL  O03cf20435   4.560   9.250   2.811
    1SIL  O03cg20436   4.806   9.053   2.682
    1SIL  O03ch20437   4.993   9.000   2.864
    1SIL  O03ci20438   4.946   9.188   3.045
    1SIL  Si1oN20439   4.554   9.590   2.566
    1SIL  Si1oO20440   4.308   9.564   2.928
    1SIL  Si1oP20441   4.654   9.364   2.747
    1SIL  O03cj20442   4.454   9.540   2.992
    1SIL  O03ck20443   4.501   9.729   2.630
    1SIL  O03cl20444   4.315   9.675   2.811
    1SIL  O03cm20445   4.560   9.479   2.682
    1SIL  O03cn20446   4.747   9.426   2.864
    1SIL  O03co20447   4.700   9.614   3.045
    1SIL  Si1oQ20448   0.622   0.226   2.566
    1SIL  Si1oR20449   0.376   0.200   2.928
    1SIL  Si1oS20450   0.722   0.000   2.747
    1SIL  O03cp20451   0.522   0.176   2.992
    1SIL  O03cq20452   0.569   0.364   2.630
    1SIL  O03cr20453   0.383   0.311   2.811
    1SIL  O03cs20454   0.629   0.115   2.682
    1SIL  O03ct20455   0.815   0.061   2.864
    1SIL  O03cu20456   0.768   0.250   3.045
    1SIL  Si1oT20457   0.376   0.652   2.566
    1SIL  Si1oU20458   0.131   0.625   2.928
    1SIL  Si1oV20459   0.476   0.426   2.747
    1SIL  O03cv20460   0.276   0.602   2.992
    1SIL  O03cw20461   0.324   0.790   2.630
    1SIL  O03cx20462   0.137   0.737   2.811
    1SIL  O03cy20463   0.383   0.540   2.682
    1SIL  O03cz20464   0.569   0.487   2.864
    1SIL  O03d020465   0.522   0.675   3.045
    1SIL  Si1oW20466   0.131   1.077   2.566
    1SIL  Si1oX20467   9.715   1.051   2.928
    1SIL  Si1oY20468   0.230   0.851   2.747
    1SIL  O03d120469   0.031   1.027   2.992
    1SIL  O03d220470   0.078   1.216   2.630
    1SIL  O03d320471   9.721   1.162   2.811
    1SIL  O03d420472   0.137   0.966   2.682
    1SIL  O03d520473   0.324   0.913   2.864
    1SIL  O03d620474   0.276   1.101   3.045
    1SIL  Si1oZ20475   9.715   1.503   2.566
    1SIL  Si1oa20476   9.469   1.477   2.928
    1SIL  Si1ob20477   9.815   1.277   2.747
    1SIL  O03d720478   9.615   1.453   2.992
    1SIL  O03d820479   9.662   1.641   2.630
    1SIL  O03d920480   9.475   1.588   2.811
    1SIL  O03dA20481   9.721   1.392   2.682
    1SIL  O03dB20482   0.078   1.338   2.864
    1SIL  O03dC20483   0.031   1.527   3.045
    1SIL  Si1oc20484   9.469   1.929   2.566
    1SIL  Si1od20485   9.223   1.902   2.928
    1SIL  Si1oe20486   9.569   1.703   2.747
    1SIL  O03dD20487   9.369   1.879   2.992
    1SIL  O03dE20488   9.416   2.067   2.630
    1SIL  O03dF20489   9.230   2.014   2.811
    1SIL  O03dG20490   9.475   1.817   2.682
    1SIL  O03dH20491   9.662   1.764   2.864
    1SIL  O03dI20492   9.615   1.952   3.045
    1SIL  Si1of20493   9.223   2.354   2.566
    1SIL  Si1og20494   8.977   2.328   2.928
    1SIL  Si1oh20495   9.323   2.128   2.747
    1SIL  O03dJ20496   9.123   2.304   2.992
    1SIL  O03dK20497   9.171   2.493   2.630
    1SIL  O03dL20498   8.984   2.439   2.811
    1SIL  O03dM20499   9.230   2.243   2.682
    1SIL  O03dN20500   9.416   2.190   2.864
    1SIL  O03dO20501   9.369   2.378   3.045
    1SIL  Si1oi20502   8.977   2.780   2.566
    1SIL  Si1oj20503   8.732   2.753   2.928
    1SIL  Si1ok20504   9.077   2.554   2.747
    1SIL  O03dP20505   8.878   2.730   2.992
    1SIL  O03dQ20506   8.925   2.918   2.630
    1SIL  O03dR20507   8.738   2.865   2.811
    1SIL  O03dS20508   8.984   2.668   2.682
    1SIL  O03dT20509   9.171   2.615   2.864
    1SIL  O03dU20510   9.123   2.804   3.045
    1SIL  Si1ol20511   8.732   3.206   2.566
    1SIL  Si1om20512   8.486   3.179   2.928
    1SIL  Si1on20513   8.832   2.980   2.747
    1SIL  O03dV20514   8.632   3.156   2.992
    1SIL  O03dW20515   8.679   3.344   2.630
    1SIL  O03dX20516   8.492   3.291   2.811
    1SIL  O03dY20517   8.738   3.094   2.682
    1SIL  O03dZ20518   8.925   3.041   2.864
    1SIL  O03da20519   8.878   3.229   3.045
    1SIL  Si1oo20520   8.486   3.631   2.566
    1SIL  Si1op20521   8.240   3.605   2.928
    1SIL  Si1oq20522   8.586   3.405   2.747
    1SIL  O03db20523   8.386   3.581   2.992
    1SIL  O03dc20524   8.433   3.769   2.630
    1SIL  O03dd20525   8.247   3.716   2.811
    1SIL  O03de20526   8.492   3.520   2.682
    1SIL  O03df20527   8.679   3.467   2.864
    1SIL  O03dg20528   8.632   3.655   3.045
    1SIL  Si1or20529   8.240   4.057   2.566
    1SIL  Si1os20530   7.994   4.030   2.928
    1SIL  Si1ot20531   8.340   3.831   2.747
    1SIL  O03dh20532   8.140   4.007   2.992
    1SIL  O03di20533   8.188   4.195   2.630
    1SIL  O03dj20534   8.001   4.142   2.811
    1SIL  O03dk20535   8.247   3.945   2.682
    1SIL  O03dl20536   8.433   3.892   2.864
    1SIL  O03dm20537   8.386   4.081   3.045
    1SIL  Si1ou20538   7.994   4.483   2.566
    1SIL  Si1ov20539   7.749   4.456   2.928
    1SIL  Si1ow20540   8.094   4.256   2.747
    1SIL  O03dn20541   7.895   4.432   2.992
    1SIL  O03do20542   7.942   4.621   2.630
    1SIL  O03dp20543   7.755   4.568   2.811
    1SIL  O03dq20544   8.001   4.371   2.682
    1SIL  O03dr20545   8.188   4.318   2.864
    1SIL  O03ds20546   8.140   4.506   3.045
    1SIL  Si1ox20547   7.749   4.908   2.566
    1SIL  Si1oy20548   7.503   4.882   2.928
    1SIL  Si1oz20549   7.849   4.682   2.747
    1SIL  O03dt20550   7.649   4.858   2.992
    1SIL  O03du20551   7.696   5.046   2.630
    1SIL  O03dv20552   7.509   4.993   2.811
    1SIL  O03dw20553   7.755   4.797   2.682
    1SIL  O03dx20554   7.942   4.744   2.864
    1SIL  O03dy20555   7.895   4.932   3.045
    1SIL  Si1p020556   7.503   5.334   2.566
    1SIL  Si1p120557   7.257   5.307   2.928
    1SIL  Si1p220558   7.603   5.108   2.747
    1SIL  O03dz20559   7.403   5.284   2.992
    1SIL  O03e020560   7.450   5.472   2.630
    1SIL  O03e120561   7.264   5.419   2.811
    1SIL  O03e220562   7.509   5.222   2.682
    1SIL  O03e320563   7.696   5.169   2.864
    1SIL  O03e420564   7.649   5.357   3.045
    1SIL  Si1p320565   7.257   5.759   2.566
    1SIL  Si1p420566   7.011   5.733   2.928
    1SIL  Si1p520567   7.357   5.533   2.747
    1SIL  O03e520568   7.157   5.709   2.992
    1SIL  O03e620569   7.205   5.898   2.630
    1SIL  O03e720570   7.018   5.844   2.811
    1SIL  O03e820571   7.264   5.648   2.682
    1SIL  O03e920572   7.450   5.595   2.864
    1SIL  O03eA20573   7.403   5.783   3.045
    1SIL  Si1p620574   7.011   6.185   2.566
    1SIL  Si1p720575   6.766   6.159   2.928
    1SIL  Si1p820576   7.111   5.959   2.747
    1SIL  O03eB20577   6.912   6.135   2.992
    1SIL  O03eC20578   6.959   6.323   2.630
    1SIL  O03eD20579   6.772   6.270   2.811
    1SIL  O03eE20580   7.018   6.074   2.682
    1SIL  O03eF20581   7.205   6.020   2.864
    1SIL  O03eG20582   7.157   6.209   3.045
    1SIL  Si1p920583   6.766   6.611   2.566
    1SIL  Si1pA20584   6.520   6.584   2.928
    1SIL  Si1pB20585   6.866   6.385   2.747
    1SIL  O03eH20586   6.666   6.561   2.992
    1SIL  O03eI20587   6.713   6.749   2.630
    1SIL  O03eJ20588   6.526   6.696   2.811
    1SIL  O03eK20589   6.772   6.499   2.682
    1SIL  O03eL20590   6.959   6.446   2.864
    1SIL  O03eM20591   6.912   6.634   3.045
    1SIL  Si1pC20592   6.520   7.036   2.566
    1SIL  Si1pD20593   6.274   7.010   2.928
    1SIL  Si1pE20594   6.620   6.810   2.747
    1SIL  O03eN20595   6.420   6.986   2.992
    1SIL  O03eO20596   6.467   7.175   2.630
    1SIL  O03eP20597   6.281   7.121   2.811
    1SIL  O03eQ20598   6.526   6.925   2.682
    1SIL  O03eR20599   6.713   6.872   2.864
    1SIL  O03eS20600   6.666   7.060   3.045
    1SIL  Si1pF20601   6.274   7.462   2.566
    1SIL  Si1pG20602   6.028   7.436   2.928
    1SIL  Si1pH20603   6.374   7.236   2.747
    1SIL  O03eT20604   6.174   7.412   2.992
    1SIL  O03eU20605   6.222   7.600   2.630
    1SIL  O03eV20606   6.035   7.547   2.811
    1SIL  O03eW20607   6.281   7.351   2.682
    1SIL  O03eX20608   6.467   7.297   2.864
    1SIL  O03eY20609   6.420   7.486   3.045
    1SIL  Si1pI20610   6.028   7.888   2.566
    1SIL  Si1pJ20611   5.783   7.861   2.928
    1SIL  Si1pK20612   6.128   7.662   2.747
    1SIL  O03eZ20613   5.929   7.838   2.992
    1SIL  O03ea20614   5.976   8.026   2.630
    1SIL  O03eb20615   5.789   7.973   2.811
    1SIL  O03ec20616   6.035   7.776   2.682
    1SIL  O03ed20617   6.222   7.723   2.864
    1SIL  O03ee20618   6.174   7.911   3.045
    1SIL  Si1pL20619   5.783   8.313   2.566
    1SIL  Si1pM20620   5.537   8.287   2.928
    1SIL  Si1pN20621   5.883   8.087   2.747
    1SIL  O03ef20622   5.683   8.263   2.992
    1SIL  O03eg20623   5.730   8.452   2.630
    1SIL  O03eh20624   5.543   8.398   2.811
    1SIL  O03ei20625   5.789   8.202   2.682
    1SIL  O03ej20626   5.976   8.149   2.864
    1SIL  O03ek20627   5.929   8.337   3.045
    1SIL  Si1pO20628   5.537   8.739   2.566
    1SIL  Si1pP20629   5.291   8.713   2.928
    1SIL  Si1pQ20630   5.637   8.513   2.747
    1SIL  O03el20631   5.437   8.689   2.992
    1SIL  O03em20632   5.484   8.877   2.630
    1SIL  O03en20633   5.298   8.824   2.811
    1SIL  O03eo20634   5.543   8.628   2.682
    1SIL  O03ep20635   5.730   8.574   2.864
    1SIL  O03eq20636   5.683   8.763   3.045
    1SIL  Si1pR20637   5.291   9.165   2.566
    1SIL  Si1pS20638   5.045   9.138   2.928
    1SIL  Si1pT20639   5.391   8.939   2.747
    1SIL  O03er20640   5.191   9.115   2.992
    1SIL  O03es20641   5.239   9.303   2.630
    1SIL  O03et20642   5.052   9.250   2.811
    1SIL  O03eu20643   5.298   9.053   2.682
    1SIL  O03ev20644   5.484   9.000   2.864
    1SIL  O03ew20645   5.437   9.188   3.045
    1SIL  Si1pU20646   5.045   9.590   2.566
    1SIL  Si1pV20647   4.800   9.564   2.928
    1SIL  Si1pW20648   5.145   9.364   2.747
    1SIL  O03ex20649   4.946   9.540   2.992
    1SIL  O03ey20650   4.993   9.729   2.630
    1SIL  O03ez20651   4.806   9.675   2.811
    1SIL  O03f020652   5.052   9.479   2.682
    1SIL  O03f120653   5.239   9.426   2.864
    1SIL  O03f220654   5.191   9.614   3.045
    1SIL  Si1pX20655   1.114   0.226   2.566
    1SIL  Si1pY20656   0.868   0.200   2.928
    1SIL  Si1pZ20657   1.213   0.000   2.747
    1SIL  O03f320658   1.014   0.176   2.992
    1SIL  O03f420659   1.061   0.364   2.630
    1SIL  O03f520660   0.874   0.311   2.811
    1SIL  O03f620661   1.120   0.115   2.682
    1SIL  O03f720662   1.307   0.061   2.864
    1SIL  O03f820663   1.259   0.250   3.045
    1SIL  Si1pa20664   0.868   0.652   2.566
    1SIL  Si1pb20665   0.622   0.625   2.928
    1SIL  Si1pc20666   0.968   0.426   2.747
    1SIL  O03f920667   0.768   0.602   2.992
    1SIL  O03fA20668   0.815   0.790   2.630
    1SIL  O03fB20669   0.629   0.737   2.811
    1SIL  O03fC20670   0.874   0.540   2.682
    1SIL  O03fD20671   1.061   0.487   2.864
    1SIL  O03fE20672   1.014   0.675   3.045
    1SIL  Si1pd20673   0.622   1.077   2.566
    1SIL  Si1pe20674   0.376   1.051   2.928
    1SIL  Si1pf20675   0.722   0.851   2.747
    1SIL  O03fF20676   0.522   1.027   2.992
    1SIL  O03fG20677   0.569   1.216   2.630
    1SIL  O03fH20678   0.383   1.162   2.811
    1SIL  O03fI20679   0.629   0.966   2.682
    1SIL  O03fJ20680   0.815   0.913   2.864
    1SIL  O03fK20681   0.768   1.101   3.045
    1SIL  Si1pg20682   0.376   1.503   2.566
    1SIL  Si1ph20683   0.131   1.477   2.928
    1SIL  Si1pi20684   0.476   1.277   2.747
    1SIL  O03fL20685   0.276   1.453   2.992
    1SIL  O03fM20686   0.324   1.641   2.630
    1SIL  O03fN20687   0.137   1.588   2.811
    1SIL  O03fO20688   0.383   1.392   2.682
    1SIL  O03fP20689   0.569   1.338   2.864
    1SIL  O03fQ20690   0.522   1.527   3.045
    1SIL  Si1pj20691   0.131   1.929   2.566
    1SIL  Si1pk20692   9.715   1.902   2.928
    1SIL  Si1pl20693   0.230   1.703   2.747
    1SIL  O03fR20694   0.031   1.879   2.992
    1SIL  O03fS20695   0.078   2.067   2.630
    1SIL  O03fT20696   9.721   2.014   2.811
    1SIL  O03fU20697   0.137   1.817   2.682
    1SIL  O03fV20698   0.324   1.764   2.864
    1SIL  O03fW20699   0.276   1.952   3.045
    1SIL  Si1pm20700   9.715   2.354   2.566
    1SIL  Si1pn20701   9.469   2.328   2.928
    1SIL  Si1po20702   9.815   2.128   2.747
    1SIL  O03fX20703   9.615   2.304   2.992
    1SIL  O03fY20704   9.662   2.493   2.630
    1SIL  O03fZ20705   9.475   2.439   2.811
    1SIL  O03fa20706   9.721   2.243   2.682
    1SIL  O03fb20707   0.078   2.190   2.864
    1SIL  O03fc20708   0.031   2.378   3.045
    1SIL  Si1pp20709   9.469   2.780   2.566
    1SIL  Si1pq20710   9.223   2.753   2.928
    1SIL  Si1pr20711   9.569   2.554   2.747
    1SIL  O03fd20712   9.369   2.730   2.992
    1SIL  O03fe20713   9.416   2.918   2.630
    1SIL  O03ff20714   9.230   2.865   2.811
    1SIL  O03fg20715   9.475   2.668   2.682
    1SIL  O03fh20716   9.662   2.615   2.864
    1SIL  O03fi20717   9.615   2.804   3.045
    1SIL  Si1ps20718   9.223   3.206   2.566
    1SIL  Si1pt20719   8.977   3.179   2.928
    1SIL  Si1pu20720   9.323   2.980   2.747
    1SIL  O03fj20721   9.123   3.156   2.992
    1SIL  O03fk20722   9.171   3.344   2.630
    1SIL  O03fl20723   8.984   3.291   2.811
    1SIL  O03fm20724   9.230   3.094   2.682
    1SIL  O03fn20725   9.416   3.041   2.864
    1SIL  O03fo20726   9.369   3.229   3.045
    1SIL  Si1pv20727   8.977   3.631   2.566
    1SIL  Si1pw20728   8.732   3.605   2.928
    1SIL  Si1px20729   9.077   3.405   2.747
    1SIL  O03fp20730   8.878   3.581   2.992
    1SIL  O03fq20731   8.925   3.769   2.630
    1SIL  O03fr20732   8.738   3.716   2.811
    1SIL  O03fs20733   8.984   3.520   2.682
    1SIL  O03ft20734   9.171   3.467   2.864
    1SIL  O03fu20735   9.123   3.655   3.045
    1SIL  Si1py20736   8.732   4.057   2.566
    1SIL  Si1pz20737   8.486   4.030   2.928
    1SIL  Si1q020738   8.832   3.831   2.747
    1SIL  O03fv20739   8.632   4.007   2.992
    1SIL  O03fw20740   8.679   4.195   2.630
    1SIL  O03fx20741   8.492   4.142   2.811
    1SIL  O03fy20742   8.738   3.945   2.682
    1SIL  O03fz20743   8.925   3.892   2.864
    1SIL  O03g020744   8.878   4.081   3.045
    1SIL  Si1q120745   8.486   4.483   2.566
    1SIL  Si1q220746   8.240   4.456   2.928
    1SIL  Si1q320747   8.586   4.256   2.747
    1SIL  O03g120748   8.386   4.432   2.992
    1SIL  O03g220749   8.433   4.621   2.630
    1SIL  O03g320750   8.247   4.568   2.811
    1SIL  O03g420751   8.492   4.371   2.682
    1SIL  O03g520752   8.679   4.318   2.864
    1SIL  O03g620753   8.632   4.506   3.045
    1SIL  Si1q420754   8.240   4.908   2.566
    1SIL  Si1q520755   7.994   4.882   2.928
    1SIL  Si1q620756   8.340   4.682   2.747
    1SIL  O03g720757   8.140   4.858   2.992
    1SIL  O03g820758   8.188   5.046   2.630
    1SIL  O03g920759   8.001   4.993   2.811
    1SIL  O03gA20760   8.247   4.797   2.682
    1SIL  O03gB20761   8.433   4.744   2.864
    1SIL  O03gC20762   8.386   4.932   3.045
    1SIL  Si1q720763   7.994   5.334   2.566
    1SIL  Si1q820764   7.749   5.307   2.928
    1SIL  Si1q920765   8.094   5.108   2.747
    1SIL  O03gD20766   7.895   5.284   2.992
    1SIL  O03gE20767   7.942   5.472   2.630
    1SIL  O03gF20768   7.755   5.419   2.811
    1SIL  O03gG20769   8.001   5.222   2.682
    1SIL  O03gH20770   8.188   5.169   2.864
    1SIL  O03gI20771   8.140   5.357   3.045
    1SIL  Si1qA20772   7.749   5.759   2.566
    1SIL  Si1qB20773   7.503   5.733   2.928
    1SIL  Si1qC20774   7.849   5.533   2.747
    1SIL  O03gJ20775   7.649   5.709   2.992
    1SIL  O03gK20776   7.696   5.898   2.630
    1SIL  O03gL20777   7.509   5.844   2.811
    1SIL  O03gM20778   7.755   5.648   2.682
    1SIL  O03gN20779   7.942   5.595   2.864
    1SIL  O03gO20780   7.895   5.783   3.045
    1SIL  Si1qD20781   7.503   6.185   2.566
    1SIL  Si1qE20782   7.257   6.159   2.928
    1SIL  Si1qF20783   7.603   5.959   2.747
    1SIL  O03gP20784   7.403   6.135   2.992
    1SIL  O03gQ20785   7.450   6.323   2.630
    1SIL  O03gR20786   7.264   6.270   2.811
    1SIL  O03gS20787   7.509   6.074   2.682
    1SIL  O03gT20788   7.696   6.020   2.864
    1SIL  O03gU20789   7.649   6.209   3.045
    1SIL  Si1qG20790   7.257   6.611   2.566
    1SIL  Si1qH20791   7.011   6.584   2.928
    1SIL  Si1qI20792   7.357   6.385   2.747
    1SIL  O03gV20793   7.157   6.561   2.992
    1SIL  O03gW20794   7.205   6.749   2.630
    1SIL  O03gX20795   7.018   6.696   2.811
    1SIL  O03gY20796   7.264   6.499   2.682
    1SIL  O03gZ20797   7.450   6.446   2.864
    1SIL  O03ga20798   7.403   6.634   3.045
    1SIL  Si1qJ20799   7.011   7.036   2.566
    1SIL  Si1qK20800   6.766   7.010   2.928
    1SIL  Si1qL20801   7.111   6.810   2.747
    1SIL  O03gb20802   6.912   6.986   2.992
    1SIL  O03gc20803   6.959   7.175   2.630
    1SIL  O03gd20804   6.772   7.121   2.811
    1SIL  O03ge20805   7.018   6.925   2.682
    1SIL  O03gf20806   7.205   6.872   2.864
    1SIL  O03gg20807   7.157   7.060   3.045
    1SIL  Si1qM20808   6.766   7.462   2.566
    1SIL  Si1qN20809   6.520   7.436   2.928
    1SIL  Si1qO20810   6.866   7.236   2.747
    1SIL  O03gh20811   6.666   7.412   2.992
    1SIL  O03gi20812   6.713   7.600   2.630
    1SIL  O03gj20813   6.526   7.547   2.811
    1SIL  O03gk20814   6.772   7.351   2.682
    1SIL  O03gl20815   6.959   7.297   2.864
    1SIL  O03gm20816   6.912   7.486   3.045
    1SIL  Si1qP20817   6.520   7.888   2.566
    1SIL  Si1qQ20818   6.274   7.861   2.928
    1SIL  Si1qR20819   6.620   7.662   2.747
    1SIL  O03gn20820   6.420   7.838   2.992
    1SIL  O03go20821   6.467   8.026   2.630
    1SIL  O03gp20822   6.281   7.973   2.811
    1SIL  O03gq20823   6.526   7.776   2.682
    1SIL  O03gr20824   6.713   7.723   2.864
    1SIL  O03gs20825   6.666   7.911   3.045
    1SIL  Si1qS20826   6.274   8.313   2.566
    1SIL  Si1qT20827   6.028   8.287   2.928
    1SIL  Si1qU20828   6.374   8.087   2.747
    1SIL  O03gt20829   6.174   8.263   2.992
    1SIL  O03gu20830   6.222   8.452   2.630
    1SIL  O03gv20831   6.035   8.398   2.811
    1SIL  O03gw20832   6.281   8.202   2.682
    1SIL  O03gx20833   6.467   8.149   2.864
    1SIL  O03gy20834   6.420   8.337   3.045
    1SIL  Si1qV20835   6.028   8.739   2.566
    1SIL  Si1qW20836   5.783   8.713   2.928
    1SIL  Si1qX20837   6.128   8.513   2.747
    1SIL  O03gz20838   5.929   8.689   2.992
    1SIL  O03h020839   5.976   8.877   2.630
    1SIL  O03h120840   5.789   8.824   2.811
    1SIL  O03h220841   6.035   8.628   2.682
    1SIL  O03h320842   6.222   8.574   2.864
    1SIL  O03h420843   6.174   8.763   3.045
    1SIL  Si1qY20844   5.783   9.165   2.566
    1SIL  Si1qZ20845   5.537   9.138   2.928
    1SIL  Si1qa20846   5.883   8.939   2.747
    1SIL  O03h520847   5.683   9.115   2.992
    1SIL  O03h620848   5.730   9.303   2.630
    1SIL  O03h720849   5.543   9.250   2.811
    1SIL  O03h820850   5.789   9.053   2.682
    1SIL  O03h920851   5.976   9.000   2.864
    1SIL  O03hA20852   5.929   9.188   3.045
    1SIL  Si1qb20853   5.537   9.590   2.566
    1SIL  Si1qc20854   5.291   9.564   2.928
    1SIL  Si1qd20855   5.637   9.364   2.747
    1SIL  O03hB20856   5.437   9.540   2.992
    1SIL  O03hC20857   5.484   9.729   2.630
    1SIL  O03hD20858   5.298   9.675   2.811
    1SIL  O03hE20859   5.543   9.479   2.682
    1SIL  O03hF20860   5.730   9.426   2.864
    1SIL  O03hG20861   5.683   9.614   3.045
    1SIL  Si1qe20862   1.605   0.226   2.566
    1SIL  Si1qf20863   1.359   0.200   2.928
    1SIL  Si1qg20864   1.705   0.000   2.747
    1SIL  O03hH20865   1.505   0.176   2.992
    1SIL  O03hI20866   1.552   0.364   2.630
    1SIL  O03hJ20867   1.366   0.311   2.811
    1SIL  O03hK20868   1.612   0.115   2.682
    1SIL  O03hL20869   1.798   0.061   2.864
    1SIL  O03hM20870   1.751   0.250   3.045
    1SIL  Si1qh20871   1.359   0.652   2.566
    1SIL  Si1qi20872   1.114   0.625   2.928
    1SIL  Si1qj20873   1.459   0.426   2.747
    1SIL  O03hN20874   1.259   0.602   2.992
    1SIL  O03hO20875   1.307   0.790   2.630
    1SIL  O03hP20876   1.120   0.737   2.811
    1SIL  O03hQ20877   1.366   0.540   2.682
    1SIL  O03hR20878   1.552   0.487   2.864
    1SIL  O03hS20879   1.505   0.675   3.045
    1SIL  Si1qk20880   1.114   1.077   2.566
    1SIL  Si1ql20881   0.868   1.051   2.928
    1SIL  Si1qm20882   1.213   0.851   2.747
    1SIL  O03hT20883   1.014   1.027   2.992
    1SIL  O03hU20884   1.061   1.216   2.630
    1SIL  O03hV20885   0.874   1.162   2.811
    1SIL  O03hW20886   1.120   0.966   2.682
    1SIL  O03hX20887   1.307   0.913   2.864
    1SIL  O03hY20888   1.259   1.101   3.045
    1SIL  Si1qn20889   0.868   1.503   2.566
    1SIL  Si1qo20890   0.622   1.477   2.928
    1SIL  Si1qp20891   0.968   1.277   2.747
    1SIL  O03hZ20892   0.768   1.453   2.992
    1SIL  O03ha20893   0.815   1.641   2.630
    1SIL  O03hb20894   0.629   1.588   2.811
    1SIL  O03hc20895   0.874   1.392   2.682
    1SIL  O03hd20896   1.061   1.338   2.864
    1SIL  O03he20897   1.014   1.527   3.045
    1SIL  Si1qq20898   0.622   1.929   2.566
    1SIL  Si1qr20899   0.376   1.902   2.928
    1SIL  Si1qs20900   0.722   1.703   2.747
    1SIL  O03hf20901   0.522   1.879   2.992
    1SIL  O03hg20902   0.569   2.067   2.630
    1SIL  O03hh20903   0.383   2.014   2.811
    1SIL  O03hi20904   0.629   1.817   2.682
    1SIL  O03hj20905   0.815   1.764   2.864
    1SIL  O03hk20906   0.768   1.952   3.045
    1SIL  Si1qt20907   0.376   2.354   2.566
    1SIL  Si1qu20908   0.131   2.328   2.928
    1SIL  Si1qv20909   0.476   2.128   2.747
    1SIL  O03hl20910   0.276   2.304   2.992
    1SIL  O03hm20911   0.324   2.493   2.630
    1SIL  O03hn20912   0.137   2.439   2.811
    1SIL  O03ho20913   0.383   2.243   2.682
    1SIL  O03hp20914   0.569   2.190   2.864
    1SIL  O03hq20915   0.522   2.378   3.045
    1SIL  Si1qw20916   0.131   2.780   2.566
    1SIL  Si1qx20917   9.715   2.753   2.928
    1SIL  Si1qy20918   0.230   2.554   2.747
    1SIL  O03hr20919   0.031   2.730   2.992
    1SIL  O03hs20920   0.078   2.918   2.630
    1SIL  O03ht20921   9.721   2.865   2.811
    1SIL  O03hu20922   0.137   2.668   2.682
    1SIL  O03hv20923   0.324   2.615   2.864
    1SIL  O03hw20924   0.276   2.804   3.045
    1SIL  Si1qz20925   9.715   3.206   2.566
    1SIL  Si1r020926   9.469   3.179   2.928
    1SIL  Si1r120927   9.815   2.980   2.747
    1SIL  O03hx20928   9.615   3.156   2.992
    1SIL  O03hy20929   9.662   3.344   2.630
    1SIL  O03hz20930   9.475   3.291   2.811
    1SIL  O03i020931   9.721   3.094   2.682
    1SIL  O03i120932   0.078   3.041   2.864
    1SIL  O03i220933   0.031   3.229   3.045
    1SIL  Si1r220934   9.469   3.631   2.566
    1SIL  Si1r320935   9.223   3.605   2.928
    1SIL  Si1r420936   9.569   3.405   2.747
    1SIL  O03i320937   9.369   3.581   2.992
    1SIL  O03i420938   9.416   3.769   2.630
    1SIL  O03i520939   9.230   3.716   2.811
    1SIL  O03i620940   9.475   3.520   2.682
    1SIL  O03i720941   9.662   3.467   2.864
    1SIL  O03i820942   9.615   3.655   3.045
    1SIL  Si1r520943   9.223   4.057   2.566
    1SIL  Si1r620944   8.977   4.030   2.928
    1SIL  Si1r720945   9.323   3.831   2.747
    1SIL  O03i920946   9.123   4.007   2.992
    1SIL  O03iA20947   9.171   4.195   2.630
    1SIL  O03iB20948   8.984   4.142   2.811
    1SIL  O03iC20949   9.230   3.945   2.682
    1SIL  O03iD20950   9.416   3.892   2.864
    1SIL  O03iE20951   9.369   4.081   3.045
    1SIL  Si1r820952   8.977   4.483   2.566
    1SIL  Si1r920953   8.732   4.456   2.928
    1SIL  Si1rA20954   9.077   4.256   2.747
    1SIL  O03iF20955   8.878   4.432   2.992
    1SIL  O03iG20956   8.925   4.621   2.630
    1SIL  O03iH20957   8.738   4.568   2.811
    1SIL  O03iI20958   8.984   4.371   2.682
    1SIL  O03iJ20959   9.171   4.318   2.864
    1SIL  O03iK20960   9.123   4.506   3.045
    1SIL  Si1rB20961   8.732   4.908   2.566
    1SIL  Si1rC20962   8.486   4.882   2.928
    1SIL  Si1rD20963   8.832   4.682   2.747
    1SIL  O03iL20964   8.632   4.858   2.992
    1SIL  O03iM20965   8.679   5.046   2.630
    1SIL  O03iN20966   8.492   4.993   2.811
    1SIL  O03iO20967   8.738   4.797   2.682
    1SIL  O03iP20968   8.925   4.744   2.864
    1SIL  O03iQ20969   8.878   4.932   3.045
    1SIL  Si1rE20970   8.486   5.334   2.566
    1SIL  Si1rF20971   8.240   5.307   2.928
    1SIL  Si1rG20972   8.586   5.108   2.747
    1SIL  O03iR20973   8.386   5.284   2.992
    1SIL  O03iS20974   8.433   5.472   2.630
    1SIL  O03iT20975   8.247   5.419   2.811
    1SIL  O03iU20976   8.492   5.222   2.682
    1SIL  O03iV20977   8.679   5.169   2.864
    1SIL  O03iW20978   8.632   5.357   3.045
    1SIL  Si1rH20979   8.240   5.759   2.566
    1SIL  Si1rI20980   7.994   5.733   2.928
    1SIL  Si1rJ20981   8.340   5.533   2.747
    1SIL  O03iX20982   8.140   5.709   2.992
    1SIL  O03iY20983   8.188   5.898   2.630
    1SIL  O03iZ20984   8.001   5.844   2.811
    1SIL  O03ia20985   8.247   5.648   2.682
    1SIL  O03ib20986   8.433   5.595   2.864
    1SIL  O03ic20987   8.386   5.783   3.045
    1SIL  Si1rK20988   7.994   6.185   2.566
    1SIL  Si1rL20989   7.749   6.159   2.928
    1SIL  Si1rM20990   8.094   5.959   2.747
    1SIL  O03id20991   7.895   6.135   2.992
    1SIL  O03ie20992   7.942   6.323   2.630
    1SIL  O03if20993   7.755   6.270   2.811
    1SIL  O03ig20994   8.001   6.074   2.682
    1SIL  O03ih20995   8.188   6.020   2.864
    1SIL  O03ii20996   8.140   6.209   3.045
    1SIL  Si1rN20997   7.749   6.611   2.566
    1SIL  Si1rO20998   7.503   6.584   2.928
    1SIL  Si1rP20999   7.849   6.385   2.747
    1SIL  O03ij21000   7.649   6.561   2.992
    1SIL  O03ik21001   7.696   6.749   2.630
    1SIL  O03il21002   7.509   6.696   2.811
    1SIL  O03im21003   7.755   6.499   2.682
    1SIL  O03in21004   7.942   6.446   2.864
    1SIL  O03io21005   7.895   6.634   3.045
    1SIL  Si1rQ21006   7.503   7.036   2.566
    1SIL  Si1rR21007   7.257   7.010   2.928
    1SIL  Si1rS21008   7.603   6.810   2.747
    1SIL  O03ip21009   7.403   6.986   2.992
    1SIL  O03iq21010   7.450   7.175   2.630
    1SIL  O03ir21011   7.264   7.121   2.811
    1SIL  O03is21012   7.509   6.925   2.682
    1SIL  O03it21013   7.696   6.872   2.864
    1SIL  O03iu21014   7.649   7.060   3.045
    1SIL  Si1rT21015   7.257   7.462   2.566
    1SIL  Si1rU21016   7.011   7.436   2.928
    1SIL  Si1rV21017   7.357   7.236   2.747
    1SIL  O03iv21018   7.157   7.412   2.992
    1SIL  O03iw21019   7.205   7.600   2.630
    1SIL  O03ix21020   7.018   7.547   2.811
    1SIL  O03iy21021   7.264   7.351   2.682
    1SIL  O03iz21022   7.450   7.297   2.864
    1SIL  O03j021023   7.403   7.486   3.045
    1SIL  Si1rW21024   7.011   7.888   2.566
    1SIL  Si1rX21025   6.766   7.861   2.928
    1SIL  Si1rY21026   7.111   7.662   2.747
    1SIL  O03j121027   6.912   7.838   2.992
    1SIL  O03j221028   6.959   8.026   2.630
    1SIL  O03j321029   6.772   7.973   2.811
    1SIL  O03j421030   7.018   7.776   2.682
    1SIL  O03j521031   7.205   7.723   2.864
    1SIL  O03j621032   7.157   7.911   3.045
    1SIL  Si1rZ21033   6.766   8.313   2.566
    1SIL  Si1ra21034   6.520   8.287   2.928
    1SIL  Si1rb21035   6.866   8.087   2.747
    1SIL  O03j721036   6.666   8.263   2.992
    1SIL  O03j821037   6.713   8.452   2.630
    1SIL  O03j921038   6.526   8.398   2.811
    1SIL  O03jA21039   6.772   8.202   2.682
    1SIL  O03jB21040   6.959   8.149   2.864
    1SIL  O03jC21041   6.912   8.337   3.045
    1SIL  Si1rc21042   6.520   8.739   2.566
    1SIL  Si1rd21043   6.274   8.713   2.928
    1SIL  Si1re21044   6.620   8.513   2.747
    1SIL  O03jD21045   6.420   8.689   2.992
    1SIL  O03jE21046   6.467   8.877   2.630
    1SIL  O03jF21047   6.281   8.824   2.811
    1SIL  O03jG21048   6.526   8.628   2.682
    1SIL  O03jH21049   6.713   8.574   2.864
    1SIL  O03jI21050   6.666   8.763   3.045
    1SIL  Si1rf21051   6.274   9.165   2.566
    1SIL  Si1rg21052   6.028   9.138   2.928
    1SIL  Si1rh21053   6.374   8.939   2.747
    1SIL  O03jJ21054   6.174   9.115   2.992
    1SIL  O03jK21055   6.222   9.303   2.630
    1SIL  O03jL21056   6.035   9.250   2.811
    1SIL  O03jM21057   6.281   9.053   2.682
    1SIL  O03jN21058   6.467   9.000   2.864
    1SIL  O03jO21059   6.420   9.188   3.045
    1SIL  Si1ri21060   6.028   9.590   2.566
    1SIL  Si1rj21061   5.783   9.564   2.928
    1SIL  Si1rk21062   6.128   9.364   2.747
    1SIL  O03jP21063   5.929   9.540   2.992
    1SIL  O03jQ21064   5.976   9.729   2.630
    1SIL  O03jR21065   5.789   9.675   2.811
    1SIL  O03jS21066   6.035   9.479   2.682
    1SIL  O03jT21067   6.222   9.426   2.864
    1SIL  O03jU21068   6.174   9.614   3.045
    1SIL  Si1rl21069   2.097   0.226   2.566
    1SIL  Si1rm21070   1.851   0.200   2.928
    1SIL  Si1rn21071   2.196   0.000   2.747
    1SIL  O03jV21072   1.997   0.176   2.992
    1SIL  O03jW21073   2.044   0.364   2.630
    1SIL  O03jX21074   1.857   0.311   2.811
    1SIL  O03jY21075   2.103   0.115   2.682
    1SIL  O03jZ21076   2.290   0.061   2.864
    1SIL  O03ja21077   2.242   0.250   3.045
    1SIL  Si1ro21078   1.851   0.652   2.566
    1SIL  Si1rp21079   1.605   0.625   2.928
    1SIL  Si1rq21080   1.951   0.426   2.747
    1SIL  O03jb21081   1.751   0.602   2.992
    1SIL  O03jc21082   1.798   0.790   2.630
    1SIL  O03jd21083   1.612   0.737   2.811
    1SIL  O03je21084   1.857   0.540   2.682
    1SIL  O03jf21085   2.044   0.487   2.864
    1SIL  O03jg21086   1.997   0.675   3.045
    1SIL  Si1rr21087   1.605   1.077   2.566
    1SIL  Si1rs21088   1.359   1.051   2.928
    1SIL  Si1rt21089   1.705   0.851   2.747
    1SIL  O03jh21090   1.505   1.027   2.992
    1SIL  O03ji21091   1.552   1.216   2.630
    1SIL  O03jj21092   1.366   1.162   2.811
    1SIL  O03jk21093   1.612   0.966   2.682
    1SIL  O03jl21094   1.798   0.913   2.864
    1SIL  O03jm21095   1.751   1.101   3.045
    1SIL  Si1ru21096   1.359   1.503   2.566
    1SIL  Si1rv21097   1.114   1.477   2.928
    1SIL  Si1rw21098   1.459   1.277   2.747
    1SIL  O03jn21099   1.259   1.453   2.992
    1SIL  O03jo21100   1.307   1.641   2.630
    1SIL  O03jp21101   1.120   1.588   2.811
    1SIL  O03jq21102   1.366   1.392   2.682
    1SIL  O03jr21103   1.552   1.338   2.864
    1SIL  O03js21104   1.505   1.527   3.045
    1SIL  Si1rx21105   1.114   1.929   2.566
    1SIL  Si1ry21106   0.868   1.902   2.928
    1SIL  Si1rz21107   1.213   1.703   2.747
    1SIL  O03jt21108   1.014   1.879   2.992
    1SIL  O03ju21109   1.061   2.067   2.630
    1SIL  O03jv21110   0.874   2.014   2.811
    1SIL  O03jw21111   1.120   1.817   2.682
    1SIL  O03jx21112   1.307   1.764   2.864
    1SIL  O03jy21113   1.259   1.952   3.045
    1SIL  Si1s021114   0.868   2.354   2.566
    1SIL  Si1s121115   0.622   2.328   2.928
    1SIL  Si1s221116   0.968   2.128   2.747
    1SIL  O03jz21117   0.768   2.304   2.992
    1SIL  O03k021118   0.815   2.493   2.630
    1SIL  O03k121119   0.629   2.439   2.811
    1SIL  O03k221120   0.874   2.243   2.682
    1SIL  O03k321121   1.061   2.190   2.864
    1SIL  O03k421122   1.014   2.378   3.045
    1SIL  Si1s321123   0.622   2.780   2.566
    1SIL  Si1s421124   0.376   2.753   2.928
    1SIL  Si1s521125   0.722   2.554   2.747
    1SIL  O03k521126   0.522   2.730   2.992
    1SIL  O03k621127   0.569   2.918   2.630
    1SIL  O03k721128   0.383   2.865   2.811
    1SIL  O03k821129   0.629   2.668   2.682
    1SIL  O03k921130   0.815   2.615   2.864
    1SIL  O03kA21131   0.768   2.804   3.045
    1SIL  Si1s621132   0.376   3.206   2.566
    1SIL  Si1s721133   0.131   3.179   2.928
    1SIL  Si1s821134   0.476   2.980   2.747
    1SIL  O03kB21135   0.276   3.156   2.992
    1SIL  O03kC21136   0.324   3.344   2.630
    1SIL  O03kD21137   0.137   3.291   2.811
    1SIL  O03kE21138   0.383   3.094   2.682
    1SIL  O03kF21139   0.569   3.041   2.864
    1SIL  O03kG21140   0.522   3.229   3.045
    1SIL  Si1s921141   0.131   3.631   2.566
    1SIL  Si1sA21142   9.715   3.605   2.928
    1SIL  Si1sB21143   0.230   3.405   2.747
    1SIL  O03kH21144   0.031   3.581   2.992
    1SIL  O03kI21145   0.078   3.769   2.630
    1SIL  O03kJ21146   9.721   3.716   2.811
    1SIL  O03kK21147   0.137   3.520   2.682
    1SIL  O03kL21148   0.324   3.467   2.864
    1SIL  O03kM21149   0.276   3.655   3.045
    1SIL  Si1sC21150   9.715   4.057   2.566
    1SIL  Si1sD21151   9.469   4.030   2.928
    1SIL  Si1sE21152   9.815   3.831   2.747
    1SIL  O03kN21153   9.615   4.007   2.992
    1SIL  O03kO21154   9.662   4.195   2.630
    1SIL  O03kP21155   9.475   4.142   2.811
    1SIL  O03kQ21156   9.721   3.945   2.682
    1SIL  O03kR21157   0.078   3.892   2.864
    1SIL  O03kS21158   0.031   4.081   3.045
    1SIL  Si1sF21159   9.469   4.483   2.566
    1SIL  Si1sG21160   9.223   4.456   2.928
    1SIL  Si1sH21161   9.569   4.256   2.747
    1SIL  O03kT21162   9.369   4.432   2.992
    1SIL  O03kU21163   9.416   4.621   2.630
    1SIL  O03kV21164   9.230   4.568   2.811
    1SIL  O03kW21165   9.475   4.371   2.682
    1SIL  O03kX21166   9.662   4.318   2.864
    1SIL  O03kY21167   9.615   4.506   3.045
    1SIL  Si1sI21168   9.223   4.908   2.566
    1SIL  Si1sJ21169   8.977   4.882   2.928
    1SIL  Si1sK21170   9.323   4.682   2.747
    1SIL  O03kZ21171   9.123   4.858   2.992
    1SIL  O03ka21172   9.171   5.046   2.630
    1SIL  O03kb21173   8.984   4.993   2.811
    1SIL  O03kc21174   9.230   4.797   2.682
    1SIL  O03kd21175   9.416   4.744   2.864
    1SIL  O03ke21176   9.369   4.932   3.045
    1SIL  Si1sL21177   8.977   5.334   2.566
    1SIL  Si1sM21178   8.732   5.307   2.928
    1SIL  Si1sN21179   9.077   5.108   2.747
    1SIL  O03kf21180   8.878   5.284   2.992
    1SIL  O03kg21181   8.925   5.472   2.630
    1SIL  O03kh21182   8.738   5.419   2.811
    1SIL  O03ki21183   8.984   5.222   2.682
    1SIL  O03kj21184   9.171   5.169   2.864
    1SIL  O03kk21185   9.123   5.357   3.045
    1SIL  Si1sO21186   8.732   5.759   2.566
    1SIL  Si1sP21187   8.486   5.733   2.928
    1SIL  Si1sQ21188   8.832   5.533   2.747
    1SIL  O03kl21189   8.632   5.709   2.992
    1SIL  O03km21190   8.679   5.898   2.630
    1SIL  O03kn21191   8.492   5.844   2.811
    1SIL  O03ko21192   8.738   5.648   2.682
    1SIL  O03kp21193   8.925   5.595   2.864
    1SIL  O03kq21194   8.878   5.783   3.045
    1SIL  Si1sR21195   8.486   6.185   2.566
    1SIL  Si1sS21196   8.240   6.159   2.928
    1SIL  Si1sT21197   8.586   5.959   2.747
    1SIL  O03kr21198   8.386   6.135   2.992
    1SIL  O03ks21199   8.433   6.323   2.630
    1SIL  O03kt21200   8.247   6.270   2.811
    1SIL  O03ku21201   8.492   6.074   2.682
    1SIL  O03kv21202   8.679   6.020   2.864
    1SIL  O03kw21203   8.632   6.209   3.045
    1SIL  Si1sU21204   8.240   6.611   2.566
    1SIL  Si1sV21205   7.994   6.584   2.928
    1SIL  Si1sW21206   8.340   6.385   2.747
    1SIL  O03kx21207   8.140   6.561   2.992
    1SIL  O03ky21208   8.188   6.749   2.630
    1SIL  O03kz21209   8.001   6.696   2.811
    1SIL  O03l021210   8.247   6.499   2.682
    1SIL  O03l121211   8.433   6.446   2.864
    1SIL  O03l221212   8.386   6.634   3.045
    1SIL  Si1sX21213   7.994   7.036   2.566
    1SIL  Si1sY21214   7.749   7.010   2.928
    1SIL  Si1sZ21215   8.094   6.810   2.747
    1SIL  O03l321216   7.895   6.986   2.992
    1SIL  O03l421217   7.942   7.175   2.630
    1SIL  O03l521218   7.755   7.121   2.811
    1SIL  O03l621219   8.001   6.925   2.682
    1SIL  O03l721220   8.188   6.872   2.864
    1SIL  O03l821221   8.140   7.060   3.045
    1SIL  Si1sa21222   7.749   7.462   2.566
    1SIL  Si1sb21223   7.503   7.436   2.928
    1SIL  Si1sc21224   7.849   7.236   2.747
    1SIL  O03l921225   7.649   7.412   2.992
    1SIL  O03lA21226   7.696   7.600   2.630
    1SIL  O03lB21227   7.509   7.547   2.811
    1SIL  O03lC21228   7.755   7.351   2.682
    1SIL  O03lD21229   7.942   7.297   2.864
    1SIL  O03lE21230   7.895   7.486   3.045
    1SIL  Si1sd21231   7.503   7.888   2.566
    1SIL  Si1se21232   7.257   7.861   2.928
    1SIL  Si1sf21233   7.603   7.662   2.747
    1SIL  O03lF21234   7.403   7.838   2.992
    1SIL  O03lG21235   7.450   8.026   2.630
    1SIL  O03lH21236   7.264   7.973   2.811
    1SIL  O03lI21237   7.509   7.776   2.682
    1SIL  O03lJ21238   7.696   7.723   2.864
    1SIL  O03lK21239   7.649   7.911   3.045
    1SIL  Si1sg21240   7.257   8.313   2.566
    1SIL  Si1sh21241   7.011   8.287   2.928
    1SIL  Si1si21242   7.357   8.087   2.747
    1SIL  O03lL21243   7.157   8.263   2.992
    1SIL  O03lM21244   7.205   8.452   2.630
    1SIL  O03lN21245   7.018   8.398   2.811
    1SIL  O03lO21246   7.264   8.202   2.682
    1SIL  O03lP21247   7.450   8.149   2.864
    1SIL  O03lQ21248   7.403   8.337   3.045
    1SIL  Si1sj21249   7.011   8.739   2.566
    1SIL  Si1sk21250   6.766   8.713   2.928
    1SIL  Si1sl21251   7.111   8.513   2.747
    1SIL  O03lR21252   6.912   8.689   2.992
    1SIL  O03lS21253   6.959   8.877   2.630
    1SIL  O03lT21254   6.772   8.824   2.811
    1SIL  O03lU21255   7.018   8.628   2.682
    1SIL  O03lV21256   7.205   8.574   2.864
    1SIL  O03lW21257   7.157   8.763   3.045
    1SIL  Si1sm21258   6.766   9.165   2.566
    1SIL  Si1sn21259   6.520   9.138   2.928
    1SIL  Si1so21260   6.866   8.939   2.747
    1SIL  O03lX21261   6.666   9.115   2.992
    1SIL  O03lY21262   6.713   9.303   2.630
    1SIL  O03lZ21263   6.526   9.250   2.811
    1SIL  O03la21264   6.772   9.053   2.682
    1SIL  O03lb21265   6.959   9.000   2.864
    1SIL  O03lc21266   6.912   9.188   3.045
    1SIL  Si1sp21267   6.520   9.590   2.566
    1SIL  Si1sq21268   6.274   9.564   2.928
    1SIL  Si1sr21269   6.620   9.364   2.747
    1SIL  O03ld21270   6.420   9.540   2.992
    1SIL  O03le21271   6.467   9.729   2.630
    1SIL  O03lf21272   6.281   9.675   2.811
    1SIL  O03lg21273   6.526   9.479   2.682
    1SIL  O03lh21274   6.713   9.426   2.864
    1SIL  O03li21275   6.666   9.614   3.045
    1SIL  Si1ss21276   2.588   0.226   2.566
    1SIL  Si1st21277   2.342   0.200   2.928
    1SIL  Si1su21278   2.688   0.000   2.747
    1SIL  O03lj21279   2.488   0.176   2.992
    1SIL  O03lk21280   2.535   0.364   2.630
    1SIL  O03ll21281   2.349   0.311   2.811
    1SIL  O03lm21282   2.595   0.115   2.682
    1SIL  O03ln21283   2.781   0.061   2.864
    1SIL  O03lo21284   2.734   0.250   3.045
    1SIL  Si1sv21285   2.342   0.652   2.566
    1SIL  Si1sw21286   2.097   0.625   2.928
    1SIL  Si1sx21287   2.442   0.426   2.747
    1SIL  O03lp21288   2.242   0.602   2.992
    1SIL  O03lq21289   2.290   0.790   2.630
    1SIL  O03lr21290   2.103   0.737   2.811
    1SIL  O03ls21291   2.349   0.540   2.682
    1SIL  O03lt21292   2.535   0.487   2.864
    1SIL  O03lu21293   2.488   0.675   3.045
    1SIL  Si1sy21294   2.097   1.077   2.566
    1SIL  Si1sz21295   1.851   1.051   2.928
    1SIL  Si1t021296   2.196   0.851   2.747
    1SIL  O03lv21297   1.997   1.027   2.992
    1SIL  O03lw21298   2.044   1.216   2.630
    1SIL  O03lx21299   1.857   1.162   2.811
    1SIL  O03ly21300   2.103   0.966   2.682
    1SIL  O03lz21301   2.290   0.913   2.864
    1SIL  O03m021302   2.242   1.101   3.045
    1SIL  Si1t121303   1.851   1.503   2.566
    1SIL  Si1t221304   1.605   1.477   2.928
    1SIL  Si1t321305   1.951   1.277   2.747
    1SIL  O03m121306   1.751   1.453   2.992
    1SIL  O03m221307   1.798   1.641   2.630
    1SIL  O03m321308   1.612   1.588   2.811
    1SIL  O03m421309   1.857   1.392   2.682
    1SIL  O03m521310   2.044   1.338   2.864
    1SIL  O03m621311   1.997   1.527   3.045
    1SIL  Si1t421312   1.605   1.929   2.566
    1SIL  Si1t521313   1.359   1.902   2.928
    1SIL  Si1t621314   1.705   1.703   2.747
    1SIL  O03m721315   1.505   1.879   2.992
    1SIL  O03m821316   1.552   2.067   2.630
    1SIL  O03m921317   1.366   2.014   2.811
    1SIL  O03mA21318   1.612   1.817   2.682
    1SIL  O03mB21319   1.798   1.764   2.864
    1SIL  O03mC21320   1.751   1.952   3.045
    1SIL  Si1t721321   1.359   2.354   2.566
    1SIL  Si1t821322   1.114   2.328   2.928
    1SIL  Si1t921323   1.459   2.128   2.747
    1SIL  O03mD21324   1.259   2.304   2.992
    1SIL  O03mE21325   1.307   2.493   2.630
    1SIL  O03mF21326   1.120   2.439   2.811
    1SIL  O03mG21327   1.366   2.243   2.682
    1SIL  O03mH21328   1.552   2.190   2.864
    1SIL  O03mI21329   1.505   2.378   3.045
    1SIL  Si1tA21330   1.114   2.780   2.566
    1SIL  Si1tB21331   0.868   2.753   2.928
    1SIL  Si1tC21332   1.213   2.554   2.747
    1SIL  O03mJ21333   1.014   2.730   2.992
    1SIL  O03mK21334   1.061   2.918   2.630
    1SIL  O03mL21335   0.874   2.865   2.811
    1SIL  O03mM21336   1.120   2.668   2.682
    1SIL  O03mN21337   1.307   2.615   2.864
    1SIL  O03mO21338   1.259   2.804   3.045
    1SIL  Si1tD21339   0.868   3.206   2.566
    1SIL  Si1tE21340   0.622   3.179   2.928
    1SIL  Si1tF21341   0.968   2.980   2.747
    1SIL  O03mP21342   0.768   3.156   2.992
    1SIL  O03mQ21343   0.815   3.344   2.630
    1SIL  O03mR21344   0.629   3.291   2.811
    1SIL  O03mS21345   0.874   3.094   2.682
    1SIL  O03mT21346   1.061   3.041   2.864
    1SIL  O03mU21347   1.014   3.229   3.045
    1SIL  Si1tG21348   0.622   3.631   2.566
    1SIL  Si1tH21349   0.376   3.605   2.928
    1SIL  Si1tI21350   0.722   3.405   2.747
    1SIL  O03mV21351   0.522   3.581   2.992
    1SIL  O03mW21352   0.569   3.769   2.630
    1SIL  O03mX21353   0.383   3.716   2.811
    1SIL  O03mY21354   0.629   3.520   2.682
    1SIL  O03mZ21355   0.815   3.467   2.864
    1SIL  O03ma21356   0.768   3.655   3.045
    1SIL  Si1tJ21357   0.376   4.057   2.566
    1SIL  Si1tK21358   0.131   4.030   2.928
    1SIL  Si1tL21359   0.476   3.831   2.747
    1SIL  O03mb21360   0.276   4.007   2.992
    1SIL  O03mc21361   0.324   4.195   2.630
    1SIL  O03md21362   0.137   4.142   2.811
    1SIL  O03me21363   0.383   3.945   2.682
    1SIL  O03mf21364   0.569   3.892   2.864
    1SIL  O03mg21365   0.522   4.081   3.045
    1SIL  Si1tM21366   0.131   4.483   2.566
    1SIL  Si1tN21367   9.715   4.456   2.928
    1SIL  Si1tO21368   0.230   4.256   2.747
    1SIL  O03mh21369   0.031   4.432   2.992
    1SIL  O03mi21370   0.078   4.621   2.630
    1SIL  O03mj21371   9.721   4.568   2.811
    1SIL  O03mk21372   0.137   4.371   2.682
    1SIL  O03ml21373   0.324   4.318   2.864
    1SIL  O03mm21374   0.276   4.506   3.045
    1SIL  Si1tP21375   9.715   4.908   2.566
    1SIL  Si1tQ21376   9.469   4.882   2.928
    1SIL  Si1tR21377   9.815   4.682   2.747
    1SIL  O03mn21378   9.615   4.858   2.992
    1SIL  O03mo21379   9.662   5.046   2.630
    1SIL  O03mp21380   9.475   4.993   2.811
    1SIL  O03mq21381   9.721   4.797   2.682
    1SIL  O03mr21382   0.078   4.744   2.864
    1SIL  O03ms21383   0.031   4.932   3.045
    1SIL  Si1tS21384   9.469   5.334   2.566
    1SIL  Si1tT21385   9.223   5.307   2.928
    1SIL  Si1tU21386   9.569   5.108   2.747
    1SIL  O03mt21387   9.369   5.284   2.992
    1SIL  O03mu21388   9.416   5.472   2.630
    1SIL  O03mv21389   9.230   5.419   2.811
    1SIL  O03mw21390   9.475   5.222   2.682
    1SIL  O03mx21391   9.662   5.169   2.864
    1SIL  O03my21392   9.615   5.357   3.045
    1SIL  Si1tV21393   9.223   5.759   2.566
    1SIL  Si1tW21394   8.977   5.733   2.928
    1SIL  Si1tX21395   9.323   5.533   2.747
    1SIL  O03mz21396   9.123   5.709   2.992
    1SIL  O03n021397   9.171   5.898   2.630
    1SIL  O03n121398   8.984   5.844   2.811
    1SIL  O03n221399   9.230   5.648   2.682
    1SIL  O03n321400   9.416   5.595   2.864
    1SIL  O03n421401   9.369   5.783   3.045
    1SIL  Si1tY21402   8.977   6.185   2.566
    1SIL  Si1tZ21403   8.732   6.159   2.928
    1SIL  Si1ta21404   9.077   5.959   2.747
    1SIL  O03n521405   8.878   6.135   2.992
    1SIL  O03n621406   8.925   6.323   2.630
    1SIL  O03n721407   8.738   6.270   2.811
    1SIL  O03n821408   8.984   6.074   2.682
    1SIL  O03n921409   9.171   6.020   2.864
    1SIL  O03nA21410   9.123   6.209   3.045
    1SIL  Si1tb21411   8.732   6.611   2.566
    1SIL  Si1tc21412   8.486   6.584   2.928
    1SIL  Si1td21413   8.832   6.385   2.747
    1SIL  O03nB21414   8.632   6.561   2.992
    1SIL  O03nC21415   8.679   6.749   2.630
    1SIL  O03nD21416   8.492   6.696   2.811
    1SIL  O03nE21417   8.738   6.499   2.682
    1SIL  O03nF21418   8.925   6.446   2.864
    1SIL  O03nG21419   8.878   6.634   3.045
    1SIL  Si1te21420   8.486   7.036   2.566
    1SIL  Si1tf21421   8.240   7.010   2.928
    1SIL  Si1tg21422   8.586   6.810   2.747
    1SIL  O03nH21423   8.386   6.986   2.992
    1SIL  O03nI21424   8.433   7.175   2.630
    1SIL  O03nJ21425   8.247   7.121   2.811
    1SIL  O03nK21426   8.492   6.925   2.682
    1SIL  O03nL21427   8.679   6.872   2.864
    1SIL  O03nM21428   8.632   7.060   3.045
    1SIL  Si1th21429   8.240   7.462   2.566
    1SIL  Si1ti21430   7.994   7.436   2.928
    1SIL  Si1tj21431   8.340   7.236   2.747
    1SIL  O03nN21432   8.140   7.412   2.992
    1SIL  O03nO21433   8.188   7.600   2.630
    1SIL  O03nP21434   8.001   7.547   2.811
    1SIL  O03nQ21435   8.247   7.351   2.682
    1SIL  O03nR21436   8.433   7.297   2.864
    1SIL  O03nS21437   8.386   7.486   3.045
    1SIL  Si1tk21438   7.994   7.888   2.566
    1SIL  Si1tl21439   7.749   7.861   2.928
    1SIL  Si1tm21440   8.094   7.662   2.747
    1SIL  O03nT21441   7.895   7.838   2.992
    1SIL  O03nU21442   7.942   8.026   2.630
    1SIL  O03nV21443   7.755   7.973   2.811
    1SIL  O03nW21444   8.001   7.776   2.682
    1SIL  O03nX21445   8.188   7.723   2.864
    1SIL  O03nY21446   8.140   7.911   3.045
    1SIL  Si1tn21447   7.749   8.313   2.566
    1SIL  Si1to21448   7.503   8.287   2.928
    1SIL  Si1tp21449   7.849   8.087   2.747
    1SIL  O03nZ21450   7.649   8.263   2.992
    1SIL  O03na21451   7.696   8.452   2.630
    1SIL  O03nb21452   7.509   8.398   2.811
    1SIL  O03nc21453   7.755   8.202   2.682
    1SIL  O03nd21454   7.942   8.149   2.864
    1SIL  O03ne21455   7.895   8.337   3.045
    1SIL  Si1tq21456   7.503   8.739   2.566
    1SIL  Si1tr21457   7.257   8.713   2.928
    1SIL  Si1ts21458   7.603   8.513   2.747
    1SIL  O03nf21459   7.403   8.689   2.992
    1SIL  O03ng21460   7.450   8.877   2.630
    1SIL  O03nh21461   7.264   8.824   2.811
    1SIL  O03ni21462   7.509   8.628   2.682
    1SIL  O03nj21463   7.696   8.574   2.864
    1SIL  O03nk21464   7.649   8.763   3.045
    1SIL  Si1tt21465   7.257   9.165   2.566
    1SIL  Si1tu21466   7.011   9.138   2.928
    1SIL  Si1tv21467   7.357   8.939   2.747
    1SIL  O03nl21468   7.157   9.115   2.992
    1SIL  O03nm21469   7.205   9.303   2.630
    1SIL  O03nn21470   7.018   9.250   2.811
    1SIL  O03no21471   7.264   9.053   2.682
    1SIL  O03np21472   7.450   9.000   2.864
    1SIL  O03nq21473   7.403   9.188   3.045
    1SIL  Si1tw21474   7.011   9.590   2.566
    1SIL  Si1tx21475   6.766   9.564   2.928
    1SIL  Si1ty21476   7.111   9.364   2.747
    1SIL  O03nr21477   6.912   9.540   2.992
    1SIL  O03ns21478   6.959   9.729   2.630
    1SIL  O03nt21479   6.772   9.675   2.811
    1SIL  O03nu21480   7.018   9.479   2.682
    1SIL  O03nv21481   7.205   9.426   2.864
    1SIL  O03nw21482   7.157   9.614   3.045
    1SIL  Si1tz21483   3.079   0.226   2.566
    1SIL  Si1u021484   2.834   0.200   2.928
    1SIL  Si1u121485   3.179   0.000   2.747
    1SIL  O03nx21486   2.980   0.176   2.992
    1SIL  O03ny21487   3.027   0.364   2.630
    1SIL  O03nz21488   2.840   0.311   2.811
    1SIL  O03o021489   3.086   0.115   2.682
    1SIL  O03o121490   3.273   0.061   2.864
    1SIL  O03o221491   3.225   0.250   3.045
    1SIL  Si1u221492   2.834   0.652   2.566
    1SIL  Si1u321493   2.588   0.625   2.928
    1SIL  Si1u421494   2.934   0.426   2.747
    1SIL  O03o321495   2.734   0.602   2.992
    1SIL  O03o421496   2.781   0.790   2.630
    1SIL  O03o521497   2.595   0.737   2.811
    1SIL  O03o621498   2.840   0.540   2.682
    1SIL  O03o721499   3.027   0.487   2.864
    1SIL  O03o821500   2.980   0.675   3.045
    1SIL  Si1u521501   2.588   1.077   2.566
    1SIL  Si1u621502   2.342   1.051   2.928
    1SIL  Si1u721503   2.688   0.851   2.747
    1SIL  O03o921504   2.488   1.027   2.992
    1SIL  O03oA21505   2.535   1.216   2.630
    1SIL  O03oB21506   2.349   1.162   2.811
    1SIL  O03oC21507   2.595   0.966   2.682
    1SIL  O03oD21508   2.781   0.913   2.864
    1SIL  O03oE21509   2.734   1.101   3.045
    1SIL  Si1u821510   2.342   1.503   2.566
    1SIL  Si1u921511   2.097   1.477   2.928
    1SIL  Si1uA21512   2.442   1.277   2.747
    1SIL  O03oF21513   2.242   1.453   2.992
    1SIL  O03oG21514   2.290   1.641   2.630
    1SIL  O03oH21515   2.103   1.588   2.811
    1SIL  O03oI21516   2.349   1.392   2.682
    1SIL  O03oJ21517   2.535   1.338   2.864
    1SIL  O03oK21518   2.488   1.527   3.045
    1SIL  Si1uB21519   2.097   1.929   2.566
    1SIL  Si1uC21520   1.851   1.902   2.928
    1SIL  Si1uD21521   2.196   1.703   2.747
    1SIL  O03oL21522   1.997   1.879   2.992
    1SIL  O03oM21523   2.044   2.067   2.630
    1SIL  O03oN21524   1.857   2.014   2.811
    1SIL  O03oO21525   2.103   1.817   2.682
    1SIL  O03oP21526   2.290   1.764   2.864
    1SIL  O03oQ21527   2.242   1.952   3.045
    1SIL  Si1uE21528   1.851   2.354   2.566
    1SIL  Si1uF21529   1.605   2.328   2.928
    1SIL  Si1uG21530   1.951   2.128   2.747
    1SIL  O03oR21531   1.751   2.304   2.992
    1SIL  O03oS21532   1.798   2.493   2.630
    1SIL  O03oT21533   1.612   2.439   2.811
    1SIL  O03oU21534   1.857   2.243   2.682
    1SIL  O03oV21535   2.044   2.190   2.864
    1SIL  O03oW21536   1.997   2.378   3.045
    1SIL  Si1uH21537   1.605   2.780   2.566
    1SIL  Si1uI21538   1.359   2.753   2.928
    1SIL  Si1uJ21539   1.705   2.554   2.747
    1SIL  O03oX21540   1.505   2.730   2.992
    1SIL  O03oY21541   1.552   2.918   2.630
    1SIL  O03oZ21542   1.366   2.865   2.811
    1SIL  O03oa21543   1.612   2.668   2.682
    1SIL  O03ob21544   1.798   2.615   2.864
    1SIL  O03oc21545   1.751   2.804   3.045
    1SIL  Si1uK21546   1.359   3.206   2.566
    1SIL  Si1uL21547   1.114   3.179   2.928
    1SIL  Si1uM21548   1.459   2.980   2.747
    1SIL  O03od21549   1.259   3.156   2.992
    1SIL  O03oe21550   1.307   3.344   2.630
    1SIL  O03of21551   1.120   3.291   2.811
    1SIL  O03og21552   1.366   3.094   2.682
    1SIL  O03oh21553   1.552   3.041   2.864
    1SIL  O03oi21554   1.505   3.229   3.045
    1SIL  Si1uN21555   1.114   3.631   2.566
    1SIL  Si1uO21556   0.868   3.605   2.928
    1SIL  Si1uP21557   1.213   3.405   2.747
    1SIL  O03oj21558   1.014   3.581   2.992
    1SIL  O03ok21559   1.061   3.769   2.630
    1SIL  O03ol21560   0.874   3.716   2.811
    1SIL  O03om21561   1.120   3.520   2.682
    1SIL  O03on21562   1.307   3.467   2.864
    1SIL  O03oo21563   1.259   3.655   3.045
    1SIL  Si1uQ21564   0.868   4.057   2.566
    1SIL  Si1uR21565   0.622   4.030   2.928
    1SIL  Si1uS21566   0.968   3.831   2.747
    1SIL  O03op21567   0.768   4.007   2.992
    1SIL  O03oq21568   0.815   4.195   2.630
    1SIL  O03or21569   0.629   4.142   2.811
    1SIL  O03os21570   0.874   3.945   2.682
    1SIL  O03ot21571   1.061   3.892   2.864
    1SIL  O03ou21572   1.014   4.081   3.045
    1SIL  Si1uT21573   0.622   4.483   2.566
    1SIL  Si1uU21574   0.376   4.456   2.928
    1SIL  Si1uV21575   0.722   4.256   2.747
    1SIL  O03ov21576   0.522   4.432   2.992
    1SIL  O03ow21577   0.569   4.621   2.630
    1SIL  O03ox21578   0.383   4.568   2.811
    1SIL  O03oy21579   0.629   4.371   2.682
    1SIL  O03oz21580   0.815   4.318   2.864
    1SIL  O03p021581   0.768   4.506   3.045
    1SIL  Si1uW21582   0.376   4.908   2.566
    1SIL  Si1uX21583   0.131   4.882   2.928
    1SIL  Si1uY21584   0.476   4.682   2.747
    1SIL  O03p121585   0.276   4.858   2.992
    1SIL  O03p221586   0.324   5.046   2.630
    1SIL  O03p321587   0.137   4.993   2.811
    1SIL  O03p421588   0.383   4.797   2.682
    1SIL  O03p521589   0.569   4.744   2.864
    1SIL  O03p621590   0.522   4.932   3.045
    1SIL  Si1uZ21591   0.131   5.334   2.566
    1SIL  Si1ua21592   9.715   5.307   2.928
    1SIL  Si1ub21593   0.230   5.108   2.747
    1SIL  O03p721594   0.031   5.284   2.992
    1SIL  O03p821595   0.078   5.472   2.630
    1SIL  O03p921596   9.721   5.419   2.811
    1SIL  O03pA21597   0.137   5.222   2.682
    1SIL  O03pB21598   0.324   5.169   2.864
    1SIL  O03pC21599   0.276   5.357   3.045
    1SIL  Si1uc21600   9.715   5.759   2.566
    1SIL  Si1ud21601   9.469   5.733   2.928
    1SIL  Si1ue21602   9.815   5.533   2.747
    1SIL  O03pD21603   9.615   5.709   2.992
    1SIL  O03pE21604   9.662   5.898   2.630
    1SIL  O03pF21605   9.475   5.844   2.811
    1SIL  O03pG21606   9.721   5.648   2.682
    1SIL  O03pH21607   0.078   5.595   2.864
    1SIL  O03pI21608   0.031   5.783   3.045
    1SIL  Si1uf21609   9.469   6.185   2.566
    1SIL  Si1ug21610   9.223   6.159   2.928
    1SIL  Si1uh21611   9.569   5.959   2.747
    1SIL  O03pJ21612   9.369   6.135   2.992
    1SIL  O03pK21613   9.416   6.323   2.630
    1SIL  O03pL21614   9.230   6.270   2.811
    1SIL  O03pM21615   9.475   6.074   2.682
    1SIL  O03pN21616   9.662   6.020   2.864
    1SIL  O03pO21617   9.615   6.209   3.045
    1SIL  Si1ui21618   9.223   6.611   2.566
    1SIL  Si1uj21619   8.977   6.584   2.928
    1SIL  Si1uk21620   9.323   6.385   2.747
    1SIL  O03pP21621   9.123   6.561   2.992
    1SIL  O03pQ21622   9.171   6.749   2.630
    1SIL  O03pR21623   8.984   6.696   2.811
    1SIL  O03pS21624   9.230   6.499   2.682
    1SIL  O03pT21625   9.416   6.446   2.864
    1SIL  O03pU21626   9.369   6.634   3.045
    1SIL  Si1ul21627   8.977   7.036   2.566
    1SIL  Si1um21628   8.732   7.010   2.928
    1SIL  Si1un21629   9.077   6.810   2.747
    1SIL  O03pV21630   8.878   6.986   2.992
    1SIL  O03pW21631   8.925   7.175   2.630
    1SIL  O03pX21632   8.738   7.121   2.811
    1SIL  O03pY21633   8.984   6.925   2.682
    1SIL  O03pZ21634   9.171   6.872   2.864
    1SIL  O03pa21635   9.123   7.060   3.045
    1SIL  Si1uo21636   8.732   7.462   2.566
    1SIL  Si1up21637   8.486   7.436   2.928
    1SIL  Si1uq21638   8.832   7.236   2.747
    1SIL  O03pb21639   8.632   7.412   2.992
    1SIL  O03pc21640   8.679   7.600   2.630
    1SIL  O03pd21641   8.492   7.547   2.811
    1SIL  O03pe21642   8.738   7.351   2.682
    1SIL  O03pf21643   8.925   7.297   2.864
    1SIL  O03pg21644   8.878   7.486   3.045
    1SIL  Si1ur21645   8.486   7.888   2.566
    1SIL  Si1us21646   8.240   7.861   2.928
    1SIL  Si1ut21647   8.586   7.662   2.747
    1SIL  O03ph21648   8.386   7.838   2.992
    1SIL  O03pi21649   8.433   8.026   2.630
    1SIL  O03pj21650   8.247   7.973   2.811
    1SIL  O03pk21651   8.492   7.776   2.682
    1SIL  O03pl21652   8.679   7.723   2.864
    1SIL  O03pm21653   8.632   7.911   3.045
    1SIL  Si1uu21654   8.240   8.313   2.566
    1SIL  Si1uv21655   7.994   8.287   2.928
    1SIL  Si1uw21656   8.340   8.087   2.747
    1SIL  O03pn21657   8.140   8.263   2.992
    1SIL  O03po21658   8.188   8.452   2.630
    1SIL  O03pp21659   8.001   8.398   2.811
    1SIL  O03pq21660   8.247   8.202   2.682
    1SIL  O03pr21661   8.433   8.149   2.864
    1SIL  O03ps21662   8.386   8.337   3.045
    1SIL  Si1ux21663   7.994   8.739   2.566
    1SIL  Si1uy21664   7.749   8.713   2.928
    1SIL  Si1uz21665   8.094   8.513   2.747
    1SIL  O03pt21666   7.895   8.689   2.992
    1SIL  O03pu21667   7.942   8.877   2.630
    1SIL  O03pv21668   7.755   8.824   2.811
    1SIL  O03pw21669   8.001   8.628   2.682
    1SIL  O03px21670   8.188   8.574   2.864
    1SIL  O03py21671   8.140   8.763   3.045
    1SIL  Si1v021672   7.749   9.165   2.566
    1SIL  Si1v121673   7.503   9.138   2.928
    1SIL  Si1v221674   7.849   8.939   2.747
    1SIL  O03pz21675   7.649   9.115   2.992
    1SIL  O03q021676   7.696   9.303   2.630
    1SIL  O03q121677   7.509   9.250   2.811
    1SIL  O03q221678   7.755   9.053   2.682
    1SIL  O03q321679   7.942   9.000   2.864
    1SIL  O03q421680   7.895   9.188   3.045
    1SIL  Si1v321681   7.503   9.590   2.566
    1SIL  Si1v421682   7.257   9.564   2.928
    1SIL  Si1v521683   7.603   9.364   2.747
    1SIL  O03q521684   7.403   9.540   2.992
    1SIL  O03q621685   7.450   9.729   2.630
    1SIL  O03q721686   7.264   9.675   2.811
    1SIL  O03q821687   7.509   9.479   2.682
    1SIL  O03q921688   7.696   9.426   2.864
    1SIL  O03qA21689   7.649   9.614   3.045
    1SIL  Si1v621690   3.571   0.226   2.566
    1SIL  Si1v721691   3.325   0.200   2.928
    1SIL  Si1v821692   3.671   0.000   2.747
    1SIL  O03qB21693   3.471   0.176   2.992
    1SIL  O03qC21694   3.518   0.364   2.630
    1SIL  O03qD21695   3.332   0.311   2.811
    1SIL  O03qE21696   3.577   0.115   2.682
    1SIL  O03qF21697   3.764   0.061   2.864
    1SIL  O03qG21698   3.717   0.250   3.045
    1SIL  Si1v921699   3.325   0.652   2.566
    1SIL  Si1vA21700   3.079   0.625   2.928
    1SIL  Si1vB21701   3.425   0.426   2.747
    1SIL  O03qH21702   3.225   0.602   2.992
    1SIL  O03qI21703   3.273   0.790   2.630
    1SIL  O03qJ21704   3.086   0.737   2.811
    1SIL  O03qK21705   3.332   0.540   2.682
    1SIL  O03qL21706   3.518   0.487   2.864
    1SIL  O03qM21707   3.471   0.675   3.045
    1SIL  Si1vC21708   3.079   1.077   2.566
    1SIL  Si1vD21709   2.834   1.051   2.928
    1SIL  Si1vE21710   3.179   0.851   2.747
    1SIL  O03qN21711   2.980   1.027   2.992
    1SIL  O03qO21712   3.027   1.216   2.630
    1SIL  O03qP21713   2.840   1.162   2.811
    1SIL  O03qQ21714   3.086   0.966   2.682
    1SIL  O03qR21715   3.273   0.913   2.864
    1SIL  O03qS21716   3.225   1.101   3.045
    1SIL  Si1vF21717   2.834   1.503   2.566
    1SIL  Si1vG21718   2.588   1.477   2.928
    1SIL  Si1vH21719   2.934   1.277   2.747
    1SIL  O03qT21720   2.734   1.453   2.992
    1SIL  O03qU21721   2.781   1.641   2.630
    1SIL  O03qV21722   2.595   1.588   2.811
    1SIL  O03qW21723   2.840   1.392   2.682
    1SIL  O03qX21724   3.027   1.338   2.864
    1SIL  O03qY21725   2.980   1.527   3.045
    1SIL  Si1vI21726   2.588   1.929   2.566
    1SIL  Si1vJ21727   2.342   1.902   2.928
    1SIL  Si1vK21728   2.688   1.703   2.747
    1SIL  O03qZ21729   2.488   1.879   2.992
    1SIL  O03qa21730   2.535   2.067   2.630
    1SIL  O03qb21731   2.349   2.014   2.811
    1SIL  O03qc21732   2.595   1.817   2.682
    1SIL  O03qd21733   2.781   1.764   2.864
    1SIL  O03qe21734   2.734   1.952   3.045
    1SIL  Si1vL21735   2.342   2.354   2.566
    1SIL  Si1vM21736   2.097   2.328   2.928
    1SIL  Si1vN21737   2.442   2.128   2.747
    1SIL  O03qf21738   2.242   2.304   2.992
    1SIL  O03qg21739   2.290   2.493   2.630
    1SIL  O03qh21740   2.103   2.439   2.811
    1SIL  O03qi21741   2.349   2.243   2.682
    1SIL  O03qj21742   2.535   2.190   2.864
    1SIL  O03qk21743   2.488   2.378   3.045
    1SIL  Si1vO21744   2.097   2.780   2.566
    1SIL  Si1vP21745   1.851   2.753   2.928
    1SIL  Si1vQ21746   2.196   2.554   2.747
    1SIL  O03ql21747   1.997   2.730   2.992
    1SIL  O03qm21748   2.044   2.918   2.630
    1SIL  O03qn21749   1.857   2.865   2.811
    1SIL  O03qo21750   2.103   2.668   2.682
    1SIL  O03qp21751   2.290   2.615   2.864
    1SIL  O03qq21752   2.242   2.804   3.045
    1SIL  Si1vR21753   1.851   3.206   2.566
    1SIL  Si1vS21754   1.605   3.179   2.928
    1SIL  Si1vT21755   1.951   2.980   2.747
    1SIL  O03qr21756   1.751   3.156   2.992
    1SIL  O03qs21757   1.798   3.344   2.630
    1SIL  O03qt21758   1.612   3.291   2.811
    1SIL  O03qu21759   1.857   3.094   2.682
    1SIL  O03qv21760   2.044   3.041   2.864
    1SIL  O03qw21761   1.997   3.229   3.045
    1SIL  Si1vU21762   1.605   3.631   2.566
    1SIL  Si1vV21763   1.359   3.605   2.928
    1SIL  Si1vW21764   1.705   3.405   2.747
    1SIL  O03qx21765   1.505   3.581   2.992
    1SIL  O03qy21766   1.552   3.769   2.630
    1SIL  O03qz21767   1.366   3.716   2.811
    1SIL  O03r021768   1.612   3.520   2.682
    1SIL  O03r121769   1.798   3.467   2.864
    1SIL  O03r221770   1.751   3.655   3.045
    1SIL  Si1vX21771   1.359   4.057   2.566
    1SIL  Si1vY21772   1.114   4.030   2.928
    1SIL  Si1vZ21773   1.459   3.831   2.747
    1SIL  O03r321774   1.259   4.007   2.992
    1SIL  O03r421775   1.307   4.195   2.630
    1SIL  O03r521776   1.120   4.142   2.811
    1SIL  O03r621777   1.366   3.945   2.682
    1SIL  O03r721778   1.552   3.892   2.864
    1SIL  O03r821779   1.505   4.081   3.045
    1SIL  Si1va21780   1.114   4.483   2.566
    1SIL  Si1vb21781   0.868   4.456   2.928
    1SIL  Si1vc21782   1.213   4.256   2.747
    1SIL  O03r921783   1.014   4.432   2.992
    1SIL  O03rA21784   1.061   4.621   2.630
    1SIL  O03rB21785   0.874   4.568   2.811
    1SIL  O03rC21786   1.120   4.371   2.682
    1SIL  O03rD21787   1.307   4.318   2.864
    1SIL  O03rE21788   1.259   4.506   3.045
    1SIL  Si1vd21789   0.868   4.908   2.566
    1SIL  Si1ve21790   0.622   4.882   2.928
    1SIL  Si1vf21791   0.968   4.682   2.747
    1SIL  O03rF21792   0.768   4.858   2.992
    1SIL  O03rG21793   0.815   5.046   2.630
    1SIL  O03rH21794   0.629   4.993   2.811
    1SIL  O03rI21795   0.874   4.797   2.682
    1SIL  O03rJ21796   1.061   4.744   2.864
    1SIL  O03rK21797   1.014   4.932   3.045
    1SIL  Si1vg21798   0.622   5.334   2.566
    1SIL  Si1vh21799   0.376   5.307   2.928
    1SIL  Si1vi21800   0.722   5.108   2.747
    1SIL  O03rL21801   0.522   5.284   2.992
    1SIL  O03rM21802   0.569   5.472   2.630
    1SIL  O03rN21803   0.383   5.419   2.811
    1SIL  O03rO21804   0.629   5.222   2.682
    1SIL  O03rP21805   0.815   5.169   2.864
    1SIL  O03rQ21806   0.768   5.357   3.045
    1SIL  Si1vj21807   0.376   5.759   2.566
    1SIL  Si1vk21808   0.131   5.733   2.928
    1SIL  Si1vl21809   0.476   5.533   2.747
    1SIL  O03rR21810   0.276   5.709   2.992
    1SIL  O03rS21811   0.324   5.898   2.630
    1SIL  O03rT21812   0.137   5.844   2.811
    1SIL  O03rU21813   0.383   5.648   2.682
    1SIL  O03rV21814   0.569   5.595   2.864
    1SIL  O03rW21815   0.522   5.783   3.045
    1SIL  Si1vm21816   0.131   6.185   2.566
    1SIL  Si1vn21817   9.715   6.159   2.928
    1SIL  Si1vo21818   0.230   5.959   2.747
    1SIL  O03rX21819   0.031   6.135   2.992
    1SIL  O03rY21820   0.078   6.323   2.630
    1SIL  O03rZ21821   9.721   6.270   2.811
    1SIL  O03ra21822   0.137   6.074   2.682
    1SIL  O03rb21823   0.324   6.020   2.864
    1SIL  O03rc21824   0.276   6.209   3.045
    1SIL  Si1vp21825   9.715   6.611   2.566
    1SIL  Si1vq21826   9.469   6.584   2.928
    1SIL  Si1vr21827   9.815   6.385   2.747
    1SIL  O03rd21828   9.615   6.561   2.992
    1SIL  O03re21829   9.662   6.749   2.630
    1SIL  O03rf21830   9.475   6.696   2.811
    1SIL  O03rg21831   9.721   6.499   2.682
    1SIL  O03rh21832   0.078   6.446   2.864
    1SIL  O03ri21833   0.031   6.634   3.045
    1SIL  Si1vs21834   9.469   7.036   2.566
    1SIL  Si1vt21835   9.223   7.010   2.928
    1SIL  Si1vu21836   9.569   6.810   2.747
    1SIL  O03rj21837   9.369   6.986   2.992
    1SIL  O03rk21838   9.416   7.175   2.630
    1SIL  O03rl21839   9.230   7.121   2.811
    1SIL  O03rm21840   9.475   6.925   2.682
    1SIL  O03rn21841   9.662   6.872   2.864
    1SIL  O03ro21842   9.615   7.060   3.045
    1SIL  Si1vv21843   9.223   7.462   2.566
    1SIL  Si1vw21844   8.977   7.436   2.928
    1SIL  Si1vx21845   9.323   7.236   2.747
    1SIL  O03rp21846   9.123   7.412   2.992
    1SIL  O03rq21847   9.171   7.600   2.630
    1SIL  O03rr21848   8.984   7.547   2.811
    1SIL  O03rs21849   9.230   7.351   2.682
    1SIL  O03rt21850   9.416   7.297   2.864
    1SIL  O03ru21851   9.369   7.486   3.045
    1SIL  Si1vy21852   8.977   7.888   2.566
    1SIL  Si1vz21853   8.732   7.861   2.928
    1SIL  Si1w021854   9.077   7.662   2.747
    1SIL  O03rv21855   8.878   7.838   2.992
    1SIL  O03rw21856   8.925   8.026   2.630
    1SIL  O03rx21857   8.738   7.973   2.811
    1SIL  O03ry21858   8.984   7.776   2.682
    1SIL  O03rz21859   9.171   7.723   2.864
    1SIL  O03s021860   9.123   7.911   3.045
    1SIL  Si1w121861   8.732   8.313   2.566
    1SIL  Si1w221862   8.486   8.287   2.928
    1SIL  Si1w321863   8.832   8.087   2.747
    1SIL  O03s121864   8.632   8.263   2.992
    1SIL  O03s221865   8.679   8.452   2.630
    1SIL  O03s321866   8.492   8.398   2.811
    1SIL  O03s421867   8.738   8.202   2.682
    1SIL  O03s521868   8.925   8.149   2.864
    1SIL  O03s621869   8.878   8.337   3.045
    1SIL  Si1w421870   8.486   8.739   2.566
    1SIL  Si1w521871   8.240   8.713   2.928
    1SIL  Si1w621872   8.586   8.513   2.747
    1SIL  O03s721873   8.386   8.689   2.992
    1SIL  O03s821874   8.433   8.877   2.630
    1SIL  O03s921875   8.247   8.824   2.811
    1SIL  O03sA21876   8.492   8.628   2.682
    1SIL  O03sB21877   8.679   8.574   2.864
    1SIL  O03sC21878   8.632   8.763   3.045
    1SIL  Si1w721879   8.240   9.165   2.566
    1SIL  Si1w821880   7.994   9.138   2.928
    1SIL  Si1w921881   8.340   8.939   2.747
    1SIL  O03sD21882   8.140   9.115   2.992
    1SIL  O03sE21883   8.188   9.303   2.630
    1SIL  O03sF21884   8.001   9.250   2.811
    1SIL  O03sG21885   8.247   9.053   2.682
    1SIL  O03sH21886   8.433   9.000   2.864
    1SIL  O03sI21887   8.386   9.188   3.045
    1SIL  Si1wA21888   7.994   9.590   2.566
    1SIL  Si1wB21889   7.749   9.564   2.928
    1SIL  Si1wC21890   8.094   9.364   2.747
    1SIL  O03sJ21891   7.895   9.540   2.992
    1SIL  O03sK21892   7.942   9.729   2.630
    1SIL  O03sL21893   7.755   9.675   2.811
    1SIL  O03sM21894   8.001   9.479   2.682
    1SIL  O03sN21895   8.188   9.426   2.864
    1SIL  O03sO21896   8.140   9.614   3.045
    1SIL  Si1wD21897   4.062   0.226   2.566
    1SIL  Si1wE21898   3.817   0.200   2.928
    1SIL  Si1wF21899   4.162   0.000   2.747
    1SIL  O03sP21900   3.963   0.176   2.992
    1SIL  O03sQ21901   4.010   0.364   2.630
    1SIL  O03sR21902   3.823   0.311   2.811
    1SIL  O03sS21903   4.069   0.115   2.682
    1SIL  O03sT21904   4.256   0.061   2.864
    1SIL  O03sU21905   4.208   0.250   3.045
    1SIL  Si1wG21906   3.817   0.652   2.566
    1SIL  Si1wH21907   3.571   0.625   2.928
    1SIL  Si1wI21908   3.917   0.426   2.747
    1SIL  O03sV21909   3.717   0.602   2.992
    1SIL  O03sW21910   3.764   0.790   2.630
    1SIL  O03sX21911   3.577   0.737   2.811
    1SIL  O03sY21912   3.823   0.540   2.682
    1SIL  O03sZ21913   4.010   0.487   2.864
    1SIL  O03sa21914   3.963   0.675   3.045
    1SIL  Si1wJ21915   3.571   1.077   2.566
    1SIL  Si1wK21916   3.325   1.051   2.928
    1SIL  Si1wL21917   3.671   0.851   2.747
    1SIL  O03sb21918   3.471   1.027   2.992
    1SIL  O03sc21919   3.518   1.216   2.630
    1SIL  O03sd21920   3.332   1.162   2.811
    1SIL  O03se21921   3.577   0.966   2.682
    1SIL  O03sf21922   3.764   0.913   2.864
    1SIL  O03sg21923   3.717   1.101   3.045
    1SIL  Si1wM21924   3.325   1.503   2.566
    1SIL  Si1wN21925   3.079   1.477   2.928
    1SIL  Si1wO21926   3.425   1.277   2.747
    1SIL  O03sh21927   3.225   1.453   2.992
    1SIL  O03si21928   3.273   1.641   2.630
    1SIL  O03sj21929   3.086   1.588   2.811
    1SIL  O03sk21930   3.332   1.392   2.682
    1SIL  O03sl21931   3.518   1.338   2.864
    1SIL  O03sm21932   3.471   1.527   3.045
    1SIL  Si1wP21933   3.079   1.929   2.566
    1SIL  Si1wQ21934   2.834   1.902   2.928
    1SIL  Si1wR21935   3.179   1.703   2.747
    1SIL  O03sn21936   2.980   1.879   2.992
    1SIL  O03so21937   3.027   2.067   2.630
    1SIL  O03sp21938   2.840   2.014   2.811
    1SIL  O03sq21939   3.086   1.817   2.682
    1SIL  O03sr21940   3.273   1.764   2.864
    1SIL  O03ss21941   3.225   1.952   3.045
    1SIL  Si1wS21942   2.834   2.354   2.566
    1SIL  Si1wT21943   2.588   2.328   2.928
    1SIL  Si1wU21944   2.934   2.128   2.747
    1SIL  O03st21945   2.734   2.304   2.992
    1SIL  O03su21946   2.781   2.493   2.630
    1SIL  O03sv21947   2.595   2.439   2.811
    1SIL  O03sw21948   2.840   2.243   2.682
    1SIL  O03sx21949   3.027   2.190   2.864
    1SIL  O03sy21950   2.980   2.378   3.045
    1SIL  Si1wV21951   2.588   2.780   2.566
    1SIL  Si1wW21952   2.342   2.753   2.928
    1SIL  Si1wX21953   2.688   2.554   2.747
    1SIL  O03sz21954   2.488   2.730   2.992
    1SIL  O03t021955   2.535   2.918   2.630
    1SIL  O03t121956   2.349   2.865   2.811
    1SIL  O03t221957   2.595   2.668   2.682
    1SIL  O03t321958   2.781   2.615   2.864
    1SIL  O03t421959   2.734   2.804   3.045
    1SIL  Si1wY21960   2.342   3.206   2.566
    1SIL  Si1wZ21961   2.097   3.179   2.928
    1SIL  Si1wa21962   2.442   2.980   2.747
    1SIL  O03t521963   2.242   3.156   2.992
    1SIL  O03t621964   2.290   3.344   2.630
    1SIL  O03t721965   2.103   3.291   2.811
    1SIL  O03t821966   2.349   3.094   2.682
    1SIL  O03t921967   2.535   3.041   2.864
    1SIL  O03tA21968   2.488   3.229   3.045
    1SIL  Si1wb21969   2.097   3.631   2.566
    1SIL  Si1wc21970   1.851   3.605   2.928
    1SIL  Si1wd21971   2.196   3.405   2.747
    1SIL  O03tB21972   1.997   3.581   2.992
    1SIL  O03tC21973   2.044   3.769   2.630
    1SIL  O03tD21974   1.857   3.716   2.811
    1SIL  O03tE21975   2.103   3.520   2.682
    1SIL  O03tF21976   2.290   3.467   2.864
    1SIL  O03tG21977   2.242   3.655   3.045
    1SIL  Si1we21978   1.851   4.057   2.566
    1SIL  Si1wf21979   1.605   4.030   2.928
    1SIL  Si1wg21980   1.951   3.831   2.747
    1SIL  O03tH21981   1.751   4.007   2.992
    1SIL  O03tI21982   1.798   4.195   2.630
    1SIL  O03tJ21983   1.612   4.142   2.811
    1SIL  O03tK21984   1.857   3.945   2.682
    1SIL  O03tL21985   2.044   3.892   2.864
    1SIL  O03tM21986   1.997   4.081   3.045
    1SIL  Si1wh21987   1.605   4.483   2.566
    1SIL  Si1wi21988   1.359   4.456   2.928
    1SIL  Si1wj21989   1.705   4.256   2.747
    1SIL  O03tN21990   1.505   4.432   2.992
    1SIL  O03tO21991   1.552   4.621   2.630
    1SIL  O03tP21992   1.366   4.568   2.811
    1SIL  O03tQ21993   1.612   4.371   2.682
    1SIL  O03tR21994   1.798   4.318   2.864
    1SIL  O03tS21995   1.751   4.506   3.045
    1SIL  Si1wk21996   1.359   4.908   2.566
    1SIL  Si1wl21997   1.114   4.882   2.928
    1SIL  Si1wm21998   1.459   4.682   2.747
    1SIL  O03tT21999   1.259   4.858   2.992
    1SIL  O03tU22000   1.307   5.046   2.630
    1SIL  O03tV22001   1.120   4.993   2.811
    1SIL  O03tW22002   1.366   4.797   2.682
    1SIL  O03tX22003   1.552   4.744   2.864
    1SIL  O03tY22004   1.505   4.932   3.045
    1SIL  Si1wn22005   1.114   5.334   2.566
    1SIL  Si1wo22006   0.868   5.307   2.928
    1SIL  Si1wp22007   1.213   5.108   2.747
    1SIL  O03tZ22008   1.014   5.284   2.992
    1SIL  O03ta22009   1.061   5.472   2.630
    1SIL  O03tb22010   0.874   5.419   2.811
    1SIL  O03tc22011   1.120   5.222   2.682
    1SIL  O03td22012   1.307   5.169   2.864
    1SIL  O03te22013   1.259   5.357   3.045
    1SIL  Si1wq22014   0.868   5.759   2.566
    1SIL  Si1wr22015   0.622   5.733   2.928
    1SIL  Si1ws22016   0.968   5.533   2.747
    1SIL  O03tf22017   0.768   5.709   2.992
    1SIL  O03tg22018   0.815   5.898   2.630
    1SIL  O03th22019   0.629   5.844   2.811
    1SIL  O03ti22020   0.874   5.648   2.682
    1SIL  O03tj22021   1.061   5.595   2.864
    1SIL  O03tk22022   1.014   5.783   3.045
    1SIL  Si1wt22023   0.622   6.185   2.566
    1SIL  Si1wu22024   0.376   6.159   2.928
    1SIL  Si1wv22025   0.722   5.959   2.747
    1SIL  O03tl22026   0.522   6.135   2.992
    1SIL  O03tm22027   0.569   6.323   2.630
    1SIL  O03tn22028   0.383   6.270   2.811
    1SIL  O03to22029   0.629   6.074   2.682
    1SIL  O03tp22030   0.815   6.020   2.864
    1SIL  O03tq22031   0.768   6.209   3.045
    1SIL  Si1ww22032   0.376   6.611   2.566
    1SIL  Si1wx22033   0.131   6.584   2.928
    1SIL  Si1wy22034   0.476   6.385   2.747
    1SIL  O03tr22035   0.276   6.561   2.992
    1SIL  O03ts22036   0.324   6.749   2.630
    1SIL  O03tt22037   0.137   6.696   2.811
    1SIL  O03tu22038   0.383   6.499   2.682
    1SIL  O03tv22039   0.569   6.446   2.864
    1SIL  O03tw22040   0.522   6.634   3.045
    1SIL  Si1wz22041   0.131   7.036   2.566
    1SIL  Si1x022042   9.715   7.010   2.928
    1SIL  Si1x122043   0.230   6.810   2.747
    1SIL  O03tx22044   0.031   6.986   2.992
    1SIL  O03ty22045   0.078   7.175   2.630
    1SIL  O03tz22046   9.721   7.121   2.811
    1SIL  O03u022047   0.137   6.925   2.682
    1SIL  O03u122048   0.324   6.872   2.864
    1SIL  O03u222049   0.276   7.060   3.045
    1SIL  Si1x222050   9.715   7.462   2.566
    1SIL  Si1x322051   9.469   7.436   2.928
    1SIL  Si1x422052   9.815   7.236   2.747
    1SIL  O03u322053   9.615   7.412   2.992
    1SIL  O03u422054   9.662   7.600   2.630
    1SIL  O03u522055   9.475   7.547   2.811
    1SIL  O03u622056   9.721   7.351   2.682
    1SIL  O03u722057   0.078   7.297   2.864
    1SIL  O03u822058   0.031   7.486   3.045
    1SIL  Si1x522059   9.469   7.888   2.566
    1SIL  Si1x622060   9.223   7.861   2.928
    1SIL  Si1x722061   9.569   7.662   2.747
    1SIL  O03u922062   9.369   7.838   2.992
    1SIL  O03uA22063   9.416   8.026   2.630
    1SIL  O03uB22064   9.230   7.973   2.811
    1SIL  O03uC22065   9.475   7.776   2.682
    1SIL  O03uD22066   9.662   7.723   2.864
    1SIL  O03uE22067   9.615   7.911   3.045
    1SIL  Si1x822068   9.223   8.313   2.566
    1SIL  Si1x922069   8.977   8.287   2.928
    1SIL  Si1xA22070   9.323   8.087   2.747
    1SIL  O03uF22071   9.123   8.263   2.992
    1SIL  O03uG22072   9.171   8.452   2.630
    1SIL  O03uH22073   8.984   8.398   2.811
    1SIL  O03uI22074   9.230   8.202   2.682
    1SIL  O03uJ22075   9.416   8.149   2.864
    1SIL  O03uK22076   9.369   8.337   3.045
    1SIL  Si1xB22077   8.977   8.739   2.566
    1SIL  Si1xC22078   8.732   8.713   2.928
    1SIL  Si1xD22079   9.077   8.513   2.747
    1SIL  O03uL22080   8.878   8.689   2.992
    1SIL  O03uM22081   8.925   8.877   2.630
    1SIL  O03uN22082   8.738   8.824   2.811
    1SIL  O03uO22083   8.984   8.628   2.682
    1SIL  O03uP22084   9.171   8.574   2.864
    1SIL  O03uQ22085   9.123   8.763   3.045
    1SIL  Si1xE22086   8.732   9.165   2.566
    1SIL  Si1xF22087   8.486   9.138   2.928
    1SIL  Si1xG22088   8.832   8.939   2.747
    1SIL  O03uR22089   8.632   9.115   2.992
    1SIL  O03uS22090   8.679   9.303   2.630
    1SIL  O03uT22091   8.492   9.250   2.811
    1SIL  O03uU22092   8.738   9.053   2.682
    1SIL  O03uV22093   8.925   9.000   2.864
    1SIL  O03uW22094   8.878   9.188   3.045
    1SIL  Si1xH22095   8.486   9.590   2.566
    1SIL  Si1xI22096   8.240   9.564   2.928
    1SIL  Si1xJ22097   8.586   9.364   2.747
    1SIL  O03uX22098   8.386   9.540   2.992
    1SIL  O03uY22099   8.433   9.729   2.630
    1SIL  O03uZ22100   8.247   9.675   2.811
    1SIL  O03ua22101   8.492   9.479   2.682
    1SIL  O03ub22102   8.679   9.426   2.864
    1SIL  O03uc22103   8.632   9.614   3.045
    1SIL  Si1xK22104   4.554   0.226   2.566
    1SIL  Si1xL22105   4.308   0.200   2.928
    1SIL  Si1xM22106   4.654   0.000   2.747
    1SIL  O03ud22107   4.454   0.176   2.992
    1SIL  O03ue22108   4.501   0.364   2.630
    1SIL  O03uf22109   4.315   0.311   2.811
    1SIL  O03ug22110   4.560   0.115   2.682
    1SIL  O03uh22111   4.747   0.061   2.864
    1SIL  O03ui22112   4.700   0.250   3.045
    1SIL  Si1xN22113   4.308   0.652   2.566
    1SIL  Si1xO22114   4.062   0.625   2.928
    1SIL  Si1xP22115   4.408   0.426   2.747
    1SIL  O03uj22116   4.208   0.602   2.992
    1SIL  O03uk22117   4.256   0.790   2.630
    1SIL  O03ul22118   4.069   0.737   2.811
    1SIL  O03um22119   4.315   0.540   2.682
    1SIL  O03un22120   4.501   0.487   2.864
    1SIL  O03uo22121   4.454   0.675   3.045
    1SIL  Si1xQ22122   4.062   1.077   2.566
    1SIL  Si1xR22123   3.817   1.051   2.928
    1SIL  Si1xS22124   4.162   0.851   2.747
    1SIL  O03up22125   3.963   1.027   2.992
    1SIL  O03uq22126   4.010   1.216   2.630
    1SIL  O03ur22127   3.823   1.162   2.811
    1SIL  O03us22128   4.069   0.966   2.682
    1SIL  O03ut22129   4.256   0.913   2.864
    1SIL  O03uu22130   4.208   1.101   3.045
    1SIL  Si1xT22131   3.817   1.503   2.566
    1SIL  Si1xU22132   3.571   1.477   2.928
    1SIL  Si1xV22133   3.917   1.277   2.747
    1SIL  O03uv22134   3.717   1.453   2.992
    1SIL  O03uw22135   3.764   1.641   2.630
    1SIL  O03ux22136   3.577   1.588   2.811
    1SIL  O03uy22137   3.823   1.392   2.682
    1SIL  O03uz22138   4.010   1.338   2.864
    1SIL  O03v022139   3.963   1.527   3.045
    1SIL  Si1xW22140   3.571   1.929   2.566
    1SIL  Si1xX22141   3.325   1.902   2.928
    1SIL  Si1xY22142   3.671   1.703   2.747
    1SIL  O03v122143   3.471   1.879   2.992
    1SIL  O03v222144   3.518   2.067   2.630
    1SIL  O03v322145   3.332   2.014   2.811
    1SIL  O03v422146   3.577   1.817   2.682
    1SIL  O03v522147   3.764   1.764   2.864
    1SIL  O03v622148   3.717   1.952   3.045
    1SIL  Si1xZ22149   3.325   2.354   2.566
    1SIL  Si1xa22150   3.079   2.328   2.928
    1SIL  Si1xb22151   3.425   2.128   2.747
    1SIL  O03v722152   3.225   2.304   2.992
    1SIL  O03v822153   3.273   2.493   2.630
    1SIL  O03v922154   3.086   2.439   2.811
    1SIL  O03vA22155   3.332   2.243   2.682
    1SIL  O03vB22156   3.518   2.190   2.864
    1SIL  O03vC22157   3.471   2.378   3.045
    1SIL  Si1xc22158   3.079   2.780   2.566
    1SIL  Si1xd22159   2.834   2.753   2.928
    1SIL  Si1xe22160   3.179   2.554   2.747
    1SIL  O03vD22161   2.980   2.730   2.992
    1SIL  O03vE22162   3.027   2.918   2.630
    1SIL  O03vF22163   2.840   2.865   2.811
    1SIL  O03vG22164   3.086   2.668   2.682
    1SIL  O03vH22165   3.273   2.615   2.864
    1SIL  O03vI22166   3.225   2.804   3.045
    1SIL  Si1xf22167   2.834   3.206   2.566
    1SIL  Si1xg22168   2.588   3.179   2.928
    1SIL  Si1xh22169   2.934   2.980   2.747
    1SIL  O03vJ22170   2.734   3.156   2.992
    1SIL  O03vK22171   2.781   3.344   2.630
    1SIL  O03vL22172   2.595   3.291   2.811
    1SIL  O03vM22173   2.840   3.094   2.682
    1SIL  O03vN22174   3.027   3.041   2.864
    1SIL  O03vO22175   2.980   3.229   3.045
    1SIL  Si1xi22176   2.588   3.631   2.566
    1SIL  Si1xj22177   2.342   3.605   2.928
    1SIL  Si1xk22178   2.688   3.405   2.747
    1SIL  O03vP22179   2.488   3.581   2.992
    1SIL  O03vQ22180   2.535   3.769   2.630
    1SIL  O03vR22181   2.349   3.716   2.811
    1SIL  O03vS22182   2.595   3.520   2.682
    1SIL  O03vT22183   2.781   3.467   2.864
    1SIL  O03vU22184   2.734   3.655   3.045
    1SIL  Si1xl22185   2.342   4.057   2.566
    1SIL  Si1xm22186   2.097   4.030   2.928
    1SIL  Si1xn22187   2.442   3.831   2.747
    1SIL  O03vV22188   2.242   4.007   2.992
    1SIL  O03vW22189   2.290   4.195   2.630
    1SIL  O03vX22190   2.103   4.142   2.811
    1SIL  O03vY22191   2.349   3.945   2.682
    1SIL  O03vZ22192   2.535   3.892   2.864
    1SIL  O03va22193   2.488   4.081   3.045
    1SIL  Si1xo22194   2.097   4.483   2.566
    1SIL  Si1xp22195   1.851   4.456   2.928
    1SIL  Si1xq22196   2.196   4.256   2.747
    1SIL  O03vb22197   1.997   4.432   2.992
    1SIL  O03vc22198   2.044   4.621   2.630
    1SIL  O03vd22199   1.857   4.568   2.811
    1SIL  O03ve22200   2.103   4.371   2.682
    1SIL  O03vf22201   2.290   4.318   2.864
    1SIL  O03vg22202   2.242   4.506   3.045
    1SIL  Si1xr22203   1.851   4.908   2.566
    1SIL  Si1xs22204   1.605   4.882   2.928
    1SIL  Si1xt22205   1.951   4.682   2.747
    1SIL  O03vh22206   1.751   4.858   2.992
    1SIL  O03vi22207   1.798   5.046   2.630
    1SIL  O03vj22208   1.612   4.993   2.811
    1SIL  O03vk22209   1.857   4.797   2.682
    1SIL  O03vl22210   2.044   4.744   2.864
    1SIL  O03vm22211   1.997   4.932   3.045
    1SIL  Si1xu22212   1.605   5.334   2.566
    1SIL  Si1xv22213   1.359   5.307   2.928
    1SIL  Si1xw22214   1.705   5.108   2.747
    1SIL  O03vn22215   1.505   5.284   2.992
    1SIL  O03vo22216   1.552   5.472   2.630
    1SIL  O03vp22217   1.366   5.419   2.811
    1SIL  O03vq22218   1.612   5.222   2.682
    1SIL  O03vr22219   1.798   5.169   2.864
    1SIL  O03vs22220   1.751   5.357   3.045
    1SIL  Si1xx22221   1.359   5.759   2.566
    1SIL  Si1xy22222   1.114   5.733   2.928
    1SIL  Si1xz22223   1.459   5.533   2.747
    1SIL  O03vt22224   1.259   5.709   2.992
    1SIL  O03vu22225   1.307   5.898   2.630
    1SIL  O03vv22226   1.120   5.844   2.811
    1SIL  O03vw22227   1.366   5.648   2.682
    1SIL  O03vx22228   1.552   5.595   2.864
    1SIL  O03vy22229   1.505   5.783   3.045
    1SIL  Si1y022230   1.114   6.185   2.566
    1SIL  Si1y122231   0.868   6.159   2.928
    1SIL  Si1y222232   1.213   5.959   2.747
    1SIL  O03vz22233   1.014   6.135   2.992
    1SIL  O03w022234   1.061   6.323   2.630
    1SIL  O03w122235   0.874   6.270   2.811
    1SIL  O03w222236   1.120   6.074   2.682
    1SIL  O03w322237   1.307   6.020   2.864
    1SIL  O03w422238   1.259   6.209   3.045
    1SIL  Si1y322239   0.868   6.611   2.566
    1SIL  Si1y422240   0.622   6.584   2.928
    1SIL  Si1y522241   0.968   6.385   2.747
    1SIL  O03w522242   0.768   6.561   2.992
    1SIL  O03w622243   0.815   6.749   2.630
    1SIL  O03w722244   0.629   6.696   2.811
    1SIL  O03w822245   0.874   6.499   2.682
    1SIL  O03w922246   1.061   6.446   2.864
    1SIL  O03wA22247   1.014   6.634   3.045
    1SIL  Si1y622248   0.622   7.036   2.566
    1SIL  Si1y722249   0.376   7.010   2.928
    1SIL  Si1y822250   0.722   6.810   2.747
    1SIL  O03wB22251   0.522   6.986   2.992
    1SIL  O03wC22252   0.569   7.175   2.630
    1SIL  O03wD22253   0.383   7.121   2.811
    1SIL  O03wE22254   0.629   6.925   2.682
    1SIL  O03wF22255   0.815   6.872   2.864
    1SIL  O03wG22256   0.768   7.060   3.045
    1SIL  Si1y922257   0.376   7.462   2.566
    1SIL  Si1yA22258   0.131   7.436   2.928
    1SIL  Si1yB22259   0.476   7.236   2.747
    1SIL  O03wH22260   0.276   7.412   2.992
    1SIL  O03wI22261   0.324   7.600   2.630
    1SIL  O03wJ22262   0.137   7.547   2.811
    1SIL  O03wK22263   0.383   7.351   2.682
    1SIL  O03wL22264   0.569   7.297   2.864
    1SIL  O03wM22265   0.522   7.486   3.045
    1SIL  Si1yC22266   0.131   7.888   2.566
    1SIL  Si1yD22267   9.715   7.861   2.928
    1SIL  Si1yE22268   0.230   7.662   2.747
    1SIL  O03wN22269   0.031   7.838   2.992
    1SIL  O03wO22270   0.078   8.026   2.630
    1SIL  O03wP22271   9.721   7.973   2.811
    1SIL  O03wQ22272   0.137   7.776   2.682
    1SIL  O03wR22273   0.324   7.723   2.864
    1SIL  O03wS22274   0.276   7.911   3.045
    1SIL  Si1yF22275   9.715   8.313   2.566
    1SIL  Si1yG22276   9.469   8.287   2.928
    1SIL  Si1yH22277   9.815   8.087   2.747
    1SIL  O03wT22278   9.615   8.263   2.992
    1SIL  O03wU22279   9.662   8.452   2.630
    1SIL  O03wV22280   9.475   8.398   2.811
    1SIL  O03wW22281   9.721   8.202   2.682
    1SIL  O03wX22282   0.078   8.149   2.864
    1SIL  O03wY22283   0.031   8.337   3.045
    1SIL  Si1yI22284   9.469   8.739   2.566
    1SIL  Si1yJ22285   9.223   8.713   2.928
    1SIL  Si1yK22286   9.569   8.513   2.747
    1SIL  O03wZ22287   9.369   8.689   2.992
    1SIL  O03wa22288   9.416   8.877   2.630
    1SIL  O03wb22289   9.230   8.824   2.811
    1SIL  O03wc22290   9.475   8.628   2.682
    1SIL  O03wd22291   9.662   8.574   2.864
    1SIL  O03we22292   9.615   8.763   3.045
    1SIL  Si1yL22293   9.223   9.165   2.566
    1SIL  Si1yM22294   8.977   9.138   2.928
    1SIL  Si1yN22295   9.323   8.939   2.747
    1SIL  O03wf22296   9.123   9.115   2.992
    1SIL  O03wg22297   9.171   9.303   2.630
    1SIL  O03wh22298   8.984   9.250   2.811
    1SIL  O03wi22299   9.230   9.053   2.682
    1SIL  O03wj22300   9.416   9.000   2.864
    1SIL  O03wk22301   9.369   9.188   3.045
    1SIL  Si1yO22302   8.977   9.590   2.566
    1SIL  Si1yP22303   8.732   9.564   2.928
    1SIL  Si1yQ22304   9.077   9.364   2.747
    1SIL  O03wl22305   8.878   9.540   2.992
    1SIL  O03wm22306   8.925   9.729   2.630
    1SIL  O03wn22307   8.738   9.675   2.811
    1SIL  O03wo22308   8.984   9.479   2.682
    1SIL  O03wp22309   9.171   9.426   2.864
    1SIL  O03wq22310   9.123   9.614   3.045
    1SIL  Si1yR22311   5.045   0.226   2.566
    1SIL  Si1yS22312   4.800   0.200   2.928
    1SIL  Si1yT22313   5.145   0.000   2.747
    1SIL  O03wr22314   4.946   0.176   2.992
    1SIL  O03ws22315   4.993   0.364   2.630
    1SIL  O03wt22316   4.806   0.311   2.811
    1SIL  O03wu22317   5.052   0.115   2.682
    1SIL  O03wv22318   5.239   0.061   2.864
    1SIL  O03ww22319   5.191   0.250   3.045
    1SIL  Si1yU22320   4.800   0.652   2.566
    1SIL  Si1yV22321   4.554   0.625   2.928
    1SIL  Si1yW22322   4.900   0.426   2.747
    1SIL  O03wx22323   4.700   0.602   2.992
    1SIL  O03wy22324   4.747   0.790   2.630
    1SIL  O03wz22325   4.560   0.737   2.811
    1SIL  O03x022326   4.806   0.540   2.682
    1SIL  O03x122327   4.993   0.487   2.864
    1SIL  O03x222328   4.946   0.675   3.045
    1SIL  Si1yX22329   4.554   1.077   2.566
    1SIL  Si1yY22330   4.308   1.051   2.928
    1SIL  Si1yZ22331   4.654   0.851   2.747
    1SIL  O03x322332   4.454   1.027   2.992
    1SIL  O03x422333   4.501   1.216   2.630
    1SIL  O03x522334   4.315   1.162   2.811
    1SIL  O03x622335   4.560   0.966   2.682
    1SIL  O03x722336   4.747   0.913   2.864
    1SIL  O03x822337   4.700   1.101   3.045
    1SIL  Si1ya22338   4.308   1.503   2.566
    1SIL  Si1yb22339   4.062   1.477   2.928
    1SIL  Si1yc22340   4.408   1.277   2.747
    1SIL  O03x922341   4.208   1.453   2.992
    1SIL  O03xA22342   4.256   1.641   2.630
    1SIL  O03xB22343   4.069   1.588   2.811
    1SIL  O03xC22344   4.315   1.392   2.682
    1SIL  O03xD22345   4.501   1.338   2.864
    1SIL  O03xE22346   4.454   1.527   3.045
    1SIL  Si1yd22347   4.062   1.929   2.566
    1SIL  Si1ye22348   3.817   1.902   2.928
    1SIL  Si1yf22349   4.162   1.703   2.747
    1SIL  O03xF22350   3.963   1.879   2.992
    1SIL  O03xG22351   4.010   2.067   2.630
    1SIL  O03xH22352   3.823   2.014   2.811
    1SIL  O03xI22353   4.069   1.817   2.682
    1SIL  O03xJ22354   4.256   1.764   2.864
    1SIL  O03xK22355   4.208   1.952   3.045
    1SIL  Si1yg22356   3.817   2.354   2.566
    1SIL  Si1yh22357   3.571   2.328   2.928
    1SIL  Si1yi22358   3.917   2.128   2.747
    1SIL  O03xL22359   3.717   2.304   2.992
    1SIL  O03xM22360   3.764   2.493   2.630
    1SIL  O03xN22361   3.577   2.439   2.811
    1SIL  O03xO22362   3.823   2.243   2.682
    1SIL  O03xP22363   4.010   2.190   2.864
    1SIL  O03xQ22364   3.963   2.378   3.045
    1SIL  Si1yj22365   3.571   2.780   2.566
    1SIL  Si1yk22366   3.325   2.753   2.928
    1SIL  Si1yl22367   3.671   2.554   2.747
    1SIL  O03xR22368   3.471   2.730   2.992
    1SIL  O03xS22369   3.518   2.918   2.630
    1SIL  O03xT22370   3.332   2.865   2.811
    1SIL  O03xU22371   3.577   2.668   2.682
    1SIL  O03xV22372   3.764   2.615   2.864
    1SIL  O03xW22373   3.717   2.804   3.045
    1SIL  Si1ym22374   3.325   3.206   2.566
    1SIL  Si1yn22375   3.079   3.179   2.928
    1SIL  Si1yo22376   3.425   2.980   2.747
    1SIL  O03xX22377   3.225   3.156   2.992
    1SIL  O03xY22378   3.273   3.344   2.630
    1SIL  O03xZ22379   3.086   3.291   2.811
    1SIL  O03xa22380   3.332   3.094   2.682
    1SIL  O03xb22381   3.518   3.041   2.864
    1SIL  O03xc22382   3.471   3.229   3.045
    1SIL  Si1yp22383   3.079   3.631   2.566
    1SIL  Si1yq22384   2.834   3.605   2.928
    1SIL  Si1yr22385   3.179   3.405   2.747
    1SIL  O03xd22386   2.980   3.581   2.992
    1SIL  O03xe22387   3.027   3.769   2.630
    1SIL  O03xf22388   2.840   3.716   2.811
    1SIL  O03xg22389   3.086   3.520   2.682
    1SIL  O03xh22390   3.273   3.467   2.864
    1SIL  O03xi22391   3.225   3.655   3.045
    1SIL  Si1ys22392   2.834   4.057   2.566
    1SIL  Si1yt22393   2.588   4.030   2.928
    1SIL  Si1yu22394   2.934   3.831   2.747
    1SIL  O03xj22395   2.734   4.007   2.992
    1SIL  O03xk22396   2.781   4.195   2.630
    1SIL  O03xl22397   2.595   4.142   2.811
    1SIL  O03xm22398   2.840   3.945   2.682
    1SIL  O03xn22399   3.027   3.892   2.864
    1SIL  O03xo22400   2.980   4.081   3.045
    1SIL  Si1yv22401   2.588   4.483   2.566
    1SIL  Si1yw22402   2.342   4.456   2.928
    1SIL  Si1yx22403   2.688   4.256   2.747
    1SIL  O03xp22404   2.488   4.432   2.992
    1SIL  O03xq22405   2.535   4.621   2.630
    1SIL  O03xr22406   2.349   4.568   2.811
    1SIL  O03xs22407   2.595   4.371   2.682
    1SIL  O03xt22408   2.781   4.318   2.864
    1SIL  O03xu22409   2.734   4.506   3.045
    1SIL  Si1yy22410   2.342   4.908   2.566
    1SIL  Si1yz22411   2.097   4.882   2.928
    1SIL  Si1z022412   2.442   4.682   2.747
    1SIL  O03xv22413   2.242   4.858   2.992
    1SIL  O03xw22414   2.290   5.046   2.630
    1SIL  O03xx22415   2.103   4.993   2.811
    1SIL  O03xy22416   2.349   4.797   2.682
    1SIL  O03xz22417   2.535   4.744   2.864
    1SIL  O03y022418   2.488   4.932   3.045
    1SIL  Si1z122419   2.097   5.334   2.566
    1SIL  Si1z222420   1.851   5.307   2.928
    1SIL  Si1z322421   2.196   5.108   2.747
    1SIL  O03y122422   1.997   5.284   2.992
    1SIL  O03y222423   2.044   5.472   2.630
    1SIL  O03y322424   1.857   5.419   2.811
    1SIL  O03y422425   2.103   5.222   2.682
    1SIL  O03y522426   2.290   5.169   2.864
    1SIL  O03y622427   2.242   5.357   3.045
    1SIL  Si1z422428   1.851   5.759   2.566
    1SIL  Si1z522429   1.605   5.733   2.928
    1SIL  Si1z622430   1.951   5.533   2.747
    1SIL  O03y722431   1.751   5.709   2.992
    1SIL  O03y822432   1.798   5.898   2.630
    1SIL  O03y922433   1.612   5.844   2.811
    1SIL  O03yA22434   1.857   5.648   2.682
    1SIL  O03yB22435   2.044   5.595   2.864
    1SIL  O03yC22436   1.997   5.783   3.045
    1SIL  Si1z722437   1.605   6.185   2.566
    1SIL  Si1z822438   1.359   6.159   2.928
    1SIL  Si1z922439   1.705   5.959   2.747
    1SIL  O03yD22440   1.505   6.135   2.992
    1SIL  O03yE22441   1.552   6.323   2.630
    1SIL  O03yF22442   1.366   6.270   2.811
    1SIL  O03yG22443   1.612   6.074   2.682
    1SIL  O03yH22444   1.798   6.020   2.864
    1SIL  O03yI22445   1.751   6.209   3.045
    1SIL  Si1zA22446   1.359   6.611   2.566
    1SIL  Si1zB22447   1.114   6.584   2.928
    1SIL  Si1zC22448   1.459   6.385   2.747
    1SIL  O03yJ22449   1.259   6.561   2.992
    1SIL  O03yK22450   1.307   6.749   2.630
    1SIL  O03yL22451   1.120   6.696   2.811
    1SIL  O03yM22452   1.366   6.499   2.682
    1SIL  O03yN22453   1.552   6.446   2.864
    1SIL  O03yO22454   1.505   6.634   3.045
    1SIL  Si1zD22455   1.114   7.036   2.566
    1SIL  Si1zE22456   0.868   7.010   2.928
    1SIL  Si1zF22457   1.213   6.810   2.747
    1SIL  O03yP22458   1.014   6.986   2.992
    1SIL  O03yQ22459   1.061   7.175   2.630
    1SIL  O03yR22460   0.874   7.121   2.811
    1SIL  O03yS22461   1.120   6.925   2.682
    1SIL  O03yT22462   1.307   6.872   2.864
    1SIL  O03yU22463   1.259   7.060   3.045
    1SIL  Si1zG22464   0.868   7.462   2.566
    1SIL  Si1zH22465   0.622   7.436   2.928
    1SIL  Si1zI22466   0.968   7.236   2.747
    1SIL  O03yV22467   0.768   7.412   2.992
    1SIL  O03yW22468   0.815   7.600   2.630
    1SIL  O03yX22469   0.629   7.547   2.811
    1SIL  O03yY22470   0.874   7.351   2.682
    1SIL  O03yZ22471   1.061   7.297   2.864
    1SIL  O03ya22472   1.014   7.486   3.045
    1SIL  Si1zJ22473   0.622   7.888   2.566
    1SIL  Si1zK22474   0.376   7.861   2.928
    1SIL  Si1zL22475   0.722   7.662   2.747
    1SIL  O03yb22476   0.522   7.838   2.992
    1SIL  O03yc22477   0.569   8.026   2.630
    1SIL  O03yd22478   0.383   7.973   2.811
    1SIL  O03ye22479   0.629   7.776   2.682
    1SIL  O03yf22480   0.815   7.723   2.864
    1SIL  O03yg22481   0.768   7.911   3.045
    1SIL  Si1zM22482   0.376   8.313   2.566
    1SIL  Si1zN22483   0.131   8.287   2.928
    1SIL  Si1zO22484   0.476   8.087   2.747
    1SIL  O03yh22485   0.276   8.263   2.992
    1SIL  O03yi22486   0.324   8.452   2.630
    1SIL  O03yj22487   0.137   8.398   2.811
    1SIL  O03yk22488   0.383   8.202   2.682
    1SIL  O03yl22489   0.569   8.149   2.864
    1SIL  O03ym22490   0.522   8.337   3.045
    1SIL  Si1zP22491   0.131   8.739   2.566
    1SIL  Si1zQ22492   9.715   8.713   2.928
    1SIL  Si1zR22493   0.230   8.513   2.747
    1SIL  O03yn22494   0.031   8.689   2.992
    1SIL  O03yo22495   0.078   8.877   2.630
    1SIL  O03yp22496   9.721   8.824   2.811
    1SIL  O03yq22497   0.137   8.628   2.682
    1SIL  O03yr22498   0.324   8.574   2.864
    1SIL  O03ys22499   0.276   8.763   3.045
    1SIL  Si1zS22500   9.715   9.165   2.566
    1SIL  Si1zT22501   9.469   9.138   2.928
    1SIL  Si1zU22502   9.815   8.939   2.747
    1SIL  O03yt22503   9.615   9.115   2.992
    1SIL  O03yu22504   9.662   9.303   2.630
    1SIL  O03yv22505   9.475   9.250   2.811
    1SIL  O03yw22506   9.721   9.053   2.682
    1SIL  O03yx22507   0.078   9.000   2.864
    1SIL  O03yy22508   0.031   9.188   3.045
    1SIL  Si1zV22509   9.469   9.590   2.566
    1SIL  Si1zW22510   9.223   9.564   2.928
    1SIL  Si1zX22511   9.569   9.364   2.747
    1SIL  O03yz22512   9.369   9.540   2.992
    1SIL  O03z022513   9.416   9.729   2.630
    1SIL  O03z122514   9.230   9.675   2.811
    1SIL  O03z222515   9.475   9.479   2.682
    1SIL  O03z322516   9.662   9.426   2.864
    1SIL  O03z422517   9.615   9.614   3.045
    1SIL  Si1zY22518   5.537   0.226   2.566
    1SIL  Si1zZ22519   5.291   0.200   2.928
    1SIL  Si1za22520   5.637   0.000   2.747
    1SIL  O03z522521   5.437   0.176   2.992
    1SIL  O03z622522   5.484   0.364   2.630
    1SIL  O03z722523   5.298   0.311   2.811
    1SIL  O03z822524   5.543   0.115   2.682
    1SIL  O03z922525   5.730   0.061   2.864
    1SIL  O03zA22526   5.683   0.250   3.045
    1SIL  Si1zb22527   5.291   0.652   2.566
    1SIL  Si1zc22528   5.045   0.625   2.928
    1SIL  Si1zd22529   5.391   0.426   2.747
    1SIL  O03zB22530   5.191   0.602   2.992
    1SIL  O03zC22531   5.239   0.790   2.630
    1SIL  O03zD22532   5.052   0.737   2.811
    1SIL  O03zE22533   5.298   0.540   2.682
    1SIL  O03zF22534   5.484   0.487   2.864
    1SIL  O03zG22535   5.437   0.675   3.045
    1SIL  Si1ze22536   5.045   1.077   2.566
    1SIL  Si1zf22537   4.800   1.051   2.928
    1SIL  Si1zg22538   5.145   0.851   2.747
    1SIL  O03zH22539   4.946   1.027   2.992
    1SIL  O03zI22540   4.993   1.216   2.630
    1SIL  O03zJ22541   4.806   1.162   2.811
    1SIL  O03zK22542   5.052   0.966   2.682
    1SIL  O03zL22543   5.239   0.913   2.864
    1SIL  O03zM22544   5.191   1.101   3.045
    1SIL  Si1zh22545   4.800   1.503   2.566
    1SIL  Si1zi22546   4.554   1.477   2.928
    1SIL  Si1zj22547   4.900   1.277   2.747
    1SIL  O03zN22548   4.700   1.453   2.992
    1SIL  O03zO22549   4.747   1.641   2.630
    1SIL  O03zP22550   4.560   1.588   2.811
    1SIL  O03zQ22551   4.806   1.392   2.682
    1SIL  O03zR22552   4.993   1.338   2.864
    1SIL  O03zS22553   4.946   1.527   3.045
    1SIL  Si1zk22554   4.554   1.929   2.566
    1SIL  Si1zl22555   4.308   1.902   2.928
    1SIL  Si1zm22556   4.654   1.703   2.747
    1SIL  O03zT22557   4.454   1.879   2.992
    1SIL  O03zU22558   4.501   2.067   2.630
    1SIL  O03zV22559   4.315   2.014   2.811
    1SIL  O03zW22560   4.560   1.817   2.682
    1SIL  O03zX22561   4.747   1.764   2.864
    1SIL  O03zY22562   4.700   1.952   3.045
    1SIL  Si1zn22563   4.308   2.354   2.566
    1SIL  Si1zo22564   4.062   2.328   2.928
    1SIL  Si1zp22565   4.408   2.128   2.747
    1SIL  O03zZ22566   4.208   2.304   2.992
    1SIL  O03za22567   4.256   2.493   2.630
    1SIL  O03zb22568   4.069   2.439   2.811
    1SIL  O03zc22569   4.315   2.243   2.682
    1SIL  O03zd22570   4.501   2.190   2.864
    1SIL  O03ze22571   4.454   2.378   3.045
    1SIL  Si1zq22572   4.062   2.780   2.566
    1SIL  Si1zr22573   3.817   2.753   2.928
    1SIL  Si1zs22574   4.162   2.554   2.747
    1SIL  O03zf22575   3.963   2.730   2.992
    1SIL  O03zg22576   4.010   2.918   2.630
    1SIL  O03zh22577   3.823   2.865   2.811
    1SIL  O03zi22578   4.069   2.668   2.682
    1SIL  O03zj22579   4.256   2.615   2.864
    1SIL  O03zk22580   4.208   2.804   3.045
    1SIL  Si1zt22581   3.817   3.206   2.566
    1SIL  Si1zu22582   3.571   3.179   2.928
    1SIL  Si1zv22583   3.917   2.980   2.747
    1SIL  O03zl22584   3.717   3.156   2.992
    1SIL  O03zm22585   3.764   3.344   2.630
    1SIL  O03zn22586   3.577   3.291   2.811
    1SIL  O03zo22587   3.823   3.094   2.682
    1SIL  O03zp22588   4.010   3.041   2.864
    1SIL  O03zq22589   3.963   3.229   3.045
    1SIL  Si1zw22590   3.571   3.631   2.566
    1SIL  Si1zx22591   3.325   3.605   2.928
    1SIL  Si1zy22592   3.671   3.405   2.747
    1SIL  O03zr22593   3.471   3.581   2.992
    1SIL  O03zs22594   3.518   3.769   2.630
    1SIL  O03zt22595   3.332   3.716   2.811
    1SIL  O03zu22596   3.577   3.520   2.682
    1SIL  O03zv22597   3.764   3.467   2.864
    1SIL  O03zw22598   3.717   3.655   3.045
    1SIL  Si1zz22599   3.325   4.057   2.566
    1SIL  Si20022600   3.079   4.030   2.928
    1SIL  Si20122601   3.425   3.831   2.747
    1SIL  O03zx22602   3.225   4.007   2.992
    1SIL  O03zy22603   3.273   4.195   2.630
    1SIL  O03zz22604   3.086   4.142   2.811
    1SIL  O040022605   3.332   3.945   2.682
    1SIL  O040122606   3.518   3.892   2.864
    1SIL  O040222607   3.471   4.081   3.045
    1SIL  Si20222608   3.079   4.483   2.566
    1SIL  Si20322609   2.834   4.456   2.928
    1SIL  Si20422610   3.179   4.256   2.747
    1SIL  O040322611   2.980   4.432   2.992
    1SIL  O040422612   3.027   4.621   2.630
    1SIL  O040522613   2.840   4.568   2.811
    1SIL  O040622614   3.086   4.371   2.682
    1SIL  O040722615   3.273   4.318   2.864
    1SIL  O040822616   3.225   4.506   3.045
    1SIL  Si20522617   2.834   4.908   2.566
    1SIL  Si20622618   2.588   4.882   2.928
    1SIL  Si20722619   2.934   4.682   2.747
    1SIL  O040922620   2.734   4.858   2.992
    1SIL  O040A22621   2.781   5.046   2.630
    1SIL  O040B22622   2.595   4.993   2.811
    1SIL  O040C22623   2.840   4.797   2.682
    1SIL  O040D22624   3.027   4.744   2.864
    1SIL  O040E22625   2.980   4.932   3.045
    1SIL  Si20822626   2.588   5.334   2.566
    1SIL  Si20922627   2.342   5.307   2.928
    1SIL  Si20A22628   2.688   5.108   2.747
    1SIL  O040F22629   2.488   5.284   2.992
    1SIL  O040G22630   2.535   5.472   2.630
    1SIL  O040H22631   2.349   5.419   2.811
    1SIL  O040I22632   2.595   5.222   2.682
    1SIL  O040J22633   2.781   5.169   2.864
    1SIL  O040K22634   2.734   5.357   3.045
    1SIL  Si20B22635   2.342   5.759   2.566
    1SIL  Si20C22636   2.097   5.733   2.928
    1SIL  Si20D22637   2.442   5.533   2.747
    1SIL  O040L22638   2.242   5.709   2.992
    1SIL  O040M22639   2.290   5.898   2.630
    1SIL  O040N22640   2.103   5.844   2.811
    1SIL  O040O22641   2.349   5.648   2.682
    1SIL  O040P22642   2.535   5.595   2.864
    1SIL  O040Q22643   2.488   5.783   3.045
    1SIL  Si20E22644   2.097   6.185   2.566
    1SIL  Si20F22645   1.851   6.159   2.928
    1SIL  Si20G22646   2.196   5.959   2.747
    1SIL  O040R22647   1.997   6.135   2.992
    1SIL  O040S22648   2.044   6.323   2.630
    1SIL  O040T22649   1.857   6.270   2.811
    1SIL  O040U22650   2.103   6.074   2.682
    1SIL  O040V22651   2.290   6.020   2.864
    1SIL  O040W22652   2.242   6.209   3.045
    1SIL  Si20H22653   1.851   6.611   2.566
    1SIL  Si20I22654   1.605   6.584   2.928
    1SIL  Si20J22655   1.951   6.385   2.747
    1SIL  O040X22656   1.751   6.561   2.992
    1SIL  O040Y22657   1.798   6.749   2.630
    1SIL  O040Z22658   1.612   6.696   2.811
    1SIL  O040a22659   1.857   6.499   2.682
    1SIL  O040b22660   2.044   6.446   2.864
    1SIL  O040c22661   1.997   6.634   3.045
    1SIL  Si20K22662   1.605   7.036   2.566
    1SIL  Si20L22663   1.359   7.010   2.928
    1SIL  Si20M22664   1.705   6.810   2.747
    1SIL  O040d22665   1.505   6.986   2.992
    1SIL  O040e22666   1.552   7.175   2.630
    1SIL  O040f22667   1.366   7.121   2.811
    1SIL  O040g22668   1.612   6.925   2.682
    1SIL  O040h22669   1.798   6.872   2.864
    1SIL  O040i22670   1.751   7.060   3.045
    1SIL  Si20N22671   1.359   7.462   2.566
    1SIL  Si20O22672   1.114   7.436   2.928
    1SIL  Si20P22673   1.459   7.236   2.747
    1SIL  O040j22674   1.259   7.412   2.992
    1SIL  O040k22675   1.307   7.600   2.630
    1SIL  O040l22676   1.120   7.547   2.811
    1SIL  O040m22677   1.366   7.351   2.682
    1SIL  O040n22678   1.552   7.297   2.864
    1SIL  O040o22679   1.505   7.486   3.045
    1SIL  Si20Q22680   1.114   7.888   2.566
    1SIL  Si20R22681   0.868   7.861   2.928
    1SIL  Si20S22682   1.213   7.662   2.747
    1SIL  O040p22683   1.014   7.838   2.992
    1SIL  O040q22684   1.061   8.026   2.630
    1SIL  O040r22685   0.874   7.973   2.811
    1SIL  O040s22686   1.120   7.776   2.682
    1SIL  O040t22687   1.307   7.723   2.864
    1SIL  O040u22688   1.259   7.911   3.045
    1SIL  Si20T22689   0.868   8.313   2.566
    1SIL  Si20U22690   0.622   8.287   2.928
    1SIL  Si20V22691   0.968   8.087   2.747
    1SIL  O040v22692   0.768   8.263   2.992
    1SIL  O040w22693   0.815   8.452   2.630
    1SIL  O040x22694   0.629   8.398   2.811
    1SIL  O040y22695   0.874   8.202   2.682
    1SIL  O040z22696   1.061   8.149   2.864
    1SIL  O041022697   1.014   8.337   3.045
    1SIL  Si20W22698   0.622   8.739   2.566
    1SIL  Si20X22699   0.376   8.713   2.928
    1SIL  Si20Y22700   0.722   8.513   2.747
    1SIL  O041122701   0.522   8.689   2.992
    1SIL  O041222702   0.569   8.877   2.630
    1SIL  O041322703   0.383   8.824   2.811
    1SIL  O041422704   0.629   8.628   2.682
    1SIL  O041522705   0.815   8.574   2.864
    1SIL  O041622706   0.768   8.763   3.045
    1SIL  Si20Z22707   0.376   9.165   2.566
    1SIL  Si20a22708   0.131   9.138   2.928
    1SIL  Si20b22709   0.476   8.939   2.747
    1SIL  O041722710   0.276   9.115   2.992
    1SIL  O041822711   0.324   9.303   2.630
    1SIL  O041922712   0.137   9.250   2.811
    1SIL  O041A22713   0.383   9.053   2.682
    1SIL  O041B22714   0.569   9.000   2.864
    1SIL  O041C22715   0.522   9.188   3.045
    1SIL  Si20c22716   0.131   9.590   2.566
    1SIL  Si20d22717   9.715   9.564   2.928
    1SIL  Si20e22718   0.230   9.364   2.747
    1SIL  O041D22719   0.031   9.540   2.992
    1SIL  O041E22720   0.078   9.729   2.630
    1SIL  O041F22721   9.721   9.675   2.811
    1SIL  O041G22722   0.137   9.479   2.682
    1SIL  O041H22723   0.324   9.426   2.864
    1SIL  O041I22724   0.276   9.614   3.045
    1SIL  Si20f22725   6.028   0.226   2.566
    1SIL  Si20g22726   5.783   0.200   2.928
    1SIL  Si20h22727   6.128   0.000   2.747
    1SIL  O041J22728   5.929   0.176   2.992
    1SIL  O041K22729   5.976   0.364   2.630
    1SIL  O041L22730   5.789   0.311   2.811
    1SIL  O041M22731   6.035   0.115   2.682
    1SIL  O041N22732   6.222   0.061   2.864
    1SIL  O041O22733   6.174   0.250   3.045
    1SIL  Si20i22734   5.783   0.652   2.566
    1SIL  Si20j22735   5.537   0.625   2.928
    1SIL  Si20k22736   5.883   0.426   2.747
    1SIL  O041P22737   5.683   0.602   2.992
    1SIL  O041Q22738   5.730   0.790   2.630
    1SIL  O041R22739   5.543   0.737   2.811
    1SIL  O041S22740   5.789   0.540   2.682
    1SIL  O041T22741   5.976   0.487   2.864
    1SIL  O041U22742   5.929   0.675   3.045
    1SIL  Si20l22743   5.537   1.077   2.566
    1SIL  Si20m22744   5.291   1.051   2.928
    1SIL  Si20n22745   5.637   0.851   2.747
    1SIL  O041V22746   5.437   1.027   2.992
    1SIL  O041W22747   5.484   1.216   2.630
    1SIL  O041X22748   5.298   1.162   2.811
    1SIL  O041Y22749   5.543   0.966   2.682
    1SIL  O041Z22750   5.730   0.913   2.864
    1SIL  O041a22751   5.683   1.101   3.045
    1SIL  Si20o22752   5.291   1.503   2.566
    1SIL  Si20p22753   5.045   1.477   2.928
    1SIL  Si20q22754   5.391   1.277   2.747
    1SIL  O041b22755   5.191   1.453   2.992
    1SIL  O041c22756   5.239   1.641   2.630
    1SIL  O041d22757   5.052   1.588   2.811
    1SIL  O041e22758   5.298   1.392   2.682
    1SIL  O041f22759   5.484   1.338   2.864
    1SIL  O041g22760   5.437   1.527   3.045
    1SIL  Si20r22761   5.045   1.929   2.566
    1SIL  Si20s22762   4.800   1.902   2.928
    1SIL  Si20t22763   5.145   1.703   2.747
    1SIL  O041h22764   4.946   1.879   2.992
    1SIL  O041i22765   4.993   2.067   2.630
    1SIL  O041j22766   4.806   2.014   2.811
    1SIL  O041k22767   5.052   1.817   2.682
    1SIL  O041l22768   5.239   1.764   2.864
    1SIL  O041m22769   5.191   1.952   3.045
    1SIL  Si20u22770   4.800   2.354   2.566
    1SIL  Si20v22771   4.554   2.328   2.928
    1SIL  Si20w22772   4.900   2.128   2.747
    1SIL  O041n22773   4.700   2.304   2.992
    1SIL  O041o22774   4.747   2.493   2.630
    1SIL  O041p22775   4.560   2.439   2.811
    1SIL  O041q22776   4.806   2.243   2.682
    1SIL  O041r22777   4.993   2.190   2.864
    1SIL  O041s22778   4.946   2.378   3.045
    1SIL  Si20x22779   4.554   2.780   2.566
    1SIL  Si20y22780   4.308   2.753   2.928
    1SIL  Si20z22781   4.654   2.554   2.747
    1SIL  O041t22782   4.454   2.730   2.992
    1SIL  O041u22783   4.501   2.918   2.630
    1SIL  O041v22784   4.315   2.865   2.811
    1SIL  O041w22785   4.560   2.668   2.682
    1SIL  O041x22786   4.747   2.615   2.864
    1SIL  O041y22787   4.700   2.804   3.045
    1SIL  Si21022788   4.308   3.206   2.566
    1SIL  Si21122789   4.062   3.179   2.928
    1SIL  Si21222790   4.408   2.980   2.747
    1SIL  O041z22791   4.208   3.156   2.992
    1SIL  O042022792   4.256   3.344   2.630
    1SIL  O042122793   4.069   3.291   2.811
    1SIL  O042222794   4.315   3.094   2.682
    1SIL  O042322795   4.501   3.041   2.864
    1SIL  O042422796   4.454   3.229   3.045
    1SIL  Si21322797   4.062   3.631   2.566
    1SIL  Si21422798   3.817   3.605   2.928
    1SIL  Si21522799   4.162   3.405   2.747
    1SIL  O042522800   3.963   3.581   2.992
    1SIL  O042622801   4.010   3.769   2.630
    1SIL  O042722802   3.823   3.716   2.811
    1SIL  O042822803   4.069   3.520   2.682
    1SIL  O042922804   4.256   3.467   2.864
    1SIL  O042A22805   4.208   3.655   3.045
    1SIL  Si21622806   3.817   4.057   2.566
    1SIL  Si21722807   3.571   4.030   2.928
    1SIL  Si21822808   3.917   3.831   2.747
    1SIL  O042B22809   3.717   4.007   2.992
    1SIL  O042C22810   3.764   4.195   2.630
    1SIL  O042D22811   3.577   4.142   2.811
    1SIL  O042E22812   3.823   3.945   2.682
    1SIL  O042F22813   4.010   3.892   2.864
    1SIL  O042G22814   3.963   4.081   3.045
    1SIL  Si21922815   3.571   4.483   2.566
    1SIL  Si21A22816   3.325   4.456   2.928
    1SIL  Si21B22817   3.671   4.256   2.747
    1SIL  O042H22818   3.471   4.432   2.992
    1SIL  O042I22819   3.518   4.621   2.630
    1SIL  O042J22820   3.332   4.568   2.811
    1SIL  O042K22821   3.577   4.371   2.682
    1SIL  O042L22822   3.764   4.318   2.864
    1SIL  O042M22823   3.717   4.506   3.045
    1SIL  Si21C22824   3.325   4.908   2.566
    1SIL  Si21D22825   3.079   4.882   2.928
    1SIL  Si21E22826   3.425   4.682   2.747
    1SIL  O042N22827   3.225   4.858   2.992
    1SIL  O042O22828   3.273   5.046   2.630
    1SIL  O042P22829   3.086   4.993   2.811
    1SIL  O042Q22830   3.332   4.797   2.682
    1SIL  O042R22831   3.518   4.744   2.864
    1SIL  O042S22832   3.471   4.932   3.045
    1SIL  Si21F22833   3.079   5.334   2.566
    1SIL  Si21G22834   2.834   5.307   2.928
    1SIL  Si21H22835   3.179   5.108   2.747
    1SIL  O042T22836   2.980   5.284   2.992
    1SIL  O042U22837   3.027   5.472   2.630
    1SIL  O042V22838   2.840   5.419   2.811
    1SIL  O042W22839   3.086   5.222   2.682
    1SIL  O042X22840   3.273   5.169   2.864
    1SIL  O042Y22841   3.225   5.357   3.045
    1SIL  Si21I22842   2.834   5.759   2.566
    1SIL  Si21J22843   2.588   5.733   2.928
    1SIL  Si21K22844   2.934   5.533   2.747
    1SIL  O042Z22845   2.734   5.709   2.992
    1SIL  O042a22846   2.781   5.898   2.630
    1SIL  O042b22847   2.595   5.844   2.811
    1SIL  O042c22848   2.840   5.648   2.682
    1SIL  O042d22849   3.027   5.595   2.864
    1SIL  O042e22850   2.980   5.783   3.045
    1SIL  Si21L22851   2.588   6.185   2.566
    1SIL  Si21M22852   2.342   6.159   2.928
    1SIL  Si21N22853   2.688   5.959   2.747
    1SIL  O042f22854   2.488   6.135   2.992
    1SIL  O042g22855   2.535   6.323   2.630
    1SIL  O042h22856   2.349   6.270   2.811
    1SIL  O042i22857   2.595   6.074   2.682
    1SIL  O042j22858   2.781   6.020   2.864
    1SIL  O042k22859   2.734   6.209   3.045
    1SIL  Si21O22860   2.342   6.611   2.566
    1SIL  Si21P22861   2.097   6.584   2.928
    1SIL  Si21Q22862   2.442   6.385   2.747
    1SIL  O042l22863   2.242   6.561   2.992
    1SIL  O042m22864   2.290   6.749   2.630
    1SIL  O042n22865   2.103   6.696   2.811
    1SIL  O042o22866   2.349   6.499   2.682
    1SIL  O042p22867   2.535   6.446   2.864
    1SIL  O042q22868   2.488   6.634   3.045
    1SIL  Si21R22869   2.097   7.036   2.566
    1SIL  Si21S22870   1.851   7.010   2.928
    1SIL  Si21T22871   2.196   6.810   2.747
    1SIL  O042r22872   1.997   6.986   2.992
    1SIL  O042s22873   2.044   7.175   2.630
    1SIL  O042t22874   1.857   7.121   2.811
    1SIL  O042u22875   2.103   6.925   2.682
    1SIL  O042v22876   2.290   6.872   2.864
    1SIL  O042w22877   2.242   7.060   3.045
    1SIL  Si21U22878   1.851   7.462   2.566
    1SIL  Si21V22879   1.605   7.436   2.928
    1SIL  Si21W22880   1.951   7.236   2.747
    1SIL  O042x22881   1.751   7.412   2.992
    1SIL  O042y22882   1.798   7.600   2.630
    1SIL  O042z22883   1.612   7.547   2.811
    1SIL  O043022884   1.857   7.351   2.682
    1SIL  O043122885   2.044   7.297   2.864
    1SIL  O043222886   1.997   7.486   3.045
    1SIL  Si21X22887   1.605   7.888   2.566
    1SIL  Si21Y22888   1.359   7.861   2.928
    1SIL  Si21Z22889   1.705   7.662   2.747
    1SIL  O043322890   1.505   7.838   2.992
    1SIL  O043422891   1.552   8.026   2.630
    1SIL  O043522892   1.366   7.973   2.811
    1SIL  O043622893   1.612   7.776   2.682
    1SIL  O043722894   1.798   7.723   2.864
    1SIL  O043822895   1.751   7.911   3.045
    1SIL  Si21a22896   1.359   8.313   2.566
    1SIL  Si21b22897   1.114   8.287   2.928
    1SIL  Si21c22898   1.459   8.087   2.747
    1SIL  O043922899   1.259   8.263   2.992
    1SIL  O043A22900   1.307   8.452   2.630
    1SIL  O043B22901   1.120   8.398   2.811
    1SIL  O043C22902   1.366   8.202   2.682
    1SIL  O043D22903   1.552   8.149   2.864
    1SIL  O043E22904   1.505   8.337   3.045
    1SIL  Si21d22905   1.114   8.739   2.566
    1SIL  Si21e22906   0.868   8.713   2.928
    1SIL  Si21f22907   1.213   8.513   2.747
    1SIL  O043F22908   1.014   8.689   2.992
    1SIL  O043G22909   1.061   8.877   2.630
    1SIL  O043H22910   0.874   8.824   2.811
    1SIL  O043I22911   1.120   8.628   2.682
    1SIL  O043J22912   1.307   8.574   2.864
    1SIL  O043K22913   1.259   8.763   3.045
    1SIL  Si21g22914   0.868   9.165   2.566
    1SIL  Si21h22915   0.622   9.138   2.928
    1SIL  Si21i22916   0.968   8.939   2.747
    1SIL  O043L22917   0.768   9.115   2.992
    1SIL  O043M22918   0.815   9.303   2.630
    1SIL  O043N22919   0.629   9.250   2.811
    1SIL  O043O22920   0.874   9.053   2.682
    1SIL  O043P22921   1.061   9.000   2.864
    1SIL  O043Q22922   1.014   9.188   3.045
    1SIL  Si21j22923   0.622   9.590   2.566
    1SIL  Si21k22924   0.376   9.564   2.928
    1SIL  Si21l22925   0.722   9.364   2.747
    1SIL  O043R22926   0.522   9.540   2.992
    1SIL  O043S22927   0.569   9.729   2.630
    1SIL  O043T22928   0.383   9.675   2.811
    1SIL  O043U22929   0.629   9.479   2.682
    1SIL  O043V22930   0.815   9.426   2.864
    1SIL  O043W22931   0.768   9.614   3.045
    1SIL  Si21m22932   6.520   0.226   2.566
    1SIL  Si21n22933   6.274   0.200   2.928
    1SIL  Si21o22934   6.620   0.000   2.747
    1SIL  O043X22935   6.420   0.176   2.992
    1SIL  O043Y22936   6.467   0.364   2.630
    1SIL  O043Z22937   6.281   0.311   2.811
    1SIL  O043a22938   6.526   0.115   2.682
    1SIL  O043b22939   6.713   0.061   2.864
    1SIL  O043c22940   6.666   0.250   3.045
    1SIL  Si21p22941   6.274   0.652   2.566
    1SIL  Si21q22942   6.028   0.625   2.928
    1SIL  Si21r22943   6.374   0.426   2.747
    1SIL  O043d22944   6.174   0.602   2.992
    1SIL  O043e22945   6.222   0.790   2.630
    1SIL  O043f22946   6.035   0.737   2.811
    1SIL  O043g22947   6.281   0.540   2.682
    1SIL  O043h22948   6.467   0.487   2.864
    1SIL  O043i22949   6.420   0.675   3.045
    1SIL  Si21s22950   6.028   1.077   2.566
    1SIL  Si21t22951   5.783   1.051   2.928
    1SIL  Si21u22952   6.128   0.851   2.747
    1SIL  O043j22953   5.929   1.027   2.992
    1SIL  O043k22954   5.976   1.216   2.630
    1SIL  O043l22955   5.789   1.162   2.811
    1SIL  O043m22956   6.035   0.966   2.682
    1SIL  O043n22957   6.222   0.913   2.864
    1SIL  O043o22958   6.174   1.101   3.045
    1SIL  Si21v22959   5.783   1.503   2.566
    1SIL  Si21w22960   5.537   1.477   2.928
    1SIL  Si21x22961   5.883   1.277   2.747
    1SIL  O043p22962   5.683   1.453   2.992
    1SIL  O043q22963   5.730   1.641   2.630
    1SIL  O043r22964   5.543   1.588   2.811
    1SIL  O043s22965   5.789   1.392   2.682
    1SIL  O043t22966   5.976   1.338   2.864
    1SIL  O043u22967   5.929   1.527   3.045
    1SIL  Si21y22968   5.537   1.929   2.566
    1SIL  Si21z22969   5.291   1.902   2.928
    1SIL  Si22022970   5.637   1.703   2.747
    1SIL  O043v22971   5.437   1.879   2.992
    1SIL  O043w22972   5.484   2.067   2.630
    1SIL  O043x22973   5.298   2.014   2.811
    1SIL  O043y22974   5.543   1.817   2.682
    1SIL  O043z22975   5.730   1.764   2.864
    1SIL  O044022976   5.683   1.952   3.045
    1SIL  Si22122977   5.291   2.354   2.566
    1SIL  Si22222978   5.045   2.328   2.928
    1SIL  Si22322979   5.391   2.128   2.747
    1SIL  O044122980   5.191   2.304   2.992
    1SIL  O044222981   5.239   2.493   2.630
    1SIL  O044322982   5.052   2.439   2.811
    1SIL  O044422983   5.298   2.243   2.682
    1SIL  O044522984   5.484   2.190   2.864
    1SIL  O044622985   5.437   2.378   3.045
    1SIL  Si22422986   5.045   2.780   2.566
    1SIL  Si22522987   4.800   2.753   2.928
    1SIL  Si22622988   5.145   2.554   2.747
    1SIL  O044722989   4.946   2.730   2.992
    1SIL  O044822990   4.993   2.918   2.630
    1SIL  O044922991   4.806   2.865   2.811
    1SIL  O044A22992   5.052   2.668   2.682
    1SIL  O044B22993   5.239   2.615   2.864
    1SIL  O044C22994   5.191   2.804   3.045
    1SIL  Si22722995   4.800   3.206   2.566
    1SIL  Si22822996   4.554   3.179   2.928
    1SIL  Si22922997   4.900   2.980   2.747
    1SIL  O044D22998   4.700   3.156   2.992
    1SIL  O044E22999   4.747   3.344   2.630
    1SIL  O044F23000   4.560   3.291   2.811
    1SIL  O044G23001   4.806   3.094   2.682
    1SIL  O044H23002   4.993   3.041   2.864
    1SIL  O044I23003   4.946   3.229   3.045
    1SIL  Si22A23004   4.554   3.631   2.566
    1SIL  Si22B23005   4.308   3.605   2.928
    1SIL  Si22C23006   4.654   3.405   2.747
    1SIL  O044J23007   4.454   3.581   2.992
    1SIL  O044K23008   4.501   3.769   2.630
    1SIL  O044L23009   4.315   3.716   2.811
    1SIL  O044M23010   4.560   3.520   2.682
    1SIL  O044N23011   4.747   3.467   2.864
    1SIL  O044O23012   4.700   3.655   3.045
    1SIL  Si22D23013   4.308   4.057   2.566
    1SIL  Si22E23014   4.062   4.030   2.928
    1SIL  Si22F23015   4.408   3.831   2.747
    1SIL  O044P23016   4.208   4.007   2.992
    1SIL  O044Q23017   4.256   4.195   2.630
    1SIL  O044R23018   4.069   4.142   2.811
    1SIL  O044S23019   4.315   3.945   2.682
    1SIL  O044T23020   4.501   3.892   2.864
    1SIL  O044U23021   4.454   4.081   3.045
    1SIL  Si22G23022   4.062   4.483   2.566
    1SIL  Si22H23023   3.817   4.456   2.928
    1SIL  Si22I23024   4.162   4.256   2.747
    1SIL  O044V23025   3.963   4.432   2.992
    1SIL  O044W23026   4.010   4.621   2.630
    1SIL  O044X23027   3.823   4.568   2.811
    1SIL  O044Y23028   4.069   4.371   2.682
    1SIL  O044Z23029   4.256   4.318   2.864
    1SIL  O044a23030   4.208   4.506   3.045
    1SIL  Si22J23031   3.817   4.908   2.566
    1SIL  Si22K23032   3.571   4.882   2.928
    1SIL  Si22L23033   3.917   4.682   2.747
    1SIL  O044b23034   3.717   4.858   2.992
    1SIL  O044c23035   3.764   5.046   2.630
    1SIL  O044d23036   3.577   4.993   2.811
    1SIL  O044e23037   3.823   4.797   2.682
    1SIL  O044f23038   4.010   4.744   2.864
    1SIL  O044g23039   3.963   4.932   3.045
    1SIL  Si22M23040   3.571   5.334   2.566
    1SIL  Si22N23041   3.325   5.307   2.928
    1SIL  Si22O23042   3.671   5.108   2.747
    1SIL  O044h23043   3.471   5.284   2.992
    1SIL  O044i23044   3.518   5.472   2.630
    1SIL  O044j23045   3.332   5.419   2.811
    1SIL  O044k23046   3.577   5.222   2.682
    1SIL  O044l23047   3.764   5.169   2.864
    1SIL  O044m23048   3.717   5.357   3.045
    1SIL  Si22P23049   3.325   5.759   2.566
    1SIL  Si22Q23050   3.079   5.733   2.928
    1SIL  Si22R23051   3.425   5.533   2.747
    1SIL  O044n23052   3.225   5.709   2.992
    1SIL  O044o23053   3.273   5.898   2.630
    1SIL  O044p23054   3.086   5.844   2.811
    1SIL  O044q23055   3.332   5.648   2.682
    1SIL  O044r23056   3.518   5.595   2.864
    1SIL  O044s23057   3.471   5.783   3.045
    1SIL  Si22S23058   3.079   6.185   2.566
    1SIL  Si22T23059   2.834   6.159   2.928
    1SIL  Si22U23060   3.179   5.959   2.747
    1SIL  O044t23061   2.980   6.135   2.992
    1SIL  O044u23062   3.027   6.323   2.630
    1SIL  O044v23063   2.840   6.270   2.811
    1SIL  O044w23064   3.086   6.074   2.682
    1SIL  O044x23065   3.273   6.020   2.864
    1SIL  O044y23066   3.225   6.209   3.045
    1SIL  Si22V23067   2.834   6.611   2.566
    1SIL  Si22W23068   2.588   6.584   2.928
    1SIL  Si22X23069   2.934   6.385   2.747
    1SIL  O044z23070   2.734   6.561   2.992
    1SIL  O045023071   2.781   6.749   2.630
    1SIL  O045123072   2.595   6.696   2.811
    1SIL  O045223073   2.840   6.499   2.682
    1SIL  O045323074   3.027   6.446   2.864
    1SIL  O045423075   2.980   6.634   3.045
    1SIL  Si22Y23076   2.588   7.036   2.566
    1SIL  Si22Z23077   2.342   7.010   2.928
    1SIL  Si22a23078   2.688   6.810   2.747
    1SIL  O045523079   2.488   6.986   2.992
    1SIL  O045623080   2.535   7.175   2.630
    1SIL  O045723081   2.349   7.121   2.811
    1SIL  O045823082   2.595   6.925   2.682
    1SIL  O045923083   2.781   6.872   2.864
    1SIL  O045A23084   2.734   7.060   3.045
    1SIL  Si22b23085   2.342   7.462   2.566
    1SIL  Si22c23086   2.097   7.436   2.928
    1SIL  Si22d23087   2.442   7.236   2.747
    1SIL  O045B23088   2.242   7.412   2.992
    1SIL  O045C23089   2.290   7.600   2.630
    1SIL  O045D23090   2.103   7.547   2.811
    1SIL  O045E23091   2.349   7.351   2.682
    1SIL  O045F23092   2.535   7.297   2.864
    1SIL  O045G23093   2.488   7.486   3.045
    1SIL  Si22e23094   2.097   7.888   2.566
    1SIL  Si22f23095   1.851   7.861   2.928
    1SIL  Si22g23096   2.196   7.662   2.747
    1SIL  O045H23097   1.997   7.838   2.992
    1SIL  O045I23098   2.044   8.026   2.630
    1SIL  O045J23099   1.857   7.973   2.811
    1SIL  O045K23100   2.103   7.776   2.682
    1SIL  O045L23101   2.290   7.723   2.864
    1SIL  O045M23102   2.242   7.911   3.045
    1SIL  Si22h23103   1.851   8.313   2.566
    1SIL  Si22i23104   1.605   8.287   2.928
    1SIL  Si22j23105   1.951   8.087   2.747
    1SIL  O045N23106   1.751   8.263   2.992
    1SIL  O045O23107   1.798   8.452   2.630
    1SIL  O045P23108   1.612   8.398   2.811
    1SIL  O045Q23109   1.857   8.202   2.682
    1SIL  O045R23110   2.044   8.149   2.864
    1SIL  O045S23111   1.997   8.337   3.045
    1SIL  Si22k23112   1.605   8.739   2.566
    1SIL  Si22l23113   1.359   8.713   2.928
    1SIL  Si22m23114   1.705   8.513   2.747
    1SIL  O045T23115   1.505   8.689   2.992
    1SIL  O045U23116   1.552   8.877   2.630
    1SIL  O045V23117   1.366   8.824   2.811
    1SIL  O045W23118   1.612   8.628   2.682
    1SIL  O045X23119   1.798   8.574   2.864
    1SIL  O045Y23120   1.751   8.763   3.045
    1SIL  Si22n23121   1.359   9.165   2.566
    1SIL  Si22o23122   1.114   9.138   2.928
    1SIL  Si22p23123   1.459   8.939   2.747
    1SIL  O045Z23124   1.259   9.115   2.992
    1SIL  O045a23125   1.307   9.303   2.630
    1SIL  O045b23126   1.120   9.250   2.811
    1SIL  O045c23127   1.366   9.053   2.682
    1SIL  O045d23128   1.552   9.000   2.864
    1SIL  O045e23129   1.505   9.188   3.045
    1SIL  Si22q23130   1.114   9.590   2.566
    1SIL  Si22r23131   0.868   9.564   2.928
    1SIL  Si22s23132   1.213   9.364   2.747
    1SIL  O045f23133   1.014   9.540   2.992
    1SIL  O045g23134   1.061   9.729   2.630
    1SIL  O045h23135   0.874   9.675   2.811
    1SIL  O045i23136   1.120   9.479   2.682
    1SIL  O045j23137   1.307   9.426   2.864
    1SIL  O045k23138   1.259   9.614   3.045
    1SIL  Si22t23139   7.011   0.226   2.566
    1SIL  Si22u23140   6.766   0.200   2.928
    1SIL  Si22v23141   7.111   0.000   2.747
    1SIL  O045l23142   6.912   0.176   2.992
    1SIL  O045m23143   6.959   0.364   2.630
    1SIL  O045n23144   6.772   0.311   2.811
    1SIL  O045o23145   7.018   0.115   2.682
    1SIL  O045p23146   7.205   0.061   2.864
    1SIL  O045q23147   7.157   0.250   3.045
    1SIL  Si22w23148   6.766   0.652   2.566
    1SIL  Si22x23149   6.520   0.625   2.928
    1SIL  Si22y23150   6.866   0.426   2.747
    1SIL  O045r23151   6.666   0.602   2.992
    1SIL  O045s23152   6.713   0.790   2.630
    1SIL  O045t23153   6.526   0.737   2.811
    1SIL  O045u23154   6.772   0.540   2.682
    1SIL  O045v23155   6.959   0.487   2.864
    1SIL  O045w23156   6.912   0.675   3.045
    1SIL  Si22z23157   6.520   1.077   2.566
    1SIL  Si23023158   6.274   1.051   2.928
    1SIL  Si23123159   6.620   0.851   2.747
    1SIL  O045x23160   6.420   1.027   2.992
    1SIL  O045y23161   6.467   1.216   2.630
    1SIL  O045z23162   6.281   1.162   2.811
    1SIL  O046023163   6.526   0.966   2.682
    1SIL  O046123164   6.713   0.913   2.864
    1SIL  O046223165   6.666   1.101   3.045
    1SIL  Si23223166   6.274   1.503   2.566
    1SIL  Si23323167   6.028   1.477   2.928
    1SIL  Si23423168   6.374   1.277   2.747
    1SIL  O046323169   6.174   1.453   2.992
    1SIL  O046423170   6.222   1.641   2.630
    1SIL  O046523171   6.035   1.588   2.811
    1SIL  O046623172   6.281   1.392   2.682
    1SIL  O046723173   6.467   1.338   2.864
    1SIL  O046823174   6.420   1.527   3.045
    1SIL  Si23523175   6.028   1.929   2.566
    1SIL  Si23623176   5.783   1.902   2.928
    1SIL  Si23723177   6.128   1.703   2.747
    1SIL  O046923178   5.929   1.879   2.992
    1SIL  O046A23179   5.976   2.067   2.630
    1SIL  O046B23180   5.789   2.014   2.811
    1SIL  O046C23181   6.035   1.817   2.682
    1SIL  O046D23182   6.222   1.764   2.864
    1SIL  O046E23183   6.174   1.952   3.045
    1SIL  Si23823184   5.783   2.354   2.566
    1SIL  Si23923185   5.537   2.328   2.928
    1SIL  Si23A23186   5.883   2.128   2.747
    1SIL  O046F23187   5.683   2.304   2.992
    1SIL  O046G23188   5.730   2.493   2.630
    1SIL  O046H23189   5.543   2.439   2.811
    1SIL  O046I23190   5.789   2.243   2.682
    1SIL  O046J23191   5.976   2.190   2.864
    1SIL  O046K23192   5.929   2.378   3.045
    1SIL  Si23B23193   5.537   2.780   2.566
    1SIL  Si23C23194   5.291   2.753   2.928
    1SIL  Si23D23195   5.637   2.554   2.747
    1SIL  O046L23196   5.437   2.730   2.992
    1SIL  O046M23197   5.484   2.918   2.630
    1SIL  O046N23198   5.298   2.865   2.811
    1SIL  O046O23199   5.543   2.668   2.682
    1SIL  O046P23200   5.730   2.615   2.864
    1SIL  O046Q23201   5.683   2.804   3.045
    1SIL  Si23E23202   5.291   3.206   2.566
    1SIL  Si23F23203   5.045   3.179   2.928
    1SIL  Si23G23204   5.391   2.980   2.747
    1SIL  O046R23205   5.191   3.156   2.992
    1SIL  O046S23206   5.239   3.344   2.630
    1SIL  O046T23207   5.052   3.291   2.811
    1SIL  O046U23208   5.298   3.094   2.682
    1SIL  O046V23209   5.484   3.041   2.864
    1SIL  O046W23210   5.437   3.229   3.045
    1SIL  Si23H23211   5.045   3.631   2.566
    1SIL  Si23I23212   4.800   3.605   2.928
    1SIL  Si23J23213   5.145   3.405   2.747
    1SIL  O046X23214   4.946   3.581   2.992
    1SIL  O046Y23215   4.993   3.769   2.630
    1SIL  O046Z23216   4.806   3.716   2.811
    1SIL  O046a23217   5.052   3.520   2.682
    1SIL  O046b23218   5.239   3.467   2.864
    1SIL  O046c23219   5.191   3.655   3.045
    1SIL  Si23K23220   4.800   4.057   2.566
    1SIL  Si23L23221   4.554   4.030   2.928
    1SIL  Si23M23222   4.900   3.831   2.747
    1SIL  O046d23223   4.700   4.007   2.992
    1SIL  O046e23224   4.747   4.195   2.630
    1SIL  O046f23225   4.560   4.142   2.811
    1SIL  O046g23226   4.806   3.945   2.682
    1SIL  O046h23227   4.993   3.892   2.864
    1SIL  O046i23228   4.946   4.081   3.045
    1SIL  Si23N23229   4.554   4.483   2.566
    1SIL  Si23O23230   4.308   4.456   2.928
    1SIL  Si23P23231   4.654   4.256   2.747
    1SIL  O046j23232   4.454   4.432   2.992
    1SIL  O046k23233   4.501   4.621   2.630
    1SIL  O046l23234   4.315   4.568   2.811
    1SIL  O046m23235   4.560   4.371   2.682
    1SIL  O046n23236   4.747   4.318   2.864
    1SIL  O046o23237   4.700   4.506   3.045
    1SIL  Si23Q23238   4.308   4.908   2.566
    1SIL  Si23R23239   4.062   4.882   2.928
    1SIL  Si23S23240   4.408   4.682   2.747
    1SIL  O046p23241   4.208   4.858   2.992
    1SIL  O046q23242   4.256   5.046   2.630
    1SIL  O046r23243   4.069   4.993   2.811
    1SIL  O046s23244   4.315   4.797   2.682
    1SIL  O046t23245   4.501   4.744   2.864
    1SIL  O046u23246   4.454   4.932   3.045
    1SIL  Si23T23247   4.062   5.334   2.566
    1SIL  Si23U23248   3.817   5.307   2.928
    1SIL  Si23V23249   4.162   5.108   2.747
    1SIL  O046v23250   3.963   5.284   2.992
    1SIL  O046w23251   4.010   5.472   2.630
    1SIL  O046x23252   3.823   5.419   2.811
    1SIL  O046y23253   4.069   5.222   2.682
    1SIL  O046z23254   4.256   5.169   2.864
    1SIL  O047023255   4.208   5.357   3.045
    1SIL  Si23W23256   3.817   5.759   2.566
    1SIL  Si23X23257   3.571   5.733   2.928
    1SIL  Si23Y23258   3.917   5.533   2.747
    1SIL  O047123259   3.717   5.709   2.992
    1SIL  O047223260   3.764   5.898   2.630
    1SIL  O047323261   3.577   5.844   2.811
    1SIL  O047423262   3.823   5.648   2.682
    1SIL  O047523263   4.010   5.595   2.864
    1SIL  O047623264   3.963   5.783   3.045
    1SIL  Si23Z23265   3.571   6.185   2.566
    1SIL  Si23a23266   3.325   6.159   2.928
    1SIL  Si23b23267   3.671   5.959   2.747
    1SIL  O047723268   3.471   6.135   2.992
    1SIL  O047823269   3.518   6.323   2.630
    1SIL  O047923270   3.332   6.270   2.811
    1SIL  O047A23271   3.577   6.074   2.682
    1SIL  O047B23272   3.764   6.020   2.864
    1SIL  O047C23273   3.717   6.209   3.045
    1SIL  Si23c23274   3.325   6.611   2.566
    1SIL  Si23d23275   3.079   6.584   2.928
    1SIL  Si23e23276   3.425   6.385   2.747
    1SIL  O047D23277   3.225   6.561   2.992
    1SIL  O047E23278   3.273   6.749   2.630
    1SIL  O047F23279   3.086   6.696   2.811
    1SIL  O047G23280   3.332   6.499   2.682
    1SIL  O047H23281   3.518   6.446   2.864
    1SIL  O047I23282   3.471   6.634   3.045
    1SIL  Si23f23283   3.079   7.036   2.566
    1SIL  Si23g23284   2.834   7.010   2.928
    1SIL  Si23h23285   3.179   6.810   2.747
    1SIL  O047J23286   2.980   6.986   2.992
    1SIL  O047K23287   3.027   7.175   2.630
    1SIL  O047L23288   2.840   7.121   2.811
    1SIL  O047M23289   3.086   6.925   2.682
    1SIL  O047N23290   3.273   6.872   2.864
    1SIL  O047O23291   3.225   7.060   3.045
    1SIL  Si23i23292   2.834   7.462   2.566
    1SIL  Si23j23293   2.588   7.436   2.928
    1SIL  Si23k23294   2.934   7.236   2.747
    1SIL  O047P23295   2.734   7.412   2.992
    1SIL  O047Q23296   2.781   7.600   2.630
    1SIL  O047R23297   2.595   7.547   2.811
    1SIL  O047S23298   2.840   7.351   2.682
    1SIL  O047T23299   3.027   7.297   2.864
    1SIL  O047U23300   2.980   7.486   3.045
    1SIL  Si23l23301   2.588   7.888   2.566
    1SIL  Si23m23302   2.342   7.861   2.928
    1SIL  Si23n23303   2.688   7.662   2.747
    1SIL  O047V23304   2.488   7.838   2.992
    1SIL  O047W23305   2.535   8.026   2.630
    1SIL  O047X23306   2.349   7.973   2.811
    1SIL  O047Y23307   2.595   7.776   2.682
    1SIL  O047Z23308   2.781   7.723   2.864
    1SIL  O047a23309   2.734   7.911   3.045
    1SIL  Si23o23310   2.342   8.313   2.566
    1SIL  Si23p23311   2.097   8.287   2.928
    1SIL  Si23q23312   2.442   8.087   2.747
    1SIL  O047b23313   2.242   8.263   2.992
    1SIL  O047c23314   2.290   8.452   2.630
    1SIL  O047d23315   2.103   8.398   2.811
    1SIL  O047e23316   2.349   8.202   2.682
    1SIL  O047f23317   2.535   8.149   2.864
    1SIL  O047g23318   2.488   8.337   3.045
    1SIL  Si23r23319   2.097   8.739   2.566
    1SIL  Si23s23320   1.851   8.713   2.928
    1SIL  Si23t23321   2.196   8.513   2.747
    1SIL  O047h23322   1.997   8.689   2.992
    1SIL  O047i23323   2.044   8.877   2.630
    1SIL  O047j23324   1.857   8.824   2.811
    1SIL  O047k23325   2.103   8.628   2.682
    1SIL  O047l23326   2.290   8.574   2.864
    1SIL  O047m23327   2.242   8.763   3.045
    1SIL  Si23u23328   1.851   9.165   2.566
    1SIL  Si23v23329   1.605   9.138   2.928
    1SIL  Si23w23330   1.951   8.939   2.747
    1SIL  O047n23331   1.751   9.115   2.992
    1SIL  O047o23332   1.798   9.303   2.630
    1SIL  O047p23333   1.612   9.250   2.811
    1SIL  O047q23334   1.857   9.053   2.682
    1SIL  O047r23335   2.044   9.000   2.864
    1SIL  O047s23336   1.997   9.188   3.045
    1SIL  Si23x23337   1.605   9.590   2.566
    1SIL  Si23y23338   1.359   9.564   2.928
    1SIL  Si23z23339   1.705   9.364   2.747
    1SIL  O047t23340   1.505   9.540   2.992
    1SIL  O047u23341   1.552   9.729   2.630
    1SIL  O047v23342   1.366   9.675   2.811
    1SIL  O047w23343   1.612   9.479   2.682
    1SIL  O047x23344   1.798   9.426   2.864
    1SIL  O047y23345   1.751   9.614   3.045
    1SIL  Si24023346   7.503   0.226   2.566
    1SIL  Si24123347   7.257   0.200   2.928
    1SIL  Si24223348   7.603   0.000   2.747
    1SIL  O047z23349   7.403   0.176   2.992
    1SIL  O048023350   7.450   0.364   2.630
    1SIL  O048123351   7.264   0.311   2.811
    1SIL  O048223352   7.509   0.115   2.682
    1SIL  O048323353   7.696   0.061   2.864
    1SIL  O048423354   7.649   0.250   3.045
    1SIL  Si24323355   7.257   0.652   2.566
    1SIL  Si24423356   7.011   0.625   2.928
    1SIL  Si24523357   7.357   0.426   2.747
    1SIL  O048523358   7.157   0.602   2.992
    1SIL  O048623359   7.205   0.790   2.630
    1SIL  O048723360   7.018   0.737   2.811
    1SIL  O048823361   7.264   0.540   2.682
    1SIL  O048923362   7.450   0.487   2.864
    1SIL  O048A23363   7.403   0.675   3.045
    1SIL  Si24623364   7.011   1.077   2.566
    1SIL  Si24723365   6.766   1.051   2.928
    1SIL  Si24823366   7.111   0.851   2.747
    1SIL  O048B23367   6.912   1.027   2.992
    1SIL  O048C23368   6.959   1.216   2.630
    1SIL  O048D23369   6.772   1.162   2.811
    1SIL  O048E23370   7.018   0.966   2.682
    1SIL  O048F23371   7.205   0.913   2.864
    1SIL  O048G23372   7.157   1.101   3.045
    1SIL  Si24923373   6.766   1.503   2.566
    1SIL  Si24A23374   6.520   1.477   2.928
    1SIL  Si24B23375   6.866   1.277   2.747
    1SIL  O048H23376   6.666   1.453   2.992
    1SIL  O048I23377   6.713   1.641   2.630
    1SIL  O048J23378   6.526   1.588   2.811
    1SIL  O048K23379   6.772   1.392   2.682
    1SIL  O048L23380   6.959   1.338   2.864
    1SIL  O048M23381   6.912   1.527   3.045
    1SIL  Si24C23382   6.520   1.929   2.566
    1SIL  Si24D23383   6.274   1.902   2.928
    1SIL  Si24E23384   6.620   1.703   2.747
    1SIL  O048N23385   6.420   1.879   2.992
    1SIL  O048O23386   6.467   2.067   2.630
    1SIL  O048P23387   6.281   2.014   2.811
    1SIL  O048Q23388   6.526   1.817   2.682
    1SIL  O048R23389   6.713   1.764   2.864
    1SIL  O048S23390   6.666   1.952   3.045
    1SIL  Si24F23391   6.274   2.354   2.566
    1SIL  Si24G23392   6.028   2.328   2.928
    1SIL  Si24H23393   6.374   2.128   2.747
    1SIL  O048T23394   6.174   2.304   2.992
    1SIL  O048U23395   6.222   2.493   2.630
    1SIL  O048V23396   6.035   2.439   2.811
    1SIL  O048W23397   6.281   2.243   2.682
    1SIL  O048X23398   6.467   2.190   2.864
    1SIL  O048Y23399   6.420   2.378   3.045
    1SIL  Si24I23400   6.028   2.780   2.566
    1SIL  Si24J23401   5.783   2.753   2.928
    1SIL  Si24K23402   6.128   2.554   2.747
    1SIL  O048Z23403   5.929   2.730   2.992
    1SIL  O048a23404   5.976   2.918   2.630
    1SIL  O048b23405   5.789   2.865   2.811
    1SIL  O048c23406   6.035   2.668   2.682
    1SIL  O048d23407   6.222   2.615   2.864
    1SIL  O048e23408   6.174   2.804   3.045
    1SIL  Si24L23409   5.783   3.206   2.566
    1SIL  Si24M23410   5.537   3.179   2.928
    1SIL  Si24N23411   5.883   2.980   2.747
    1SIL  O048f23412   5.683   3.156   2.992
    1SIL  O048g23413   5.730   3.344   2.630
    1SIL  O048h23414   5.543   3.291   2.811
    1SIL  O048i23415   5.789   3.094   2.682
    1SIL  O048j23416   5.976   3.041   2.864
    1SIL  O048k23417   5.929   3.229   3.045
    1SIL  Si24O23418   5.537   3.631   2.566
    1SIL  Si24P23419   5.291   3.605   2.928
    1SIL  Si24Q23420   5.637   3.405   2.747
    1SIL  O048l23421   5.437   3.581   2.992
    1SIL  O048m23422   5.484   3.769   2.630
    1SIL  O048n23423   5.298   3.716   2.811
    1SIL  O048o23424   5.543   3.520   2.682
    1SIL  O048p23425   5.730   3.467   2.864
    1SIL  O048q23426   5.683   3.655   3.045
    1SIL  Si24R23427   5.291   4.057   2.566
    1SIL  Si24S23428   5.045   4.030   2.928
    1SIL  Si24T23429   5.391   3.831   2.747
    1SIL  O048r23430   5.191   4.007   2.992
    1SIL  O048s23431   5.239   4.195   2.630
    1SIL  O048t23432   5.052   4.142   2.811
    1SIL  O048u23433   5.298   3.945   2.682
    1SIL  O048v23434   5.484   3.892   2.864
    1SIL  O048w23435   5.437   4.081   3.045
    1SIL  Si24U23436   5.045   4.483   2.566
    1SIL  Si24V23437   4.800   4.456   2.928
    1SIL  Si24W23438   5.145   4.256   2.747
    1SIL  O048x23439   4.946   4.432   2.992
    1SIL  O048y23440   4.993   4.621   2.630
    1SIL  O048z23441   4.806   4.568   2.811
    1SIL  O049023442   5.052   4.371   2.682
    1SIL  O049123443   5.239   4.318   2.864
    1SIL  O049223444   5.191   4.506   3.045
    1SIL  Si24X23445   4.800   4.908   2.566
    1SIL  Si24Y23446   4.554   4.882   2.928
    1SIL  Si24Z23447   4.900   4.682   2.747
    1SIL  O049323448   4.700   4.858   2.992
    1SIL  O049423449   4.747   5.046   2.630
    1SIL  O049523450   4.560   4.993   2.811
    1SIL  O049623451   4.806   4.797   2.682
    1SIL  O049723452   4.993   4.744   2.864
    1SIL  O049823453   4.946   4.932   3.045
    1SIL  Si24a23454   4.554   5.334   2.566
    1SIL  Si24b23455   4.308   5.307   2.928
    1SIL  Si24c23456   4.654   5.108   2.747
    1SIL  O049923457   4.454   5.284   2.992
    1SIL  O049A23458   4.501   5.472   2.630
    1SIL  O049B23459   4.315   5.419   2.811
    1SIL  O049C23460   4.560   5.222   2.682
    1SIL  O049D23461   4.747   5.169   2.864
    1SIL  O049E23462   4.700   5.357   3.045
    1SIL  Si24d23463   4.308   5.759   2.566
    1SIL  Si24e23464   4.062   5.733   2.928
    1SIL  Si24f23465   4.408   5.533   2.747
    1SIL  O049F23466   4.208   5.709   2.992
    1SIL  O049G23467   4.256   5.898   2.630
    1SIL  O049H23468   4.069   5.844   2.811
    1SIL  O049I23469   4.315   5.648   2.682
    1SIL  O049J23470   4.501   5.595   2.864
    1SIL  O049K23471   4.454   5.783   3.045
    1SIL  Si24g23472   4.062   6.185   2.566
    1SIL  Si24h23473   3.817   6.159   2.928
    1SIL  Si24i23474   4.162   5.959   2.747
    1SIL  O049L23475   3.963   6.135   2.992
    1SIL  O049M23476   4.010   6.323   2.630
    1SIL  O049N23477   3.823   6.270   2.811
    1SIL  O049O23478   4.069   6.074   2.682
    1SIL  O049P23479   4.256   6.020   2.864
    1SIL  O049Q23480   4.208   6.209   3.045
    1SIL  Si24j23481   3.817   6.611   2.566
    1SIL  Si24k23482   3.571   6.584   2.928
    1SIL  Si24l23483   3.917   6.385   2.747
    1SIL  O049R23484   3.717   6.561   2.992
    1SIL  O049S23485   3.764   6.749   2.630
    1SIL  O049T23486   3.577   6.696   2.811
    1SIL  O049U23487   3.823   6.499   2.682
    1SIL  O049V23488   4.010   6.446   2.864
    1SIL  O049W23489   3.963   6.634   3.045
    1SIL  Si24m23490   3.571   7.036   2.566
    1SIL  Si24n23491   3.325   7.010   2.928
    1SIL  Si24o23492   3.671   6.810   2.747
    1SIL  O049X23493   3.471   6.986   2.992
    1SIL  O049Y23494   3.518   7.175   2.630
    1SIL  O049Z23495   3.332   7.121   2.811
    1SIL  O049a23496   3.577   6.925   2.682
    1SIL  O049b23497   3.764   6.872   2.864
    1SIL  O049c23498   3.717   7.060   3.045
    1SIL  Si24p23499   3.325   7.462   2.566
    1SIL  Si24q23500   3.079   7.436   2.928
    1SIL  Si24r23501   3.425   7.236   2.747
    1SIL  O049d23502   3.225   7.412   2.992
    1SIL  O049e23503   3.273   7.600   2.630
    1SIL  O049f23504   3.086   7.547   2.811
    1SIL  O049g23505   3.332   7.351   2.682
    1SIL  O049h23506   3.518   7.297   2.864
    1SIL  O049i23507   3.471   7.486   3.045
    1SIL  Si24s23508   3.079   7.888   2.566
    1SIL  Si24t23509   2.834   7.861   2.928
    1SIL  Si24u23510   3.179   7.662   2.747
    1SIL  O049j23511   2.980   7.838   2.992
    1SIL  O049k23512   3.027   8.026   2.630
    1SIL  O049l23513   2.840   7.973   2.811
    1SIL  O049m23514   3.086   7.776   2.682
    1SIL  O049n23515   3.273   7.723   2.864
    1SIL  O049o23516   3.225   7.911   3.045
    1SIL  Si24v23517   2.834   8.313   2.566
    1SIL  Si24w23518   2.588   8.287   2.928
    1SIL  Si24x23519   2.934   8.087   2.747
    1SIL  O049p23520   2.734   8.263   2.992
    1SIL  O049q23521   2.781   8.452   2.630
    1SIL  O049r23522   2.595   8.398   2.811
    1SIL  O049s23523   2.840   8.202   2.682
    1SIL  O049t23524   3.027   8.149   2.864
    1SIL  O049u23525   2.980   8.337   3.045
    1SIL  Si24y23526   2.588   8.739   2.566
    1SIL  Si24z23527   2.342   8.713   2.928
    1SIL  Si25023528   2.688   8.513   2.747
    1SIL  O049v23529   2.488   8.689   2.992
    1SIL  O049w23530   2.535   8.877   2.630
    1SIL  O049x23531   2.349   8.824   2.811
    1SIL  O049y23532   2.595   8.628   2.682
    1SIL  O049z23533   2.781   8.574   2.864
    1SIL  O04A023534   2.734   8.763   3.045
    1SIL  Si25123535   2.342   9.165   2.566
    1SIL  Si25223536   2.097   9.138   2.928
    1SIL  Si25323537   2.442   8.939   2.747
    1SIL  O04A123538   2.242   9.115   2.992
    1SIL  O04A223539   2.290   9.303   2.630
    1SIL  O04A323540   2.103   9.250   2.811
    1SIL  O04A423541   2.349   9.053   2.682
    1SIL  O04A523542   2.535   9.000   2.864
    1SIL  O04A623543   2.488   9.188   3.045
    1SIL  Si25423544   2.097   9.590   2.566
    1SIL  Si25523545   1.851   9.564   2.928
    1SIL  Si25623546   2.196   9.364   2.747
    1SIL  O04A723547   1.997   9.540   2.992
    1SIL  O04A823548   2.044   9.729   2.630
    1SIL  O04A923549   1.857   9.675   2.811
    1SIL  O04AA23550   2.103   9.479   2.682
    1SIL  O04AB23551   2.290   9.426   2.864
    1SIL  O04AC23552   2.242   9.614   3.045
    1SIL  Si25723553   7.994   0.226   2.566
    1SIL  Si25823554   7.749   0.200   2.928
    1SIL  Si25923555   8.094   0.000   2.747
    1SIL  O04AD23556   7.895   0.176   2.992
    1SIL  O04AE23557   7.942   0.364   2.630
    1SIL  O04AF23558   7.755   0.311   2.811
    1SIL  O04AG23559   8.001   0.115   2.682
    1SIL  O04AH23560   8.188   0.061   2.864
    1SIL  O04AI23561   8.140   0.250   3.045
    1SIL  Si25A23562   7.749   0.652   2.566
    1SIL  Si25B23563   7.503   0.625   2.928
    1SIL  Si25C23564   7.849   0.426   2.747
    1SIL  O04AJ23565   7.649   0.602   2.992
    1SIL  O04AK23566   7.696   0.790   2.630
    1SIL  O04AL23567   7.509   0.737   2.811
    1SIL  O04AM23568   7.755   0.540   2.682
    1SIL  O04AN23569   7.942   0.487   2.864
    1SIL  O04AO23570   7.895   0.675   3.045
    1SIL  Si25D23571   7.503   1.077   2.566
    1SIL  Si25E23572   7.257   1.051   2.928
    1SIL  Si25F23573   7.603   0.851   2.747
    1SIL  O04AP23574   7.403   1.027   2.992
    1SIL  O04AQ23575   7.450   1.216   2.630
    1SIL  O04AR23576   7.264   1.162   2.811
    1SIL  O04AS23577   7.509   0.966   2.682
    1SIL  O04AT23578   7.696   0.913   2.864
    1SIL  O04AU23579   7.649   1.101   3.045
    1SIL  Si25G23580   7.257   1.503   2.566
    1SIL  Si25H23581   7.011   1.477   2.928
    1SIL  Si25I23582   7.357   1.277   2.747
    1SIL  O04AV23583   7.157   1.453   2.992
    1SIL  O04AW23584   7.205   1.641   2.630
    1SIL  O04AX23585   7.018   1.588   2.811
    1SIL  O04AY23586   7.264   1.392   2.682
    1SIL  O04AZ23587   7.450   1.338   2.864
    1SIL  O04Aa23588   7.403   1.527   3.045
    1SIL  Si25J23589   7.011   1.929   2.566
    1SIL  Si25K23590   6.766   1.902   2.928
    1SIL  Si25L23591   7.111   1.703   2.747
    1SIL  O04Ab23592   6.912   1.879   2.992
    1SIL  O04Ac23593   6.959   2.067   2.630
    1SIL  O04Ad23594   6.772   2.014   2.811
    1SIL  O04Ae23595   7.018   1.817   2.682
    1SIL  O04Af23596   7.205   1.764   2.864
    1SIL  O04Ag23597   7.157   1.952   3.045
    1SIL  Si25M23598   6.766   2.354   2.566
    1SIL  Si25N23599   6.520   2.328   2.928
    1SIL  Si25O23600   6.866   2.128   2.747
    1SIL  O04Ah23601   6.666   2.304   2.992
    1SIL  O04Ai23602   6.713   2.493   2.630
    1SIL  O04Aj23603   6.526   2.439   2.811
    1SIL  O04Ak23604   6.772   2.243   2.682
    1SIL  O04Al23605   6.959   2.190   2.864
    1SIL  O04Am23606   6.912   2.378   3.045
    1SIL  Si25P23607   6.520   2.780   2.566
    1SIL  Si25Q23608   6.274   2.753   2.928
    1SIL  Si25R23609   6.620   2.554   2.747
    1SIL  O04An23610   6.420   2.730   2.992
    1SIL  O04Ao23611   6.467   2.918   2.630
    1SIL  O04Ap23612   6.281   2.865   2.811
    1SIL  O04Aq23613   6.526   2.668   2.682
    1SIL  O04Ar23614   6.713   2.615   2.864
    1SIL  O04As23615   6.666   2.804   3.045
    1SIL  Si25S23616   6.274   3.206   2.566
    1SIL  Si25T23617   6.028   3.179   2.928
    1SIL  Si25U23618   6.374   2.980   2.747
    1SIL  O04At23619   6.174   3.156   2.992
    1SIL  O04Au23620   6.222   3.344   2.630
    1SIL  O04Av23621   6.035   3.291   2.811
    1SIL  O04Aw23622   6.281   3.094   2.682
    1SIL  O04Ax23623   6.467   3.041   2.864
    1SIL  O04Ay23624   6.420   3.229   3.045
    1SIL  Si25V23625   6.028   3.631   2.566
    1SIL  Si25W23626   5.783   3.605   2.928
    1SIL  Si25X23627   6.128   3.405   2.747
    1SIL  O04Az23628   5.929   3.581   2.992
    1SIL  O04B023629   5.976   3.769   2.630
    1SIL  O04B123630   5.789   3.716   2.811
    1SIL  O04B223631   6.035   3.520   2.682
    1SIL  O04B323632   6.222   3.467   2.864
    1SIL  O04B423633   6.174   3.655   3.045
    1SIL  Si25Y23634   5.783   4.057   2.566
    1SIL  Si25Z23635   5.537   4.030   2.928
    1SIL  Si25a23636   5.883   3.831   2.747
    1SIL  O04B523637   5.683   4.007   2.992
    1SIL  O04B623638   5.730   4.195   2.630
    1SIL  O04B723639   5.543   4.142   2.811
    1SIL  O04B823640   5.789   3.945   2.682
    1SIL  O04B923641   5.976   3.892   2.864
    1SIL  O04BA23642   5.929   4.081   3.045
    1SIL  Si25b23643   5.537   4.483   2.566
    1SIL  Si25c23644   5.291   4.456   2.928
    1SIL  Si25d23645   5.637   4.256   2.747
    1SIL  O04BB23646   5.437   4.432   2.992
    1SIL  O04BC23647   5.484   4.621   2.630
    1SIL  O04BD23648   5.298   4.568   2.811
    1SIL  O04BE23649   5.543   4.371   2.682
    1SIL  O04BF23650   5.730   4.318   2.864
    1SIL  O04BG23651   5.683   4.506   3.045
    1SIL  Si25e23652   5.291   4.908   2.566
    1SIL  Si25f23653   5.045   4.882   2.928
    1SIL  Si25g23654   5.391   4.682   2.747
    1SIL  O04BH23655   5.191   4.858   2.992
    1SIL  O04BI23656   5.239   5.046   2.630
    1SIL  O04BJ23657   5.052   4.993   2.811
    1SIL  O04BK23658   5.298   4.797   2.682
    1SIL  O04BL23659   5.484   4.744   2.864
    1SIL  O04BM23660   5.437   4.932   3.045
    1SIL  Si25h23661   5.045   5.334   2.566
    1SIL  Si25i23662   4.800   5.307   2.928
    1SIL  Si25j23663   5.145   5.108   2.747
    1SIL  O04BN23664   4.946   5.284   2.992
    1SIL  O04BO23665   4.993   5.472   2.630
    1SIL  O04BP23666   4.806   5.419   2.811
    1SIL  O04BQ23667   5.052   5.222   2.682
    1SIL  O04BR23668   5.239   5.169   2.864
    1SIL  O04BS23669   5.191   5.357   3.045
    1SIL  Si25k23670   4.800   5.759   2.566
    1SIL  Si25l23671   4.554   5.733   2.928
    1SIL  Si25m23672   4.900   5.533   2.747
    1SIL  O04BT23673   4.700   5.709   2.992
    1SIL  O04BU23674   4.747   5.898   2.630
    1SIL  O04BV23675   4.560   5.844   2.811
    1SIL  O04BW23676   4.806   5.648   2.682
    1SIL  O04BX23677   4.993   5.595   2.864
    1SIL  O04BY23678   4.946   5.783   3.045
    1SIL  Si25n23679   4.554   6.185   2.566
    1SIL  Si25o23680   4.308   6.159   2.928
    1SIL  Si25p23681   4.654   5.959   2.747
    1SIL  O04BZ23682   4.454   6.135   2.992
    1SIL  O04Ba23683   4.501   6.323   2.630
    1SIL  O04Bb23684   4.315   6.270   2.811
    1SIL  O04Bc23685   4.560   6.074   2.682
    1SIL  O04Bd23686   4.747   6.020   2.864
    1SIL  O04Be23687   4.700   6.209   3.045
    1SIL  Si25q23688   4.308   6.611   2.566
    1SIL  Si25r23689   4.062   6.584   2.928
    1SIL  Si25s23690   4.408   6.385   2.747
    1SIL  O04Bf23691   4.208   6.561   2.992
    1SIL  O04Bg23692   4.256   6.749   2.630
    1SIL  O04Bh23693   4.069   6.696   2.811
    1SIL  O04Bi23694   4.315   6.499   2.682
    1SIL  O04Bj23695   4.501   6.446   2.864
    1SIL  O04Bk23696   4.454   6.634   3.045
    1SIL  Si25t23697   4.062   7.036   2.566
    1SIL  Si25u23698   3.817   7.010   2.928
    1SIL  Si25v23699   4.162   6.810   2.747
    1SIL  O04Bl23700   3.963   6.986   2.992
    1SIL  O04Bm23701   4.010   7.175   2.630
    1SIL  O04Bn23702   3.823   7.121   2.811
    1SIL  O04Bo23703   4.069   6.925   2.682
    1SIL  O04Bp23704   4.256   6.872   2.864
    1SIL  O04Bq23705   4.208   7.060   3.045
    1SIL  Si25w23706   3.817   7.462   2.566
    1SIL  Si25x23707   3.571   7.436   2.928
    1SIL  Si25y23708   3.917   7.236   2.747
    1SIL  O04Br23709   3.717   7.412   2.992
    1SIL  O04Bs23710   3.764   7.600   2.630
    1SIL  O04Bt23711   3.577   7.547   2.811
    1SIL  O04Bu23712   3.823   7.351   2.682
    1SIL  O04Bv23713   4.010   7.297   2.864
    1SIL  O04Bw23714   3.963   7.486   3.045
    1SIL  Si25z23715   3.571   7.888   2.566
    1SIL  Si26023716   3.325   7.861   2.928
    1SIL  Si26123717   3.671   7.662   2.747
    1SIL  O04Bx23718   3.471   7.838   2.992
    1SIL  O04By23719   3.518   8.026   2.630
    1SIL  O04Bz23720   3.332   7.973   2.811
    1SIL  O04C023721   3.577   7.776   2.682
    1SIL  O04C123722   3.764   7.723   2.864
    1SIL  O04C223723   3.717   7.911   3.045
    1SIL  Si26223724   3.325   8.313   2.566
    1SIL  Si26323725   3.079   8.287   2.928
    1SIL  Si26423726   3.425   8.087   2.747
    1SIL  O04C323727   3.225   8.263   2.992
    1SIL  O04C423728   3.273   8.452   2.630
    1SIL  O04C523729   3.086   8.398   2.811
    1SIL  O04C623730   3.332   8.202   2.682
    1SIL  O04C723731   3.518   8.149   2.864
    1SIL  O04C823732   3.471   8.337   3.045
    1SIL  Si26523733   3.079   8.739   2.566
    1SIL  Si26623734   2.834   8.713   2.928
    1SIL  Si26723735   3.179   8.513   2.747
    1SIL  O04C923736   2.980   8.689   2.992
    1SIL  O04CA23737   3.027   8.877   2.630
    1SIL  O04CB23738   2.840   8.824   2.811
    1SIL  O04CC23739   3.086   8.628   2.682
    1SIL  O04CD23740   3.273   8.574   2.864
    1SIL  O04CE23741   3.225   8.763   3.045
    1SIL  Si26823742   2.834   9.165   2.566
    1SIL  Si26923743   2.588   9.138   2.928
    1SIL  Si26A23744   2.934   8.939   2.747
    1SIL  O04CF23745   2.734   9.115   2.992
    1SIL  O04CG23746   2.781   9.303   2.630
    1SIL  O04CH23747   2.595   9.250   2.811
    1SIL  O04CI23748   2.840   9.053   2.682
    1SIL  O04CJ23749   3.027   9.000   2.864
    1SIL  O04CK23750   2.980   9.188   3.045
    1SIL  Si26B23751   2.588   9.590   2.566
    1SIL  Si26C23752   2.342   9.564   2.928
    1SIL  Si26D23753   2.688   9.364   2.747
    1SIL  O04CL23754   2.488   9.540   2.992
    1SIL  O04CM23755   2.535   9.729   2.630
    1SIL  O04CN23756   2.349   9.675   2.811
    1SIL  O04CO23757   2.595   9.479   2.682
    1SIL  O04CP23758   2.781   9.426   2.864
    1SIL  O04CQ23759   2.734   9.614   3.045
    1SIL  Si26E23760   8.486   0.226   2.566
    1SIL  Si26F23761   8.240   0.200   2.928
    1SIL  Si26G23762   8.586   0.000   2.747
    1SIL  O04CR23763   8.386   0.176   2.992
    1SIL  O04CS23764   8.433   0.364   2.630
    1SIL  O04CT23765   8.247   0.311   2.811
    1SIL  O04CU23766   8.492   0.115   2.682
    1SIL  O04CV23767   8.679   0.061   2.864
    1SIL  O04CW23768   8.632   0.250   3.045
    1SIL  Si26H23769   8.240   0.652   2.566
    1SIL  Si26I23770   7.994   0.625   2.928
    1SIL  Si26J23771   8.340   0.426   2.747
    1SIL  O04CX23772   8.140   0.602   2.992
    1SIL  O04CY23773   8.188   0.790   2.630
    1SIL  O04CZ23774   8.001   0.737   2.811
    1SIL  O04Ca23775   8.247   0.540   2.682
    1SIL  O04Cb23776   8.433   0.487   2.864
    1SIL  O04Cc23777   8.386   0.675   3.045
    1SIL  Si26K23778   7.994   1.077   2.566
    1SIL  Si26L23779   7.749   1.051   2.928
    1SIL  Si26M23780   8.094   0.851   2.747
    1SIL  O04Cd23781   7.895   1.027   2.992
    1SIL  O04Ce23782   7.942   1.216   2.630
    1SIL  O04Cf23783   7.755   1.162   2.811
    1SIL  O04Cg23784   8.001   0.966   2.682
    1SIL  O04Ch23785   8.188   0.913   2.864
    1SIL  O04Ci23786   8.140   1.101   3.045
    1SIL  Si26N23787   7.749   1.503   2.566
    1SIL  Si26O23788   7.503   1.477   2.928
    1SIL  Si26P23789   7.849   1.277   2.747
    1SIL  O04Cj23790   7.649   1.453   2.992
    1SIL  O04Ck23791   7.696   1.641   2.630
    1SIL  O04Cl23792   7.509   1.588   2.811
    1SIL  O04Cm23793   7.755   1.392   2.682
    1SIL  O04Cn23794   7.942   1.338   2.864
    1SIL  O04Co23795   7.895   1.527   3.045
    1SIL  Si26Q23796   7.503   1.929   2.566
    1SIL  Si26R23797   7.257   1.902   2.928
    1SIL  Si26S23798   7.603   1.703   2.747
    1SIL  O04Cp23799   7.403   1.879   2.992
    1SIL  O04Cq23800   7.450   2.067   2.630
    1SIL  O04Cr23801   7.264   2.014   2.811
    1SIL  O04Cs23802   7.509   1.817   2.682
    1SIL  O04Ct23803   7.696   1.764   2.864
    1SIL  O04Cu23804   7.649   1.952   3.045
    1SIL  Si26T23805   7.257   2.354   2.566
    1SIL  Si26U23806   7.011   2.328   2.928
    1SIL  Si26V23807   7.357   2.128   2.747
    1SIL  O04Cv23808   7.157   2.304   2.992
    1SIL  O04Cw23809   7.205   2.493   2.630
    1SIL  O04Cx23810   7.018   2.439   2.811
    1SIL  O04Cy23811   7.264   2.243   2.682
    1SIL  O04Cz23812   7.450   2.190   2.864
    1SIL  O04D023813   7.403   2.378   3.045
    1SIL  Si26W23814   7.011   2.780   2.566
    1SIL  Si26X23815   6.766   2.753   2.928
    1SIL  Si26Y23816   7.111   2.554   2.747
    1SIL  O04D123817   6.912   2.730   2.992
    1SIL  O04D223818   6.959   2.918   2.630
    1SIL  O04D323819   6.772   2.865   2.811
    1SIL  O04D423820   7.018   2.668   2.682
    1SIL  O04D523821   7.205   2.615   2.864
    1SIL  O04D623822   7.157   2.804   3.045
    1SIL  Si26Z23823   6.766   3.206   2.566
    1SIL  Si26a23824   6.520   3.179   2.928
    1SIL  Si26b23825   6.866   2.980   2.747
    1SIL  O04D723826   6.666   3.156   2.992
    1SIL  O04D823827   6.713   3.344   2.630
    1SIL  O04D923828   6.526   3.291   2.811
    1SIL  O04DA23829   6.772   3.094   2.682
    1SIL  O04DB23830   6.959   3.041   2.864
    1SIL  O04DC23831   6.912   3.229   3.045
    1SIL  Si26c23832   6.520   3.631   2.566
    1SIL  Si26d23833   6.274   3.605   2.928
    1SIL  Si26e23834   6.620   3.405   2.747
    1SIL  O04DD23835   6.420   3.581   2.992
    1SIL  O04DE23836   6.467   3.769   2.630
    1SIL  O04DF23837   6.281   3.716   2.811
    1SIL  O04DG23838   6.526   3.520   2.682
    1SIL  O04DH23839   6.713   3.467   2.864
    1SIL  O04DI23840   6.666   3.655   3.045
    1SIL  Si26f23841   6.274   4.057   2.566
    1SIL  Si26g23842   6.028   4.030   2.928
    1SIL  Si26h23843   6.374   3.831   2.747
    1SIL  O04DJ23844   6.174   4.007   2.992
    1SIL  O04DK23845   6.222   4.195   2.630
    1SIL  O04DL23846   6.035   4.142   2.811
    1SIL  O04DM23847   6.281   3.945   2.682
    1SIL  O04DN23848   6.467   3.892   2.864
    1SIL  O04DO23849   6.420   4.081   3.045
    1SIL  Si26i23850   6.028   4.483   2.566
    1SIL  Si26j23851   5.783   4.456   2.928
    1SIL  Si26k23852   6.128   4.256   2.747
    1SIL  O04DP23853   5.929   4.432   2.992
    1SIL  O04DQ23854   5.976   4.621   2.630
    1SIL  O04DR23855   5.789   4.568   2.811
    1SIL  O04DS23856   6.035   4.371   2.682
    1SIL  O04DT23857   6.222   4.318   2.864
    1SIL  O04DU23858   6.174   4.506   3.045
    1SIL  Si26l23859   5.783   4.908   2.566
    1SIL  Si26m23860   5.537   4.882   2.928
    1SIL  Si26n23861   5.883   4.682   2.747
    1SIL  O04DV23862   5.683   4.858   2.992
    1SIL  O04DW23863   5.730   5.046   2.630
    1SIL  O04DX23864   5.543   4.993   2.811
    1SIL  O04DY23865   5.789   4.797   2.682
    1SIL  O04DZ23866   5.976   4.744   2.864
    1SIL  O04Da23867   5.929   4.932   3.045
    1SIL  Si26o23868   5.537   5.334   2.566
    1SIL  Si26p23869   5.291   5.307   2.928
    1SIL  Si26q23870   5.637   5.108   2.747
    1SIL  O04Db23871   5.437   5.284   2.992
    1SIL  O04Dc23872   5.484   5.472   2.630
    1SIL  O04Dd23873   5.298   5.419   2.811
    1SIL  O04De23874   5.543   5.222   2.682
    1SIL  O04Df23875   5.730   5.169   2.864
    1SIL  O04Dg23876   5.683   5.357   3.045
    1SIL  Si26r23877   5.291   5.759   2.566
    1SIL  Si26s23878   5.045   5.733   2.928
    1SIL  Si26t23879   5.391   5.533   2.747
    1SIL  O04Dh23880   5.191   5.709   2.992
    1SIL  O04Di23881   5.239   5.898   2.630
    1SIL  O04Dj23882   5.052   5.844   2.811
    1SIL  O04Dk23883   5.298   5.648   2.682
    1SIL  O04Dl23884   5.484   5.595   2.864
    1SIL  O04Dm23885   5.437   5.783   3.045
    1SIL  Si26u23886   5.045   6.185   2.566
    1SIL  Si26v23887   4.800   6.159   2.928
    1SIL  Si26w23888   5.145   5.959   2.747
    1SIL  O04Dn23889   4.946   6.135   2.992
    1SIL  O04Do23890   4.993   6.323   2.630
    1SIL  O04Dp23891   4.806   6.270   2.811
    1SIL  O04Dq23892   5.052   6.074   2.682
    1SIL  O04Dr23893   5.239   6.020   2.864
    1SIL  O04Ds23894   5.191   6.209   3.045
    1SIL  Si26x23895   4.800   6.611   2.566
    1SIL  Si26y23896   4.554   6.584   2.928
    1SIL  Si26z23897   4.900   6.385   2.747
    1SIL  O04Dt23898   4.700   6.561   2.992
    1SIL  O04Du23899   4.747   6.749   2.630
    1SIL  O04Dv23900   4.560   6.696   2.811
    1SIL  O04Dw23901   4.806   6.499   2.682
    1SIL  O04Dx23902   4.993   6.446   2.864
    1SIL  O04Dy23903   4.946   6.634   3.045
    1SIL  Si27023904   4.554   7.036   2.566
    1SIL  Si27123905   4.308   7.010   2.928
    1SIL  Si27223906   4.654   6.810   2.747
    1SIL  O04Dz23907   4.454   6.986   2.992
    1SIL  O04E023908   4.501   7.175   2.630
    1SIL  O04E123909   4.315   7.121   2.811
    1SIL  O04E223910   4.560   6.925   2.682
    1SIL  O04E323911   4.747   6.872   2.864
    1SIL  O04E423912   4.700   7.060   3.045
    1SIL  Si27323913   4.308   7.462   2.566
    1SIL  Si27423914   4.062   7.436   2.928
    1SIL  Si27523915   4.408   7.236   2.747
    1SIL  O04E523916   4.208   7.412   2.992
    1SIL  O04E623917   4.256   7.600   2.630
    1SIL  O04E723918   4.069   7.547   2.811
    1SIL  O04E823919   4.315   7.351   2.682
    1SIL  O04E923920   4.501   7.297   2.864
    1SIL  O04EA23921   4.454   7.486   3.045
    1SIL  Si27623922   4.062   7.888   2.566
    1SIL  Si27723923   3.817   7.861   2.928
    1SIL  Si27823924   4.162   7.662   2.747
    1SIL  O04EB23925   3.963   7.838   2.992
    1SIL  O04EC23926   4.010   8.026   2.630
    1SIL  O04ED23927   3.823   7.973   2.811
    1SIL  O04EE23928   4.069   7.776   2.682
    1SIL  O04EF23929   4.256   7.723   2.864
    1SIL  O04EG23930   4.208   7.911   3.045
    1SIL  Si27923931   3.817   8.313   2.566
    1SIL  Si27A23932   3.571   8.287   2.928
    1SIL  Si27B23933   3.917   8.087   2.747
    1SIL  O04EH23934   3.717   8.263   2.992
    1SIL  O04EI23935   3.764   8.452   2.630
    1SIL  O04EJ23936   3.577   8.398   2.811
    1SIL  O04EK23937   3.823   8.202   2.682
    1SIL  O04EL23938   4.010   8.149   2.864
    1SIL  O04EM23939   3.963   8.337   3.045
    1SIL  Si27C23940   3.571   8.739   2.566
    1SIL  Si27D23941   3.325   8.713   2.928
    1SIL  Si27E23942   3.671   8.513   2.747
    1SIL  O04EN23943   3.471   8.689   2.992
    1SIL  O04EO23944   3.518   8.877   2.630
    1SIL  O04EP23945   3.332   8.824   2.811
    1SIL  O04EQ23946   3.577   8.628   2.682
    1SIL  O04ER23947   3.764   8.574   2.864
    1SIL  O04ES23948   3.717   8.763   3.045
    1SIL  Si27F23949   3.325   9.165   2.566
    1SIL  Si27G23950   3.079   9.138   2.928
    1SIL  Si27H23951   3.425   8.939   2.747
    1SIL  O04ET23952   3.225   9.115   2.992
    1SIL  O04EU23953   3.273   9.303   2.630
    1SIL  O04EV23954   3.086   9.250   2.811
    1SIL  O04EW23955   3.332   9.053   2.682
    1SIL  O04EX23956   3.518   9.000   2.864
    1SIL  O04EY23957   3.471   9.188   3.045
    1SIL  Si27I23958   3.079   9.590   2.566
    1SIL  Si27J23959   2.834   9.564   2.928
    1SIL  Si27K23960   3.179   9.364   2.747
    1SIL  O04EZ23961   2.980   9.540   2.992
    1SIL  O04Ea23962   3.027   9.729   2.630
    1SIL  O04Eb23963   2.840   9.675   2.811
    1SIL  O04Ec23964   3.086   9.479   2.682
    1SIL  O04Ed23965   3.273   9.426   2.864
    1SIL  O04Ee23966   3.225   9.614   3.045
    1SIL  Si27L23967   8.977   0.226   2.566
    1SIL  Si27M23968   8.732   0.200   2.928
    1SIL  Si27N23969   9.077   0.000   2.747
    1SIL  O04Ef23970   8.878   0.176   2.992
    1SIL  O04Eg23971   8.925   0.364   2.630
    1SIL  O04Eh23972   8.738   0.311   2.811
    1SIL  O04Ei23973   8.984   0.115   2.682
    1SIL  O04Ej23974   9.171   0.061   2.864
    1SIL  O04Ek23975   9.123   0.250   3.045
    1SIL  Si27O23976   8.732   0.652   2.566
    1SIL  Si27P23977   8.486   0.625   2.928
    1SIL  Si27Q23978   8.832   0.426   2.747
    1SIL  O04El23979   8.632   0.602   2.992
    1SIL  O04Em23980   8.679   0.790   2.630
    1SIL  O04En23981   8.492   0.737   2.811
    1SIL  O04Eo23982   8.738   0.540   2.682
    1SIL  O04Ep23983   8.925   0.487   2.864
    1SIL  O04Eq23984   8.878   0.675   3.045
    1SIL  Si27R23985   8.486   1.077   2.566
    1SIL  Si27S23986   8.240   1.051   2.928
    1SIL  Si27T23987   8.586   0.851   2.747
    1SIL  O04Er23988   8.386   1.027   2.992
    1SIL  O04Es23989   8.433   1.216   2.630
    1SIL  O04Et23990   8.247   1.162   2.811
    1SIL  O04Eu23991   8.492   0.966   2.682
    1SIL  O04Ev23992   8.679   0.913   2.864
    1SIL  O04Ew23993   8.632   1.101   3.045
    1SIL  Si27U23994   8.240   1.503   2.566
    1SIL  Si27V23995   7.994   1.477   2.928
    1SIL  Si27W23996   8.340   1.277   2.747
    1SIL  O04Ex23997   8.140   1.453   2.992
    1SIL  O04Ey23998   8.188   1.641   2.630
    1SIL  O04Ez23999   8.001   1.588   2.811
    1SIL  O04F024000   8.247   1.392   2.682
    1SIL  O04F124001   8.433   1.338   2.864
    1SIL  O04F224002   8.386   1.527   3.045
    1SIL  Si27X24003   7.994   1.929   2.566
    1SIL  Si27Y24004   7.749   1.902   2.928
    1SIL  Si27Z24005   8.094   1.703   2.747
    1SIL  O04F324006   7.895   1.879   2.992
    1SIL  O04F424007   7.942   2.067   2.630
    1SIL  O04F524008   7.755   2.014   2.811
    1SIL  O04F624009   8.001   1.817   2.682
    1SIL  O04F724010   8.188   1.764   2.864
    1SIL  O04F824011   8.140   1.952   3.045
    1SIL  Si27a24012   7.749   2.354   2.566
    1SIL  Si27b24013   7.503   2.328   2.928
    1SIL  Si27c24014   7.849   2.128   2.747
    1SIL  O04F924015   7.649   2.304   2.992
    1SIL  O04FA24016   7.696   2.493   2.630
    1SIL  O04FB24017   7.509   2.439   2.811
    1SIL  O04FC24018   7.755   2.243   2.682
    1SIL  O04FD24019   7.942   2.190   2.864
    1SIL  O04FE24020   7.895   2.378   3.045
    1SIL  Si27d24021   7.503   2.780   2.566
    1SIL  Si27e24022   7.257   2.753   2.928
    1SIL  Si27f24023   7.603   2.554   2.747
    1SIL  O04FF24024   7.403   2.730   2.992
    1SIL  O04FG24025   7.450   2.918   2.630
    1SIL  O04FH24026   7.264   2.865   2.811
    1SIL  O04FI24027   7.509   2.668   2.682
    1SIL  O04FJ24028   7.696   2.615   2.864
    1SIL  O04FK24029   7.649   2.804   3.045
    1SIL  Si27g24030   7.257   3.206   2.566
    1SIL  Si27h24031   7.011   3.179   2.928
    1SIL  Si27i24032   7.357   2.980   2.747
    1SIL  O04FL24033   7.157   3.156   2.992
    1SIL  O04FM24034   7.205   3.344   2.630
    1SIL  O04FN24035   7.018   3.291   2.811
    1SIL  O04FO24036   7.264   3.094   2.682
    1SIL  O04FP24037   7.450   3.041   2.864
    1SIL  O04FQ24038   7.403   3.229   3.045
    1SIL  Si27j24039   7.011   3.631   2.566
    1SIL  Si27k24040   6.766   3.605   2.928
    1SIL  Si27l24041   7.111   3.405   2.747
    1SIL  O04FR24042   6.912   3.581   2.992
    1SIL  O04FS24043   6.959   3.769   2.630
    1SIL  O04FT24044   6.772   3.716   2.811
    1SIL  O04FU24045   7.018   3.520   2.682
    1SIL  O04FV24046   7.205   3.467   2.864
    1SIL  O04FW24047   7.157   3.655   3.045
    1SIL  Si27m24048   6.766   4.057   2.566
    1SIL  Si27n24049   6.520   4.030   2.928
    1SIL  Si27o24050   6.866   3.831   2.747
    1SIL  O04FX24051   6.666   4.007   2.992
    1SIL  O04FY24052   6.713   4.195   2.630
    1SIL  O04FZ24053   6.526   4.142   2.811
    1SIL  O04Fa24054   6.772   3.945   2.682
    1SIL  O04Fb24055   6.959   3.892   2.864
    1SIL  O04Fc24056   6.912   4.081   3.045
    1SIL  Si27p24057   6.520   4.483   2.566
    1SIL  Si27q24058   6.274   4.456   2.928
    1SIL  Si27r24059   6.620   4.256   2.747
    1SIL  O04Fd24060   6.420   4.432   2.992
    1SIL  O04Fe24061   6.467   4.621   2.630
    1SIL  O04Ff24062   6.281   4.568   2.811
    1SIL  O04Fg24063   6.526   4.371   2.682
    1SIL  O04Fh24064   6.713   4.318   2.864
    1SIL  O04Fi24065   6.666   4.506   3.045
    1SIL  Si27s24066   6.274   4.908   2.566
    1SIL  Si27t24067   6.028   4.882   2.928
    1SIL  Si27u24068   6.374   4.682   2.747
    1SIL  O04Fj24069   6.174   4.858   2.992
    1SIL  O04Fk24070   6.222   5.046   2.630
    1SIL  O04Fl24071   6.035   4.993   2.811
    1SIL  O04Fm24072   6.281   4.797   2.682
    1SIL  O04Fn24073   6.467   4.744   2.864
    1SIL  O04Fo24074   6.420   4.932   3.045
    1SIL  Si27v24075   6.028   5.334   2.566
    1SIL  Si27w24076   5.783   5.307   2.928
    1SIL  Si27x24077   6.128   5.108   2.747
    1SIL  O04Fp24078   5.929   5.284   2.992
    1SIL  O04Fq24079   5.976   5.472   2.630
    1SIL  O04Fr24080   5.789   5.419   2.811
    1SIL  O04Fs24081   6.035   5.222   2.682
    1SIL  O04Ft24082   6.222   5.169   2.864
    1SIL  O04Fu24083   6.174   5.357   3.045
    1SIL  Si27y24084   5.783   5.759   2.566
    1SIL  Si27z24085   5.537   5.733   2.928
    1SIL  Si28024086   5.883   5.533   2.747
    1SIL  O04Fv24087   5.683   5.709   2.992
    1SIL  O04Fw24088   5.730   5.898   2.630
    1SIL  O04Fx24089   5.543   5.844   2.811
    1SIL  O04Fy24090   5.789   5.648   2.682
    1SIL  O04Fz24091   5.976   5.595   2.864
    1SIL  O04G024092   5.929   5.783   3.045
    1SIL  Si28124093   5.537   6.185   2.566
    1SIL  Si28224094   5.291   6.159   2.928
    1SIL  Si28324095   5.637   5.959   2.747
    1SIL  O04G124096   5.437   6.135   2.992
    1SIL  O04G224097   5.484   6.323   2.630
    1SIL  O04G324098   5.298   6.270   2.811
    1SIL  O04G424099   5.543   6.074   2.682
    1SIL  O04G524100   5.730   6.020   2.864
    1SIL  O04G624101   5.683   6.209   3.045
    1SIL  Si28424102   5.291   6.611   2.566
    1SIL  Si28524103   5.045   6.584   2.928
    1SIL  Si28624104   5.391   6.385   2.747
    1SIL  O04G724105   5.191   6.561   2.992
    1SIL  O04G824106   5.239   6.749   2.630
    1SIL  O04G924107   5.052   6.696   2.811
    1SIL  O04GA24108   5.298   6.499   2.682
    1SIL  O04GB24109   5.484   6.446   2.864
    1SIL  O04GC24110   5.437   6.634   3.045
    1SIL  Si28724111   5.045   7.036   2.566
    1SIL  Si28824112   4.800   7.010   2.928
    1SIL  Si28924113   5.145   6.810   2.747
    1SIL  O04GD24114   4.946   6.986   2.992
    1SIL  O04GE24115   4.993   7.175   2.630
    1SIL  O04GF24116   4.806   7.121   2.811
    1SIL  O04GG24117   5.052   6.925   2.682
    1SIL  O04GH24118   5.239   6.872   2.864
    1SIL  O04GI24119   5.191   7.060   3.045
    1SIL  Si28A24120   4.800   7.462   2.566
    1SIL  Si28B24121   4.554   7.436   2.928
    1SIL  Si28C24122   4.900   7.236   2.747
    1SIL  O04GJ24123   4.700   7.412   2.992
    1SIL  O04GK24124   4.747   7.600   2.630
    1SIL  O04GL24125   4.560   7.547   2.811
    1SIL  O04GM24126   4.806   7.351   2.682
    1SIL  O04GN24127   4.993   7.297   2.864
    1SIL  O04GO24128   4.946   7.486   3.045
    1SIL  Si28D24129   4.554   7.888   2.566
    1SIL  Si28E24130   4.308   7.861   2.928
    1SIL  Si28F24131   4.654   7.662   2.747
    1SIL  O04GP24132   4.454   7.838   2.992
    1SIL  O04GQ24133   4.501   8.026   2.630
    1SIL  O04GR24134   4.315   7.973   2.811
    1SIL  O04GS24135   4.560   7.776   2.682
    1SIL  O04GT24136   4.747   7.723   2.864
    1SIL  O04GU24137   4.700   7.911   3.045
    1SIL  Si28G24138   4.308   8.313   2.566
    1SIL  Si28H24139   4.062   8.287   2.928
    1SIL  Si28I24140   4.408   8.087   2.747
    1SIL  O04GV24141   4.208   8.263   2.992
    1SIL  O04GW24142   4.256   8.452   2.630
    1SIL  O04GX24143   4.069   8.398   2.811
    1SIL  O04GY24144   4.315   8.202   2.682
    1SIL  O04GZ24145   4.501   8.149   2.864
    1SIL  O04Ga24146   4.454   8.337   3.045
    1SIL  Si28J24147   4.062   8.739   2.566
    1SIL  Si28K24148   3.817   8.713   2.928
    1SIL  Si28L24149   4.162   8.513   2.747
    1SIL  O04Gb24150   3.963   8.689   2.992
    1SIL  O04Gc24151   4.010   8.877   2.630
    1SIL  O04Gd24152   3.823   8.824   2.811
    1SIL  O04Ge24153   4.069   8.628   2.682
    1SIL  O04Gf24154   4.256   8.574   2.864
    1SIL  O04Gg24155   4.208   8.763   3.045
    1SIL  Si28M24156   3.817   9.165   2.566
    1SIL  Si28N24157   3.571   9.138   2.928
    1SIL  Si28O24158   3.917   8.939   2.747
    1SIL  O04Gh24159   3.717   9.115   2.992
    1SIL  O04Gi24160   3.764   9.303   2.630
    1SIL  O04Gj24161   3.577   9.250   2.811
    1SIL  O04Gk24162   3.823   9.053   2.682
    1SIL  O04Gl24163   4.010   9.000   2.864
    1SIL  O04Gm24164   3.963   9.188   3.045
    1SIL  Si28P24165   3.571   9.590   2.566
    1SIL  Si28Q24166   3.325   9.564   2.928
    1SIL  Si28R24167   3.671   9.364   2.747
    1SIL  O04Gn24168   3.471   9.540   2.992
    1SIL  O04Go24169   3.518   9.729   2.630
    1SIL  O04Gp24170   3.332   9.675   2.811
    1SIL  O04Gq24171   3.577   9.479   2.682
    1SIL  O04Gr24172   3.764   9.426   2.864
    1SIL  O04Gs24173   3.717   9.614   3.045
    1SIL  Si28S24174   9.469   0.226   2.566
    1SIL  Si28T24175   9.223   0.200   2.928
    1SIL  Si28U24176   9.569   0.000   2.747
    1SIL  O04Gt24177   9.369   0.176   2.992
    1SIL  O04Gu24178   9.416   0.364   2.630
    1SIL  O04Gv24179   9.230   0.311   2.811
    1SIL  O04Gw24180   9.475   0.115   2.682
    1SIL  O04Gx24181   9.662   0.061   2.864
    1SIL  O04Gy24182   9.615   0.250   3.045
    1SIL  Si28V24183   9.223   0.652   2.566
    1SIL  Si28W24184   8.977   0.625   2.928
    1SIL  Si28X24185   9.323   0.426   2.747
    1SIL  O04Gz24186   9.123   0.602   2.992
    1SIL  O04H024187   9.171   0.790   2.630
    1SIL  O04H124188   8.984   0.737   2.811
    1SIL  O04H224189   9.230   0.540   2.682
    1SIL  O04H324190   9.416   0.487   2.864
    1SIL  O04H424191   9.369   0.675   3.045
    1SIL  Si28Y24192   8.977   1.077   2.566
    1SIL  Si28Z24193   8.732   1.051   2.928
    1SIL  Si28a24194   9.077   0.851   2.747
    1SIL  O04H524195   8.878   1.027   2.992
    1SIL  O04H624196   8.925   1.216   2.630
    1SIL  O04H724197   8.738   1.162   2.811
    1SIL  O04H824198   8.984   0.966   2.682
    1SIL  O04H924199   9.171   0.913   2.864
    1SIL  O04HA24200   9.123   1.101   3.045
    1SIL  Si28b24201   8.732   1.503   2.566
    1SIL  Si28c24202   8.486   1.477   2.928
    1SIL  Si28d24203   8.832   1.277   2.747
    1SIL  O04HB24204   8.632   1.453   2.992
    1SIL  O04HC24205   8.679   1.641   2.630
    1SIL  O04HD24206   8.492   1.588   2.811
    1SIL  O04HE24207   8.738   1.392   2.682
    1SIL  O04HF24208   8.925   1.338   2.864
    1SIL  O04HG24209   8.878   1.527   3.045
    1SIL  Si28e24210   8.486   1.929   2.566
    1SIL  Si28f24211   8.240   1.902   2.928
    1SIL  Si28g24212   8.586   1.703   2.747
    1SIL  O04HH24213   8.386   1.879   2.992
    1SIL  O04HI24214   8.433   2.067   2.630
    1SIL  O04HJ24215   8.247   2.014   2.811
    1SIL  O04HK24216   8.492   1.817   2.682
    1SIL  O04HL24217   8.679   1.764   2.864
    1SIL  O04HM24218   8.632   1.952   3.045
    1SIL  Si28h24219   8.240   2.354   2.566
    1SIL  Si28i24220   7.994   2.328   2.928
    1SIL  Si28j24221   8.340   2.128   2.747
    1SIL  O04HN24222   8.140   2.304   2.992
    1SIL  O04HO24223   8.188   2.493   2.630
    1SIL  O04HP24224   8.001   2.439   2.811
    1SIL  O04HQ24225   8.247   2.243   2.682
    1SIL  O04HR24226   8.433   2.190   2.864
    1SIL  O04HS24227   8.386   2.378   3.045
    1SIL  Si28k24228   7.994   2.780   2.566
    1SIL  Si28l24229   7.749   2.753   2.928
    1SIL  Si28m24230   8.094   2.554   2.747
    1SIL  O04HT24231   7.895   2.730   2.992
    1SIL  O04HU24232   7.942   2.918   2.630
    1SIL  O04HV24233   7.755   2.865   2.811
    1SIL  O04HW24234   8.001   2.668   2.682
    1SIL  O04HX24235   8.188   2.615   2.864
    1SIL  O04HY24236   8.140   2.804   3.045
    1SIL  Si28n24237   7.749   3.206   2.566
    1SIL  Si28o24238   7.503   3.179   2.928
    1SIL  Si28p24239   7.849   2.980   2.747
    1SIL  O04HZ24240   7.649   3.156   2.992
    1SIL  O04Ha24241   7.696   3.344   2.630
    1SIL  O04Hb24242   7.509   3.291   2.811
    1SIL  O04Hc24243   7.755   3.094   2.682
    1SIL  O04Hd24244   7.942   3.041   2.864
    1SIL  O04He24245   7.895   3.229   3.045
    1SIL  Si28q24246   7.503   3.631   2.566
    1SIL  Si28r24247   7.257   3.605   2.928
    1SIL  Si28s24248   7.603   3.405   2.747
    1SIL  O04Hf24249   7.403   3.581   2.992
    1SIL  O04Hg24250   7.450   3.769   2.630
    1SIL  O04Hh24251   7.264   3.716   2.811
    1SIL  O04Hi24252   7.509   3.520   2.682
    1SIL  O04Hj24253   7.696   3.467   2.864
    1SIL  O04Hk24254   7.649   3.655   3.045
    1SIL  Si28t24255   7.257   4.057   2.566
    1SIL  Si28u24256   7.011   4.030   2.928
    1SIL  Si28v24257   7.357   3.831   2.747
    1SIL  O04Hl24258   7.157   4.007   2.992
    1SIL  O04Hm24259   7.205   4.195   2.630
    1SIL  O04Hn24260   7.018   4.142   2.811
    1SIL  O04Ho24261   7.264   3.945   2.682
    1SIL  O04Hp24262   7.450   3.892   2.864
    1SIL  O04Hq24263   7.403   4.081   3.045
    1SIL  Si28w24264   7.011   4.483   2.566
    1SIL  Si28x24265   6.766   4.456   2.928
    1SIL  Si28y24266   7.111   4.256   2.747
    1SIL  O04Hr24267   6.912   4.432   2.992
    1SIL  O04Hs24268   6.959   4.621   2.630
    1SIL  O04Ht24269   6.772   4.568   2.811
    1SIL  O04Hu24270   7.018   4.371   2.682
    1SIL  O04Hv24271   7.205   4.318   2.864
    1SIL  O04Hw24272   7.157   4.506   3.045
    1SIL  Si28z24273   6.766   4.908   2.566
    1SIL  Si29024274   6.520   4.882   2.928
    1SIL  Si29124275   6.866   4.682   2.747
    1SIL  O04Hx24276   6.666   4.858   2.992
    1SIL  O04Hy24277   6.713   5.046   2.630
    1SIL  O04Hz24278   6.526   4.993   2.811
    1SIL  O04I024279   6.772   4.797   2.682
    1SIL  O04I124280   6.959   4.744   2.864
    1SIL  O04I224281   6.912   4.932   3.045
    1SIL  Si29224282   6.520   5.334   2.566
    1SIL  Si29324283   6.274   5.307   2.928
    1SIL  Si29424284   6.620   5.108   2.747
    1SIL  O04I324285   6.420   5.284   2.992
    1SIL  O04I424286   6.467   5.472   2.630
    1SIL  O04I524287   6.281   5.419   2.811
    1SIL  O04I624288   6.526   5.222   2.682
    1SIL  O04I724289   6.713   5.169   2.864
    1SIL  O04I824290   6.666   5.357   3.045
    1SIL  Si29524291   6.274   5.759   2.566
    1SIL  Si29624292   6.028   5.733   2.928
    1SIL  Si29724293   6.374   5.533   2.747
    1SIL  O04I924294   6.174   5.709   2.992
    1SIL  O04IA24295   6.222   5.898   2.630
    1SIL  O04IB24296   6.035   5.844   2.811
    1SIL  O04IC24297   6.281   5.648   2.682
    1SIL  O04ID24298   6.467   5.595   2.864
    1SIL  O04IE24299   6.420   5.783   3.045
    1SIL  Si29824300   6.028   6.185   2.566
    1SIL  Si29924301   5.783   6.159   2.928
    1SIL  Si29A24302   6.128   5.959   2.747
    1SIL  O04IF24303   5.929   6.135   2.992
    1SIL  O04IG24304   5.976   6.323   2.630
    1SIL  O04IH24305   5.789   6.270   2.811
    1SIL  O04II24306   6.035   6.074   2.682
    1SIL  O04IJ24307   6.222   6.020   2.864
    1SIL  O04IK24308   6.174   6.209   3.045
    1SIL  Si29B24309   5.783   6.611   2.566
    1SIL  Si29C24310   5.537   6.584   2.928
    1SIL  Si29D24311   5.883   6.385   2.747
    1SIL  O04IL24312   5.683   6.561   2.992
    1SIL  O04IM24313   5.730   6.749   2.630
    1SIL  O04IN24314   5.543   6.696   2.811
    1SIL  O04IO24315   5.789   6.499   2.682
    1SIL  O04IP24316   5.976   6.446   2.864
    1SIL  O04IQ24317   5.929   6.634   3.045
    1SIL  Si29E24318   5.537   7.036   2.566
    1SIL  Si29F24319   5.291   7.010   2.928
    1SIL  Si29G24320   5.637   6.810   2.747
    1SIL  O04IR24321   5.437   6.986   2.992
    1SIL  O04IS24322   5.484   7.175   2.630
    1SIL  O04IT24323   5.298   7.121   2.811
    1SIL  O04IU24324   5.543   6.925   2.682
    1SIL  O04IV24325   5.730   6.872   2.864
    1SIL  O04IW24326   5.683   7.060   3.045
    1SIL  Si29H24327   5.291   7.462   2.566
    1SIL  Si29I24328   5.045   7.436   2.928
    1SIL  Si29J24329   5.391   7.236   2.747
    1SIL  O04IX24330   5.191   7.412   2.992
    1SIL  O04IY24331   5.239   7.600   2.630
    1SIL  O04IZ24332   5.052   7.547   2.811
    1SIL  O04Ia24333   5.298   7.351   2.682
    1SIL  O04Ib24334   5.484   7.297   2.864
    1SIL  O04Ic24335   5.437   7.486   3.045
    1SIL  Si29K24336   5.045   7.888   2.566
    1SIL  Si29L24337   4.800   7.861   2.928
    1SIL  Si29M24338   5.145   7.662   2.747
    1SIL  O04Id24339   4.946   7.838   2.992
    1SIL  O04Ie24340   4.993   8.026   2.630
    1SIL  O04If24341   4.806   7.973   2.811
    1SIL  O04Ig24342   5.052   7.776   2.682
    1SIL  O04Ih24343   5.239   7.723   2.864
    1SIL  O04Ii24344   5.191   7.911   3.045
    1SIL  Si29N24345   4.800   8.313   2.566
    1SIL  Si29O24346   4.554   8.287   2.928
    1SIL  Si29P24347   4.900   8.087   2.747
    1SIL  O04Ij24348   4.700   8.263   2.992
    1SIL  O04Ik24349   4.747   8.452   2.630
    1SIL  O04Il24350   4.560   8.398   2.811
    1SIL  O04Im24351   4.806   8.202   2.682
    1SIL  O04In24352   4.993   8.149   2.864
    1SIL  O04Io24353   4.946   8.337   3.045
    1SIL  Si29Q24354   4.554   8.739   2.566
    1SIL  Si29R24355   4.308   8.713   2.928
    1SIL  Si29S24356   4.654   8.513   2.747
    1SIL  O04Ip24357   4.454   8.689   2.992
    1SIL  O04Iq24358   4.501   8.877   2.630
    1SIL  O04Ir24359   4.315   8.824   2.811
    1SIL  O04Is24360   4.560   8.628   2.682
    1SIL  O04It24361   4.747   8.574   2.864
    1SIL  O04Iu24362   4.700   8.763   3.045
    1SIL  Si29T24363   4.308   9.165   2.566
    1SIL  Si29U24364   4.062   9.138   2.928
    1SIL  Si29V24365   4.408   8.939   2.747
    1SIL  O04Iv24366   4.208   9.115   2.992
    1SIL  O04Iw24367   4.256   9.303   2.630
    1SIL  O04Ix24368   4.069   9.250   2.811
    1SIL  O04Iy24369   4.315   9.053   2.682
    1SIL  O04Iz24370   4.501   9.000   2.864
    1SIL  O04J024371   4.454   9.188   3.045
    1SIL  Si29W24372   4.062   9.590   2.566
    1SIL  Si29X24373   3.817   9.564   2.928
    1SIL  Si29Y24374   4.162   9.364   2.747
    1SIL  O04J124375   3.963   9.540   2.992
    1SIL  O04J224376   4.010   9.729   2.630
    1SIL  O04J324377   3.823   9.675   2.811
    1SIL  O04J424378   4.069   9.479   2.682
    1SIL  O04J524379   4.256   9.426   2.864
    1SIL  O04J624380   4.208   9.614   3.045
    1SIL  Si29Z24381   0.131   0.226   3.109
    1SIL  Si29a24382   9.715   0.200   3.471
    1SIL  Si29b24383   0.230   0.000   3.290
    1SIL  O04J724384   0.031   0.176   3.535
    1SIL  O04J824385   0.078   0.364   3.173
    1SIL  O04J924386   9.721   0.311   3.354
    1SIL  O04JA24387   0.137   0.115   3.226
    1SIL  O04JB24388   0.324   0.061   3.407
    1SIL  O04JC24389   0.276   0.250   3.588
    1SIL  Si29c24390   9.715   0.652   3.109
    1SIL  Si29d24391   9.469   0.625   3.471
    1SIL  Si29e24392   9.815   0.426   3.290
    1SIL  O04JD24393   9.615   0.602   3.535
    1SIL  O04JE24394   9.662   0.790   3.173
    1SIL  O04JF24395   9.475   0.737   3.354
    1SIL  O04JG24396   9.721   0.540   3.226
    1SIL  O04JH24397   0.078   0.487   3.407
    1SIL  O04JI24398   0.031   0.675   3.588
    1SIL  Si29f24399   9.469   1.077   3.109
    1SIL  Si29g24400   9.223   1.051   3.471
    1SIL  Si29h24401   9.569   0.851   3.290
    1SIL  O04JJ24402   9.369   1.027   3.535
    1SIL  O04JK24403   9.416   1.216   3.173
    1SIL  O04JL24404   9.230   1.162   3.354
    1SIL  O04JM24405   9.475   0.966   3.226
    1SIL  O04JN24406   9.662   0.913   3.407
    1SIL  O04JO24407   9.615   1.101   3.588
    1SIL  Si29i24408   9.223   1.503   3.109
    1SIL  Si29j24409   8.977   1.477   3.471
    1SIL  Si29k24410   9.323   1.277   3.290
    1SIL  O04JP24411   9.123   1.453   3.535
    1SIL  O04JQ24412   9.171   1.641   3.173
    1SIL  O04JR24413   8.984   1.588   3.354
    1SIL  O04JS24414   9.230   1.392   3.226
    1SIL  O04JT24415   9.416   1.338   3.407
    1SIL  O04JU24416   9.369   1.527   3.588
    1SIL  Si29l24417   8.977   1.929   3.109
    1SIL  Si29m24418   8.732   1.902   3.471
    1SIL  Si29n24419   9.077   1.703   3.290
    1SIL  O04JV24420   8.878   1.879   3.535
    1SIL  O04JW24421   8.925   2.067   3.173
    1SIL  O04JX24422   8.738   2.014   3.354
    1SIL  O04JY24423   8.984   1.817   3.226
    1SIL  O04JZ24424   9.171   1.764   3.407
    1SIL  O04Ja24425   9.123   1.952   3.588
    1SIL  Si29o24426   8.732   2.354   3.109
    1SIL  Si29p24427   8.486   2.328   3.471
    1SIL  Si29q24428   8.832   2.128   3.290
    1SIL  O04Jb24429   8.632   2.304   3.535
    1SIL  O04Jc24430   8.679   2.493   3.173
    1SIL  O04Jd24431   8.492   2.439   3.354
    1SIL  O04Je24432   8.738   2.243   3.226
    1SIL  O04Jf24433   8.925   2.190   3.407
    1SIL  O04Jg24434   8.878   2.378   3.588
    1SIL  Si29r24435   8.486   2.780   3.109
    1SIL  Si29s24436   8.240   2.753   3.471
    1SIL  Si29t24437   8.586   2.554   3.290
    1SIL  O04Jh24438   8.386   2.730   3.535
    1SIL  O04Ji24439   8.433   2.918   3.173
    1SIL  O04Jj24440   8.247   2.865   3.354
    1SIL  O04Jk24441   8.492   2.668   3.226
    1SIL  O04Jl24442   8.679   2.615   3.407
    1SIL  O04Jm24443   8.632   2.804   3.588
    1SIL  Si29u24444   8.240   3.206   3.109
    1SIL  Si29v24445   7.994   3.179   3.471
    1SIL  Si29w24446   8.340   2.980   3.290
    1SIL  O04Jn24447   8.140   3.156   3.535
    1SIL  O04Jo24448   8.188   3.344   3.173
    1SIL  O04Jp24449   8.001   3.291   3.354
    1SIL  O04Jq24450   8.247   3.094   3.226
    1SIL  O04Jr24451   8.433   3.041   3.407
    1SIL  O04Js24452   8.386   3.229   3.588
    1SIL  Si29x24453   7.994   3.631   3.109
    1SIL  Si29y24454   7.749   3.605   3.471
    1SIL  Si29z24455   8.094   3.405   3.290
    1SIL  O04Jt24456   7.895   3.581   3.535
    1SIL  O04Ju24457   7.942   3.769   3.173
    1SIL  O04Jv24458   7.755   3.716   3.354
    1SIL  O04Jw24459   8.001   3.520   3.226
    1SIL  O04Jx24460   8.188   3.467   3.407
    1SIL  O04Jy24461   8.140   3.655   3.588
    1SIL  Si2A024462   7.749   4.057   3.109
    1SIL  Si2A124463   7.503   4.030   3.471
    1SIL  Si2A224464   7.849   3.831   3.290
    1SIL  O04Jz24465   7.649   4.007   3.535
    1SIL  O04K024466   7.696   4.195   3.173
    1SIL  O04K124467   7.509   4.142   3.354
    1SIL  O04K224468   7.755   3.945   3.226
    1SIL  O04K324469   7.942   3.892   3.407
    1SIL  O04K424470   7.895   4.081   3.588
    1SIL  Si2A324471   7.503   4.483   3.109
    1SIL  Si2A424472   7.257   4.456   3.471
    1SIL  Si2A524473   7.603   4.256   3.290
    1SIL  O04K524474   7.403   4.432   3.535
    1SIL  O04K624475   7.450   4.621   3.173
    1SIL  O04K724476   7.264   4.568   3.354
    1SIL  O04K824477   7.509   4.371   3.226
    1SIL  O04K924478   7.696   4.318   3.407
    1SIL  O04KA24479   7.649   4.506   3.588
    1SIL  Si2A624480   7.257   4.908   3.109
    1SIL  Si2A724481   7.011   4.882   3.471
    1SIL  Si2A824482   7.357   4.682   3.290
    1SIL  O04KB24483   7.157   4.858   3.535
    1SIL  O04KC24484   7.205   5.046   3.173
    1SIL  O04KD24485   7.018   4.993   3.354
    1SIL  O04KE24486   7.264   4.797   3.226
    1SIL  O04KF24487   7.450   4.744   3.407
    1SIL  O04KG24488   7.403   4.932   3.588
    1SIL  Si2A924489   7.011   5.334   3.109
    1SIL  Si2AA24490   6.766   5.307   3.471
    1SIL  Si2AB24491   7.111   5.108   3.290
    1SIL  O04KH24492   6.912   5.284   3.535
    1SIL  O04KI24493   6.959   5.472   3.173
    1SIL  O04KJ24494   6.772   5.419   3.354
    1SIL  O04KK24495   7.018   5.222   3.226
    1SIL  O04KL24496   7.205   5.169   3.407
    1SIL  O04KM24497   7.157   5.357   3.588
    1SIL  Si2AC24498   6.766   5.759   3.109
    1SIL  Si2AD24499   6.520   5.733   3.471
    1SIL  Si2AE24500   6.866   5.533   3.290
    1SIL  O04KN24501   6.666   5.709   3.535
    1SIL  O04KO24502   6.713   5.898   3.173
    1SIL  O04KP24503   6.526   5.844   3.354
    1SIL  O04KQ24504   6.772   5.648   3.226
    1SIL  O04KR24505   6.959   5.595   3.407
    1SIL  O04KS24506   6.912   5.783   3.588
    1SIL  Si2AF24507   6.520   6.185   3.109
    1SIL  Si2AG24508   6.274   6.159   3.471
    1SIL  Si2AH24509   6.620   5.959   3.290
    1SIL  O04KT24510   6.420   6.135   3.535
    1SIL  O04KU24511   6.467   6.323   3.173
    1SIL  O04KV24512   6.281   6.270   3.354
    1SIL  O04KW24513   6.526   6.074   3.226
    1SIL  O04KX24514   6.713   6.020   3.407
    1SIL  O04KY24515   6.666   6.209   3.588
    1SIL  Si2AI24516   6.274   6.611   3.109
    1SIL  Si2AJ24517   6.028   6.584   3.471
    1SIL  Si2AK24518   6.374   6.385   3.290
    1SIL  O04KZ24519   6.174   6.561   3.535
    1SIL  O04Ka24520   6.222   6.749   3.173
    1SIL  O04Kb24521   6.035   6.696   3.354
    1SIL  O04Kc24522   6.281   6.499   3.226
    1SIL  O04Kd24523   6.467   6.446   3.407
    1SIL  O04Ke24524   6.420   6.634   3.588
    1SIL  Si2AL24525   6.028   7.036   3.109
    1SIL  Si2AM24526   5.783   7.010   3.471
    1SIL  Si2AN24527   6.128   6.810   3.290
    1SIL  O04Kf24528   5.929   6.986   3.535
    1SIL  O04Kg24529   5.976   7.175   3.173
    1SIL  O04Kh24530   5.789   7.121   3.354
    1SIL  O04Ki24531   6.035   6.925   3.226
    1SIL  O04Kj24532   6.222   6.872   3.407
    1SIL  O04Kk24533   6.174   7.060   3.588
    1SIL  Si2AO24534   5.783   7.462   3.109
    1SIL  Si2AP24535   5.537   7.436   3.471
    1SIL  Si2AQ24536   5.883   7.236   3.290
    1SIL  O04Kl24537   5.683   7.412   3.535
    1SIL  O04Km24538   5.730   7.600   3.173
    1SIL  O04Kn24539   5.543   7.547   3.354
    1SIL  O04Ko24540   5.789   7.351   3.226
    1SIL  O04Kp24541   5.976   7.297   3.407
    1SIL  O04Kq24542   5.929   7.486   3.588
    1SIL  Si2AR24543   5.537   7.888   3.109
    1SIL  Si2AS24544   5.291   7.861   3.471
    1SIL  Si2AT24545   5.637   7.662   3.290
    1SIL  O04Kr24546   5.437   7.838   3.535
    1SIL  O04Ks24547   5.484   8.026   3.173
    1SIL  O04Kt24548   5.298   7.973   3.354
    1SIL  O04Ku24549   5.543   7.776   3.226
    1SIL  O04Kv24550   5.730   7.723   3.407
    1SIL  O04Kw24551   5.683   7.911   3.588
    1SIL  Si2AU24552   5.291   8.313   3.109
    1SIL  Si2AV24553   5.045   8.287   3.471
    1SIL  Si2AW24554   5.391   8.087   3.290
    1SIL  O04Kx24555   5.191   8.263   3.535
    1SIL  O04Ky24556   5.239   8.452   3.173
    1SIL  O04Kz24557   5.052   8.398   3.354
    1SIL  O04L024558   5.298   8.202   3.226
    1SIL  O04L124559   5.484   8.149   3.407
    1SIL  O04L224560   5.437   8.337   3.588
    1SIL  Si2AX24561   5.045   8.739   3.109
    1SIL  Si2AY24562   4.800   8.713   3.471
    1SIL  Si2AZ24563   5.145   8.513   3.290
    1SIL  O04L324564   4.946   8.689   3.535
    1SIL  O04L424565   4.993   8.877   3.173
    1SIL  O04L524566   4.806   8.824   3.354
    1SIL  O04L624567   5.052   8.628   3.226
    1SIL  O04L724568   5.239   8.574   3.407
    1SIL  O04L824569   5.191   8.763   3.588
    1SIL  Si2Aa24570   4.800   9.165   3.109
    1SIL  Si2Ab24571   4.554   9.138   3.471
    1SIL  Si2Ac24572   4.900   8.939   3.290
    1SIL  O04L924573   4.700   9.115   3.535
    1SIL  O04LA24574   4.747   9.303   3.173
    1SIL  O04LB24575   4.560   9.250   3.354
    1SIL  O04LC24576   4.806   9.053   3.226
    1SIL  O04LD24577   4.993   9.000   3.407
    1SIL  O04LE24578   4.946   9.188   3.588
    1SIL  Si2Ad24579   4.554   9.590   3.109
    1SIL  Si2Ae24580   4.308   9.564   3.471
    1SIL  Si2Af24581   4.654   9.364   3.290
    1SIL  O04LF24582   4.454   9.540   3.535
    1SIL  O04LG24583   4.501   9.729   3.173
    1SIL  O04LH24584   4.315   9.675   3.354
    1SIL  O04LI24585   4.560   9.479   3.226
    1SIL  O04LJ24586   4.747   9.426   3.407
    1SIL  O04LK24587   4.700   9.614   3.588
    1SIL  Si2Ag24588   0.622   0.226   3.109
    1SIL  Si2Ah24589   0.376   0.200   3.471
    1SIL  Si2Ai24590   0.722   0.000   3.290
    1SIL  O04LL24591   0.522   0.176   3.535
    1SIL  O04LM24592   0.569   0.364   3.173
    1SIL  O04LN24593   0.383   0.311   3.354
    1SIL  O04LO24594   0.629   0.115   3.226
    1SIL  O04LP24595   0.815   0.061   3.407
    1SIL  O04LQ24596   0.768   0.250   3.588
    1SIL  Si2Aj24597   0.376   0.652   3.109
    1SIL  Si2Ak24598   0.131   0.625   3.471
    1SIL  Si2Al24599   0.476   0.426   3.290
    1SIL  O04LR24600   0.276   0.602   3.535
    1SIL  O04LS24601   0.324   0.790   3.173
    1SIL  O04LT24602   0.137   0.737   3.354
    1SIL  O04LU24603   0.383   0.540   3.226
    1SIL  O04LV24604   0.569   0.487   3.407
    1SIL  O04LW24605   0.522   0.675   3.588
    1SIL  Si2Am24606   0.131   1.077   3.109
    1SIL  Si2An24607   9.715   1.051   3.471
    1SIL  Si2Ao24608   0.230   0.851   3.290
    1SIL  O04LX24609   0.031   1.027   3.535
    1SIL  O04LY24610   0.078   1.216   3.173
    1SIL  O04LZ24611   9.721   1.162   3.354
    1SIL  O04La24612   0.137   0.966   3.226
    1SIL  O04Lb24613   0.324   0.913   3.407
    1SIL  O04Lc24614   0.276   1.101   3.588
    1SIL  Si2Ap24615   9.715   1.503   3.109
    1SIL  Si2Aq24616   9.469   1.477   3.471
    1SIL  Si2Ar24617   9.815   1.277   3.290
    1SIL  O04Ld24618   9.615   1.453   3.535
    1SIL  O04Le24619   9.662   1.641   3.173
    1SIL  O04Lf24620   9.475   1.588   3.354
    1SIL  O04Lg24621   9.721   1.392   3.226
    1SIL  O04Lh24622   0.078   1.338   3.407
    1SIL  O04Li24623   0.031   1.527   3.588
    1SIL  Si2As24624   9.469   1.929   3.109
    1SIL  Si2At24625   9.223   1.902   3.471
    1SIL  Si2Au24626   9.569   1.703   3.290
    1SIL  O04Lj24627   9.369   1.879   3.535
    1SIL  O04Lk24628   9.416   2.067   3.173
    1SIL  O04Ll24629   9.230   2.014   3.354
    1SIL  O04Lm24630   9.475   1.817   3.226
    1SIL  O04Ln24631   9.662   1.764   3.407
    1SIL  O04Lo24632   9.615   1.952   3.588
    1SIL  Si2Av24633   9.223   2.354   3.109
    1SIL  Si2Aw24634   8.977   2.328   3.471
    1SIL  Si2Ax24635   9.323   2.128   3.290
    1SIL  O04Lp24636   9.123   2.304   3.535
    1SIL  O04Lq24637   9.171   2.493   3.173
    1SIL  O04Lr24638   8.984   2.439   3.354
    1SIL  O04Ls24639   9.230   2.243   3.226
    1SIL  O04Lt24640   9.416   2.190   3.407
    1SIL  O04Lu24641   9.369   2.378   3.588
    1SIL  Si2Ay24642   8.977   2.780   3.109
    1SIL  Si2Az24643   8.732   2.753   3.471
    1SIL  Si2B024644   9.077   2.554   3.290
    1SIL  O04Lv24645   8.878   2.730   3.535
    1SIL  O04Lw24646   8.925   2.918   3.173
    1SIL  O04Lx24647   8.738   2.865   3.354
    1SIL  O04Ly24648   8.984   2.668   3.226
    1SIL  O04Lz24649   9.171   2.615   3.407
    1SIL  O04M024650   9.123   2.804   3.588
    1SIL  Si2B124651   8.732   3.206   3.109
    1SIL  Si2B224652   8.486   3.179   3.471
    1SIL  Si2B324653   8.832   2.980   3.290
    1SIL  O04M124654   8.632   3.156   3.535
    1SIL  O04M224655   8.679   3.344   3.173
    1SIL  O04M324656   8.492   3.291   3.354
    1SIL  O04M424657   8.738   3.094   3.226
    1SIL  O04M524658   8.925   3.041   3.407
    1SIL  O04M624659   8.878   3.229   3.588
    1SIL  Si2B424660   8.486   3.631   3.109
    1SIL  Si2B524661   8.240   3.605   3.471
    1SIL  Si2B624662   8.586   3.405   3.290
    1SIL  O04M724663   8.386   3.581   3.535
    1SIL  O04M824664   8.433   3.769   3.173
    1SIL  O04M924665   8.247   3.716   3.354
    1SIL  O04MA24666   8.492   3.520   3.226
    1SIL  O04MB24667   8.679   3.467   3.407
    1SIL  O04MC24668   8.632   3.655   3.588
    1SIL  Si2B724669   8.240   4.057   3.109
    1SIL  Si2B824670   7.994   4.030   3.471
    1SIL  Si2B924671   8.340   3.831   3.290
    1SIL  O04MD24672   8.140   4.007   3.535
    1SIL  O04ME24673   8.188   4.195   3.173
    1SIL  O04MF24674   8.001   4.142   3.354
    1SIL  O04MG24675   8.247   3.945   3.226
    1SIL  O04MH24676   8.433   3.892   3.407
    1SIL  O04MI24677   8.386   4.081   3.588
    1SIL  Si2BA24678   7.994   4.483   3.109
    1SIL  Si2BB24679   7.749   4.456   3.471
    1SIL  Si2BC24680   8.094   4.256   3.290
    1SIL  O04MJ24681   7.895   4.432   3.535
    1SIL  O04MK24682   7.942   4.621   3.173
    1SIL  O04ML24683   7.755   4.568   3.354
    1SIL  O04MM24684   8.001   4.371   3.226
    1SIL  O04MN24685   8.188   4.318   3.407
    1SIL  O04MO24686   8.140   4.506   3.588
    1SIL  Si2BD24687   7.749   4.908   3.109
    1SIL  Si2BE24688   7.503   4.882   3.471
    1SIL  Si2BF24689   7.849   4.682   3.290
    1SIL  O04MP24690   7.649   4.858   3.535
    1SIL  O04MQ24691   7.696   5.046   3.173
    1SIL  O04MR24692   7.509   4.993   3.354
    1SIL  O04MS24693   7.755   4.797   3.226
    1SIL  O04MT24694   7.942   4.744   3.407
    1SIL  O04MU24695   7.895   4.932   3.588
    1SIL  Si2BG24696   7.503   5.334   3.109
    1SIL  Si2BH24697   7.257   5.307   3.471
    1SIL  Si2BI24698   7.603   5.108   3.290
    1SIL  O04MV24699   7.403   5.284   3.535
    1SIL  O04MW24700   7.450   5.472   3.173
    1SIL  O04MX24701   7.264   5.419   3.354
    1SIL  O04MY24702   7.509   5.222   3.226
    1SIL  O04MZ24703   7.696   5.169   3.407
    1SIL  O04Ma24704   7.649   5.357   3.588
    1SIL  Si2BJ24705   7.257   5.759   3.109
    1SIL  Si2BK24706   7.011   5.733   3.471
    1SIL  Si2BL24707   7.357   5.533   3.290
    1SIL  O04Mb24708   7.157   5.709   3.535
    1SIL  O04Mc24709   7.205   5.898   3.173
    1SIL  O04Md24710   7.018   5.844   3.354
    1SIL  O04Me24711   7.264   5.648   3.226
    1SIL  O04Mf24712   7.450   5.595   3.407
    1SIL  O04Mg24713   7.403   5.783   3.588
    1SIL  Si2BM24714   7.011   6.185   3.109
    1SIL  Si2BN24715   6.766   6.159   3.471
    1SIL  Si2BO24716   7.111   5.959   3.290
    1SIL  O04Mh24717   6.912   6.135   3.535
    1SIL  O04Mi24718   6.959   6.323   3.173
    1SIL  O04Mj24719   6.772   6.270   3.354
    1SIL  O04Mk24720   7.018   6.074   3.226
    1SIL  O04Ml24721   7.205   6.020   3.407
    1SIL  O04Mm24722   7.157   6.209   3.588
    1SIL  Si2BP24723   6.766   6.611   3.109
    1SIL  Si2BQ24724   6.520   6.584   3.471
    1SIL  Si2BR24725   6.866   6.385   3.290
    1SIL  O04Mn24726   6.666   6.561   3.535
    1SIL  O04Mo24727   6.713   6.749   3.173
    1SIL  O04Mp24728   6.526   6.696   3.354
    1SIL  O04Mq24729   6.772   6.499   3.226
    1SIL  O04Mr24730   6.959   6.446   3.407
    1SIL  O04Ms24731   6.912   6.634   3.588
    1SIL  Si2BS24732   6.520   7.036   3.109
    1SIL  Si2BT24733   6.274   7.010   3.471
    1SIL  Si2BU24734   6.620   6.810   3.290
    1SIL  O04Mt24735   6.420   6.986   3.535
    1SIL  O04Mu24736   6.467   7.175   3.173
    1SIL  O04Mv24737   6.281   7.121   3.354
    1SIL  O04Mw24738   6.526   6.925   3.226
    1SIL  O04Mx24739   6.713   6.872   3.407
    1SIL  O04My24740   6.666   7.060   3.588
    1SIL  Si2BV24741   6.274   7.462   3.109
    1SIL  Si2BW24742   6.028   7.436   3.471
    1SIL  Si2BX24743   6.374   7.236   3.290
    1SIL  O04Mz24744   6.174   7.412   3.535
    1SIL  O04N024745   6.222   7.600   3.173
    1SIL  O04N124746   6.035   7.547   3.354
    1SIL  O04N224747   6.281   7.351   3.226
    1SIL  O04N324748   6.467   7.297   3.407
    1SIL  O04N424749   6.420   7.486   3.588
    1SIL  Si2BY24750   6.028   7.888   3.109
    1SIL  Si2BZ24751   5.783   7.861   3.471
    1SIL  Si2Ba24752   6.128   7.662   3.290
    1SIL  O04N524753   5.929   7.838   3.535
    1SIL  O04N624754   5.976   8.026   3.173
    1SIL  O04N724755   5.789   7.973   3.354
    1SIL  O04N824756   6.035   7.776   3.226
    1SIL  O04N924757   6.222   7.723   3.407
    1SIL  O04NA24758   6.174   7.911   3.588
    1SIL  Si2Bb24759   5.783   8.313   3.109
    1SIL  Si2Bc24760   5.537   8.287   3.471
    1SIL  Si2Bd24761   5.883   8.087   3.290
    1SIL  O04NB24762   5.683   8.263   3.535
    1SIL  O04NC24763   5.730   8.452   3.173
    1SIL  O04ND24764   5.543   8.398   3.354
    1SIL  O04NE24765   5.789   8.202   3.226
    1SIL  O04NF24766   5.976   8.149   3.407
    1SIL  O04NG24767   5.929   8.337   3.588
    1SIL  Si2Be24768   5.537   8.739   3.109
    1SIL  Si2Bf24769   5.291   8.713   3.471
    1SIL  Si2Bg24770   5.637   8.513   3.290
    1SIL  O04NH24771   5.437   8.689   3.535
    1SIL  O04NI24772   5.484   8.877   3.173
    1SIL  O04NJ24773   5.298   8.824   3.354
    1SIL  O04NK24774   5.543   8.628   3.226
    1SIL  O04NL24775   5.730   8.574   3.407
    1SIL  O04NM24776   5.683   8.763   3.588
    1SIL  Si2Bh24777   5.291   9.165   3.109
    1SIL  Si2Bi24778   5.045   9.138   3.471
    1SIL  Si2Bj24779   5.391   8.939   3.290
    1SIL  O04NN24780   5.191   9.115   3.535
    1SIL  O04NO24781   5.239   9.303   3.173
    1SIL  O04NP24782   5.052   9.250   3.354
    1SIL  O04NQ24783   5.298   9.053   3.226
    1SIL  O04NR24784   5.484   9.000   3.407
    1SIL  O04NS24785   5.437   9.188   3.588
    1SIL  Si2Bk24786   5.045   9.590   3.109
    1SIL  Si2Bl24787   4.800   9.564   3.471
    1SIL  Si2Bm24788   5.145   9.364   3.290
    1SIL  O04NT24789   4.946   9.540   3.535
    1SIL  O04NU24790   4.993   9.729   3.173
    1SIL  O04NV24791   4.806   9.675   3.354
    1SIL  O04NW24792   5.052   9.479   3.226
    1SIL  O04NX24793   5.239   9.426   3.407
    1SIL  O04NY24794   5.191   9.614   3.588
    1SIL  Si2Bn24795   1.114   0.226   3.109
    1SIL  Si2Bo24796   0.868   0.200   3.471
    1SIL  Si2Bp24797   1.213   0.000   3.290
    1SIL  O04NZ24798   1.014   0.176   3.535
    1SIL  O04Na24799   1.061   0.364   3.173
    1SIL  O04Nb24800   0.874   0.311   3.354
    1SIL  O04Nc24801   1.120   0.115   3.226
    1SIL  O04Nd24802   1.307   0.061   3.407
    1SIL  O04Ne24803   1.259   0.250   3.588
    1SIL  Si2Bq24804   0.868   0.652   3.109
    1SIL  Si2Br24805   0.622   0.625   3.471
    1SIL  Si2Bs24806   0.968   0.426   3.290
    1SIL  O04Nf24807   0.768   0.602   3.535
    1SIL  O04Ng24808   0.815   0.790   3.173
    1SIL  O04Nh24809   0.629   0.737   3.354
    1SIL  O04Ni24810   0.874   0.540   3.226
    1SIL  O04Nj24811   1.061   0.487   3.407
    1SIL  O04Nk24812   1.014   0.675   3.588
    1SIL  Si2Bt24813   0.622   1.077   3.109
    1SIL  Si2Bu24814   0.376   1.051   3.471
    1SIL  Si2Bv24815   0.722   0.851   3.290
    1SIL  O04Nl24816   0.522   1.027   3.535
    1SIL  O04Nm24817   0.569   1.216   3.173
    1SIL  O04Nn24818   0.383   1.162   3.354
    1SIL  O04No24819   0.629   0.966   3.226
    1SIL  O04Np24820   0.815   0.913   3.407
    1SIL  O04Nq24821   0.768   1.101   3.588
    1SIL  Si2Bw24822   0.376   1.503   3.109
    1SIL  Si2Bx24823   0.131   1.477   3.471
    1SIL  Si2By24824   0.476   1.277   3.290
    1SIL  O04Nr24825   0.276   1.453   3.535
    1SIL  O04Ns24826   0.324   1.641   3.173
    1SIL  O04Nt24827   0.137   1.588   3.354
    1SIL  O04Nu24828   0.383   1.392   3.226
    1SIL  O04Nv24829   0.569   1.338   3.407
    1SIL  O04Nw24830   0.522   1.527   3.588
    1SIL  Si2Bz24831   0.131   1.929   3.109
    1SIL  Si2C024832   9.715   1.902   3.471
    1SIL  Si2C124833   0.230   1.703   3.290
    1SIL  O04Nx24834   0.031   1.879   3.535
    1SIL  O04Ny24835   0.078   2.067   3.173
    1SIL  O04Nz24836   9.721   2.014   3.354
    1SIL  O04O024837   0.137   1.817   3.226
    1SIL  O04O124838   0.324   1.764   3.407
    1SIL  O04O224839   0.276   1.952   3.588
    1SIL  Si2C224840   9.715   2.354   3.109
    1SIL  Si2C324841   9.469   2.328   3.471
    1SIL  Si2C424842   9.815   2.128   3.290
    1SIL  O04O324843   9.615   2.304   3.535
    1SIL  O04O424844   9.662   2.493   3.173
    1SIL  O04O524845   9.475   2.439   3.354
    1SIL  O04O624846   9.721   2.243   3.226
    1SIL  O04O724847   0.078   2.190   3.407
    1SIL  O04O824848   0.031   2.378   3.588
    1SIL  Si2C524849   9.469   2.780   3.109
    1SIL  Si2C624850   9.223   2.753   3.471
    1SIL  Si2C724851   9.569   2.554   3.290
    1SIL  O04O924852   9.369   2.730   3.535
    1SIL  O04OA24853   9.416   2.918   3.173
    1SIL  O04OB24854   9.230   2.865   3.354
    1SIL  O04OC24855   9.475   2.668   3.226
    1SIL  O04OD24856   9.662   2.615   3.407
    1SIL  O04OE24857   9.615   2.804   3.588
    1SIL  Si2C824858   9.223   3.206   3.109
    1SIL  Si2C924859   8.977   3.179   3.471
    1SIL  Si2CA24860   9.323   2.980   3.290
    1SIL  O04OF24861   9.123   3.156   3.535
    1SIL  O04OG24862   9.171   3.344   3.173
    1SIL  O04OH24863   8.984   3.291   3.354
    1SIL  O04OI24864   9.230   3.094   3.226
    1SIL  O04OJ24865   9.416   3.041   3.407
    1SIL  O04OK24866   9.369   3.229   3.588
    1SIL  Si2CB24867   8.977   3.631   3.109
    1SIL  Si2CC24868   8.732   3.605   3.471
    1SIL  Si2CD24869   9.077   3.405   3.290
    1SIL  O04OL24870   8.878   3.581   3.535
    1SIL  O04OM24871   8.925   3.769   3.173
    1SIL  O04ON24872   8.738   3.716   3.354
    1SIL  O04OO24873   8.984   3.520   3.226
    1SIL  O04OP24874   9.171   3.467   3.407
    1SIL  O04OQ24875   9.123   3.655   3.588
    1SIL  Si2CE24876   8.732   4.057   3.109
    1SIL  Si2CF24877   8.486   4.030   3.471
    1SIL  Si2CG24878   8.832   3.831   3.290
    1SIL  O04OR24879   8.632   4.007   3.535
    1SIL  O04OS24880   8.679   4.195   3.173
    1SIL  O04OT24881   8.492   4.142   3.354
    1SIL  O04OU24882   8.738   3.945   3.226
    1SIL  O04OV24883   8.925   3.892   3.407
    1SIL  O04OW24884   8.878   4.081   3.588
    1SIL  Si2CH24885   8.486   4.483   3.109
    1SIL  Si2CI24886   8.240   4.456   3.471
    1SIL  Si2CJ24887   8.586   4.256   3.290
    1SIL  O04OX24888   8.386   4.432   3.535
    1SIL  O04OY24889   8.433   4.621   3.173
    1SIL  O04OZ24890   8.247   4.568   3.354
    1SIL  O04Oa24891   8.492   4.371   3.226
    1SIL  O04Ob24892   8.679   4.318   3.407
    1SIL  O04Oc24893   8.632   4.506   3.588
    1SIL  Si2CK24894   8.240   4.908   3.109
    1SIL  Si2CL24895   7.994   4.882   3.471
    1SIL  Si2CM24896   8.340   4.682   3.290
    1SIL  O04Od24897   8.140   4.858   3.535
    1SIL  O04Oe24898   8.188   5.046   3.173
    1SIL  O04Of24899   8.001   4.993   3.354
    1SIL  O04Og24900   8.247   4.797   3.226
    1SIL  O04Oh24901   8.433   4.744   3.407
    1SIL  O04Oi24902   8.386   4.932   3.588
    1SIL  Si2CN24903   7.994   5.334   3.109
    1SIL  Si2CO24904   7.749   5.307   3.471
    1SIL  Si2CP24905   8.094   5.108   3.290
    1SIL  O04Oj24906   7.895   5.284   3.535
    1SIL  O04Ok24907   7.942   5.472   3.173
    1SIL  O04Ol24908   7.755   5.419   3.354
    1SIL  O04Om24909   8.001   5.222   3.226
    1SIL  O04On24910   8.188   5.169   3.407
    1SIL  O04Oo24911   8.140   5.357   3.588
    1SIL  Si2CQ24912   7.749   5.759   3.109
    1SIL  Si2CR24913   7.503   5.733   3.471
    1SIL  Si2CS24914   7.849   5.533   3.290
    1SIL  O04Op24915   7.649   5.709   3.535
    1SIL  O04Oq24916   7.696   5.898   3.173
    1SIL  O04Or24917   7.509   5.844   3.354
    1SIL  O04Os24918   7.755   5.648   3.226
    1SIL  O04Ot24919   7.942   5.595   3.407
    1SIL  O04Ou24920   7.895   5.783   3.588
    1SIL  Si2CT24921   7.503   6.185   3.109
    1SIL  Si2CU24922   7.257   6.159   3.471
    1SIL  Si2CV24923   7.603   5.959   3.290
    1SIL  O04Ov24924   7.403   6.135   3.535
    1SIL  O04Ow24925   7.450   6.323   3.173
    1SIL  O04Ox24926   7.264   6.270   3.354
    1SIL  O04Oy24927   7.509   6.074   3.226
    1SIL  O04Oz24928   7.696   6.020   3.407
    1SIL  O04P024929   7.649   6.209   3.588
    1SIL  Si2CW24930   7.257   6.611   3.109
    1SIL  Si2CX24931   7.011   6.584   3.471
    1SIL  Si2CY24932   7.357   6.385   3.290
    1SIL  O04P124933   7.157   6.561   3.535
    1SIL  O04P224934   7.205   6.749   3.173
    1SIL  O04P324935   7.018   6.696   3.354
    1SIL  O04P424936   7.264   6.499   3.226
    1SIL  O04P524937   7.450   6.446   3.407
    1SIL  O04P624938   7.403   6.634   3.588
    1SIL  Si2CZ24939   7.011   7.036   3.109
    1SIL  Si2Ca24940   6.766   7.010   3.471
    1SIL  Si2Cb24941   7.111   6.810   3.290
    1SIL  O04P724942   6.912   6.986   3.535
    1SIL  O04P824943   6.959   7.175   3.173
    1SIL  O04P924944   6.772   7.121   3.354
    1SIL  O04PA24945   7.018   6.925   3.226
    1SIL  O04PB24946   7.205   6.872   3.407
    1SIL  O04PC24947   7.157   7.060   3.588
    1SIL  Si2Cc24948   6.766   7.462   3.109
    1SIL  Si2Cd24949   6.520   7.436   3.471
    1SIL  Si2Ce24950   6.866   7.236   3.290
    1SIL  O04PD24951   6.666   7.412   3.535
    1SIL  O04PE24952   6.713   7.600   3.173
    1SIL  O04PF24953   6.526   7.547   3.354
    1SIL  O04PG24954   6.772   7.351   3.226
    1SIL  O04PH24955   6.959   7.297   3.407
    1SIL  O04PI24956   6.912   7.486   3.588
    1SIL  Si2Cf24957   6.520   7.888   3.109
    1SIL  Si2Cg24958   6.274   7.861   3.471
    1SIL  Si2Ch24959   6.620   7.662   3.290
    1SIL  O04PJ24960   6.420   7.838   3.535
    1SIL  O04PK24961   6.467   8.026   3.173
    1SIL  O04PL24962   6.281   7.973   3.354
    1SIL  O04PM24963   6.526   7.776   3.226
    1SIL  O04PN24964   6.713   7.723   3.407
    1SIL  O04PO24965   6.666   7.911   3.588
    1SIL  Si2Ci24966   6.274   8.313   3.109
    1SIL  Si2Cj24967   6.028   8.287   3.471
    1SIL  Si2Ck24968   6.374   8.087   3.290
    1SIL  O04PP24969   6.174   8.263   3.535
    1SIL  O04PQ24970   6.222   8.452   3.173
    1SIL  O04PR24971   6.035   8.398   3.354
    1SIL  O04PS24972   6.281   8.202   3.226
    1SIL  O04PT24973   6.467   8.149   3.407
    1SIL  O04PU24974   6.420   8.337   3.588
    1SIL  Si2Cl24975   6.028   8.739   3.109
    1SIL  Si2Cm24976   5.783   8.713   3.471
    1SIL  Si2Cn24977   6.128   8.513   3.290
    1SIL  O04PV24978   5.929   8.689   3.535
    1SIL  O04PW24979   5.976   8.877   3.173
    1SIL  O04PX24980   5.789   8.824   3.354
    1SIL  O04PY24981   6.035   8.628   3.226
    1SIL  O04PZ24982   6.222   8.574   3.407
    1SIL  O04Pa24983   6.174   8.763   3.588
    1SIL  Si2Co24984   5.783   9.165   3.109
    1SIL  Si2Cp24985   5.537   9.138   3.471
    1SIL  Si2Cq24986   5.883   8.939   3.290
    1SIL  O04Pb24987   5.683   9.115   3.535
    1SIL  O04Pc24988   5.730   9.303   3.173
    1SIL  O04Pd24989   5.543   9.250   3.354
    1SIL  O04Pe24990   5.789   9.053   3.226
    1SIL  O04Pf24991   5.976   9.000   3.407
    1SIL  O04Pg24992   5.929   9.188   3.588
    1SIL  Si2Cr24993   5.537   9.590   3.109
    1SIL  Si2Cs24994   5.291   9.564   3.471
    1SIL  Si2Ct24995   5.637   9.364   3.290
    1SIL  O04Ph24996   5.437   9.540   3.535
    1SIL  O04Pi24997   5.484   9.729   3.173
    1SIL  O04Pj24998   5.298   9.675   3.354
    1SIL  O04Pk24999   5.543   9.479   3.226
    1SIL  O04Pl25000   5.730   9.426   3.407
    1SIL  O04Pm25001   5.683   9.614   3.588
    1SIL  Si2Cu25002   1.605   0.226   3.109
    1SIL  Si2Cv25003   1.359   0.200   3.471
    1SIL  Si2Cw25004   1.705   0.000   3.290
    1SIL  O04Pn25005   1.505   0.176   3.535
    1SIL  O04Po25006   1.552   0.364   3.173
    1SIL  O04Pp25007   1.366   0.311   3.354
    1SIL  O04Pq25008   1.612   0.115   3.226
    1SIL  O04Pr25009   1.798   0.061   3.407
    1SIL  O04Ps25010   1.751   0.250   3.588
    1SIL  Si2Cx25011   1.359   0.652   3.109
    1SIL  Si2Cy25012   1.114   0.625   3.471
    1SIL  Si2Cz25013   1.459   0.426   3.290
    1SIL  O04Pt25014   1.259   0.602   3.535
    1SIL  O04Pu25015   1.307   0.790   3.173
    1SIL  O04Pv25016   1.120   0.737   3.354
    1SIL  O04Pw25017   1.366   0.540   3.226
    1SIL  O04Px25018   1.552   0.487   3.407
    1SIL  O04Py25019   1.505   0.675   3.588
    1SIL  Si2D025020   1.114   1.077   3.109
    1SIL  Si2D125021   0.868   1.051   3.471
    1SIL  Si2D225022   1.213   0.851   3.290
    1SIL  O04Pz25023   1.014   1.027   3.535
    1SIL  O04Q025024   1.061   1.216   3.173
    1SIL  O04Q125025   0.874   1.162   3.354
    1SIL  O04Q225026   1.120   0.966   3.226
    1SIL  O04Q325027   1.307   0.913   3.407
    1SIL  O04Q425028   1.259   1.101   3.588
    1SIL  Si2D325029   0.868   1.503   3.109
    1SIL  Si2D425030   0.622   1.477   3.471
    1SIL  Si2D525031   0.968   1.277   3.290
    1SIL  O04Q525032   0.768   1.453   3.535
    1SIL  O04Q625033   0.815   1.641   3.173
    1SIL  O04Q725034   0.629   1.588   3.354
    1SIL  O04Q825035   0.874   1.392   3.226
    1SIL  O04Q925036   1.061   1.338   3.407
    1SIL  O04QA25037   1.014   1.527   3.588
    1SIL  Si2D625038   0.622   1.929   3.109
    1SIL  Si2D725039   0.376   1.902   3.471
    1SIL  Si2D825040   0.722   1.703   3.290
    1SIL  O04QB25041   0.522   1.879   3.535
    1SIL  O04QC25042   0.569   2.067   3.173
    1SIL  O04QD25043   0.383   2.014   3.354
    1SIL  O04QE25044   0.629   1.817   3.226
    1SIL  O04QF25045   0.815   1.764   3.407
    1SIL  O04QG25046   0.768   1.952   3.588
    1SIL  Si2D925047   0.376   2.354   3.109
    1SIL  Si2DA25048   0.131   2.328   3.471
    1SIL  Si2DB25049   0.476   2.128   3.290
    1SIL  O04QH25050   0.276   2.304   3.535
    1SIL  O04QI25051   0.324   2.493   3.173
    1SIL  O04QJ25052   0.137   2.439   3.354
    1SIL  O04QK25053   0.383   2.243   3.226
    1SIL  O04QL25054   0.569   2.190   3.407
    1SIL  O04QM25055   0.522   2.378   3.588
    1SIL  Si2DC25056   0.131   2.780   3.109
    1SIL  Si2DD25057   9.715   2.753   3.471
    1SIL  Si2DE25058   0.230   2.554   3.290
    1SIL  O04QN25059   0.031   2.730   3.535
    1SIL  O04QO25060   0.078   2.918   3.173
    1SIL  O04QP25061   9.721   2.865   3.354
    1SIL  O04QQ25062   0.137   2.668   3.226
    1SIL  O04QR25063   0.324   2.615   3.407
    1SIL  O04QS25064   0.276   2.804   3.588
    1SIL  Si2DF25065   9.715   3.206   3.109
    1SIL  Si2DG25066   9.469   3.179   3.471
    1SIL  Si2DH25067   9.815   2.980   3.290
    1SIL  O04QT25068   9.615   3.156   3.535
    1SIL  O04QU25069   9.662   3.344   3.173
    1SIL  O04QV25070   9.475   3.291   3.354
    1SIL  O04QW25071   9.721   3.094   3.226
    1SIL  O04QX25072   0.078   3.041   3.407
    1SIL  O04QY25073   0.031   3.229   3.588
    1SIL  Si2DI25074   9.469   3.631   3.109
    1SIL  Si2DJ25075   9.223   3.605   3.471
    1SIL  Si2DK25076   9.569   3.405   3.290
    1SIL  O04QZ25077   9.369   3.581   3.535
    1SIL  O04Qa25078   9.416   3.769   3.173
    1SIL  O04Qb25079   9.230   3.716   3.354
    1SIL  O04Qc25080   9.475   3.520   3.226
    1SIL  O04Qd25081   9.662   3.467   3.407
    1SIL  O04Qe25082   9.615   3.655   3.588
    1SIL  Si2DL25083   9.223   4.057   3.109
    1SIL  Si2DM25084   8.977   4.030   3.471
    1SIL  Si2DN25085   9.323   3.831   3.290
    1SIL  O04Qf25086   9.123   4.007   3.535
    1SIL  O04Qg25087   9.171   4.195   3.173
    1SIL  O04Qh25088   8.984   4.142   3.354
    1SIL  O04Qi25089   9.230   3.945   3.226
    1SIL  O04Qj25090   9.416   3.892   3.407
    1SIL  O04Qk25091   9.369   4.081   3.588
    1SIL  Si2DO25092   8.977   4.483   3.109
    1SIL  Si2DP25093   8.732   4.456   3.471
    1SIL  Si2DQ25094   9.077   4.256   3.290
    1SIL  O04Ql25095   8.878   4.432   3.535
    1SIL  O04Qm25096   8.925   4.621   3.173
    1SIL  O04Qn25097   8.738   4.568   3.354
    1SIL  O04Qo25098   8.984   4.371   3.226
    1SIL  O04Qp25099   9.171   4.318   3.407
    1SIL  O04Qq25100   9.123   4.506   3.588
    1SIL  Si2DR25101   8.732   4.908   3.109
    1SIL  Si2DS25102   8.486   4.882   3.471
    1SIL  Si2DT25103   8.832   4.682   3.290
    1SIL  O04Qr25104   8.632   4.858   3.535
    1SIL  O04Qs25105   8.679   5.046   3.173
    1SIL  O04Qt25106   8.492   4.993   3.354
    1SIL  O04Qu25107   8.738   4.797   3.226
    1SIL  O04Qv25108   8.925   4.744   3.407
    1SIL  O04Qw25109   8.878   4.932   3.588
    1SIL  Si2DU25110   8.486   5.334   3.109
    1SIL  Si2DV25111   8.240   5.307   3.471
    1SIL  Si2DW25112   8.586   5.108   3.290
    1SIL  O04Qx25113   8.386   5.284   3.535
    1SIL  O04Qy25114   8.433   5.472   3.173
    1SIL  O04Qz25115   8.247   5.419   3.354
    1SIL  O04R025116   8.492   5.222   3.226
    1SIL  O04R125117   8.679   5.169   3.407
    1SIL  O04R225118   8.632   5.357   3.588
    1SIL  Si2DX25119   8.240   5.759   3.109
    1SIL  Si2DY25120   7.994   5.733   3.471
    1SIL  Si2DZ25121   8.340   5.533   3.290
    1SIL  O04R325122   8.140   5.709   3.535
    1SIL  O04R425123   8.188   5.898   3.173
    1SIL  O04R525124   8.001   5.844   3.354
    1SIL  O04R625125   8.247   5.648   3.226
    1SIL  O04R725126   8.433   5.595   3.407
    1SIL  O04R825127   8.386   5.783   3.588
    1SIL  Si2Da25128   7.994   6.185   3.109
    1SIL  Si2Db25129   7.749   6.159   3.471
    1SIL  Si2Dc25130   8.094   5.959   3.290
    1SIL  O04R925131   7.895   6.135   3.535
    1SIL  O04RA25132   7.942   6.323   3.173
    1SIL  O04RB25133   7.755   6.270   3.354
    1SIL  O04RC25134   8.001   6.074   3.226
    1SIL  O04RD25135   8.188   6.020   3.407
    1SIL  O04RE25136   8.140   6.209   3.588
    1SIL  Si2Dd25137   7.749   6.611   3.109
    1SIL  Si2De25138   7.503   6.584   3.471
    1SIL  Si2Df25139   7.849   6.385   3.290
    1SIL  O04RF25140   7.649   6.561   3.535
    1SIL  O04RG25141   7.696   6.749   3.173
    1SIL  O04RH25142   7.509   6.696   3.354
    1SIL  O04RI25143   7.755   6.499   3.226
    1SIL  O04RJ25144   7.942   6.446   3.407
    1SIL  O04RK25145   7.895   6.634   3.588
    1SIL  Si2Dg25146   7.503   7.036   3.109
    1SIL  Si2Dh25147   7.257   7.010   3.471
    1SIL  Si2Di25148   7.603   6.810   3.290
    1SIL  O04RL25149   7.403   6.986   3.535
    1SIL  O04RM25150   7.450   7.175   3.173
    1SIL  O04RN25151   7.264   7.121   3.354
    1SIL  O04RO25152   7.509   6.925   3.226
    1SIL  O04RP25153   7.696   6.872   3.407
    1SIL  O04RQ25154   7.649   7.060   3.588
    1SIL  Si2Dj25155   7.257   7.462   3.109
    1SIL  Si2Dk25156   7.011   7.436   3.471
    1SIL  Si2Dl25157   7.357   7.236   3.290
    1SIL  O04RR25158   7.157   7.412   3.535
    1SIL  O04RS25159   7.205   7.600   3.173
    1SIL  O04RT25160   7.018   7.547   3.354
    1SIL  O04RU25161   7.264   7.351   3.226
    1SIL  O04RV25162   7.450   7.297   3.407
    1SIL  O04RW25163   7.403   7.486   3.588
    1SIL  Si2Dm25164   7.011   7.888   3.109
    1SIL  Si2Dn25165   6.766   7.861   3.471
    1SIL  Si2Do25166   7.111   7.662   3.290
    1SIL  O04RX25167   6.912   7.838   3.535
    1SIL  O04RY25168   6.959   8.026   3.173
    1SIL  O04RZ25169   6.772   7.973   3.354
    1SIL  O04Ra25170   7.018   7.776   3.226
    1SIL  O04Rb25171   7.205   7.723   3.407
    1SIL  O04Rc25172   7.157   7.911   3.588
    1SIL  Si2Dp25173   6.766   8.313   3.109
    1SIL  Si2Dq25174   6.520   8.287   3.471
    1SIL  Si2Dr25175   6.866   8.087   3.290
    1SIL  O04Rd25176   6.666   8.263   3.535
    1SIL  O04Re25177   6.713   8.452   3.173
    1SIL  O04Rf25178   6.526   8.398   3.354
    1SIL  O04Rg25179   6.772   8.202   3.226
    1SIL  O04Rh25180   6.959   8.149   3.407
    1SIL  O04Ri25181   6.912   8.337   3.588
    1SIL  Si2Ds25182   6.520   8.739   3.109
    1SIL  Si2Dt25183   6.274   8.713   3.471
    1SIL  Si2Du25184   6.620   8.513   3.290
    1SIL  O04Rj25185   6.420   8.689   3.535
    1SIL  O04Rk25186   6.467   8.877   3.173
    1SIL  O04Rl25187   6.281   8.824   3.354
    1SIL  O04Rm25188   6.526   8.628   3.226
    1SIL  O04Rn25189   6.713   8.574   3.407
    1SIL  O04Ro25190   6.666   8.763   3.588
    1SIL  Si2Dv25191   6.274   9.165   3.109
    1SIL  Si2Dw25192   6.028   9.138   3.471
    1SIL  Si2Dx25193   6.374   8.939   3.290
    1SIL  O04Rp25194   6.174   9.115   3.535
    1SIL  O04Rq25195   6.222   9.303   3.173
    1SIL  O04Rr25196   6.035   9.250   3.354
    1SIL  O04Rs25197   6.281   9.053   3.226
    1SIL  O04Rt25198   6.467   9.000   3.407
    1SIL  O04Ru25199   6.420   9.188   3.588
    1SIL  Si2Dy25200   6.028   9.590   3.109
    1SIL  Si2Dz25201   5.783   9.564   3.471
    1SIL  Si2E025202   6.128   9.364   3.290
    1SIL  O04Rv25203   5.929   9.540   3.535
    1SIL  O04Rw25204   5.976   9.729   3.173
    1SIL  O04Rx25205   5.789   9.675   3.354
    1SIL  O04Ry25206   6.035   9.479   3.226
    1SIL  O04Rz25207   6.222   9.426   3.407
    1SIL  O04S025208   6.174   9.614   3.588
    1SIL  Si2E125209   2.097   0.226   3.109
    1SIL  Si2E225210   1.851   0.200   3.471
    1SIL  Si2E325211   2.196   0.000   3.290
    1SIL  O04S125212   1.997   0.176   3.535
    1SIL  O04S225213   2.044   0.364   3.173
    1SIL  O04S325214   1.857   0.311   3.354
    1SIL  O04S425215   2.103   0.115   3.226
    1SIL  O04S525216   2.290   0.061   3.407
    1SIL  O04S625217   2.242   0.250   3.588
    1SIL  Si2E425218   1.851   0.652   3.109
    1SIL  Si2E525219   1.605   0.625   3.471
    1SIL  Si2E625220   1.951   0.426   3.290
    1SIL  O04S725221   1.751   0.602   3.535
    1SIL  O04S825222   1.798   0.790   3.173
    1SIL  O04S925223   1.612   0.737   3.354
    1SIL  O04SA25224   1.857   0.540   3.226
    1SIL  O04SB25225   2.044   0.487   3.407
    1SIL  O04SC25226   1.997   0.675   3.588
    1SIL  Si2E725227   1.605   1.077   3.109
    1SIL  Si2E825228   1.359   1.051   3.471
    1SIL  Si2E925229   1.705   0.851   3.290
    1SIL  O04SD25230   1.505   1.027   3.535
    1SIL  O04SE25231   1.552   1.216   3.173
    1SIL  O04SF25232   1.366   1.162   3.354
    1SIL  O04SG25233   1.612   0.966   3.226
    1SIL  O04SH25234   1.798   0.913   3.407
    1SIL  O04SI25235   1.751   1.101   3.588
    1SIL  Si2EA25236   1.359   1.503   3.109
    1SIL  Si2EB25237   1.114   1.477   3.471
    1SIL  Si2EC25238   1.459   1.277   3.290
    1SIL  O04SJ25239   1.259   1.453   3.535
    1SIL  O04SK25240   1.307   1.641   3.173
    1SIL  O04SL25241   1.120   1.588   3.354
    1SIL  O04SM25242   1.366   1.392   3.226
    1SIL  O04SN25243   1.552   1.338   3.407
    1SIL  O04SO25244   1.505   1.527   3.588
    1SIL  Si2ED25245   1.114   1.929   3.109
    1SIL  Si2EE25246   0.868   1.902   3.471
    1SIL  Si2EF25247   1.213   1.703   3.290
    1SIL  O04SP25248   1.014   1.879   3.535
    1SIL  O04SQ25249   1.061   2.067   3.173
    1SIL  O04SR25250   0.874   2.014   3.354
    1SIL  O04SS25251   1.120   1.817   3.226
    1SIL  O04ST25252   1.307   1.764   3.407
    1SIL  O04SU25253   1.259   1.952   3.588
    1SIL  Si2EG25254   0.868   2.354   3.109
    1SIL  Si2EH25255   0.622   2.328   3.471
    1SIL  Si2EI25256   0.968   2.128   3.290
    1SIL  O04SV25257   0.768   2.304   3.535
    1SIL  O04SW25258   0.815   2.493   3.173
    1SIL  O04SX25259   0.629   2.439   3.354
    1SIL  O04SY25260   0.874   2.243   3.226
    1SIL  O04SZ25261   1.061   2.190   3.407
    1SIL  O04Sa25262   1.014   2.378   3.588
    1SIL  Si2EJ25263   0.622   2.780   3.109
    1SIL  Si2EK25264   0.376   2.753   3.471
    1SIL  Si2EL25265   0.722   2.554   3.290
    1SIL  O04Sb25266   0.522   2.730   3.535
    1SIL  O04Sc25267   0.569   2.918   3.173
    1SIL  O04Sd25268   0.383   2.865   3.354
    1SIL  O04Se25269   0.629   2.668   3.226
    1SIL  O04Sf25270   0.815   2.615   3.407
    1SIL  O04Sg25271   0.768   2.804   3.588
    1SIL  Si2EM25272   0.376   3.206   3.109
    1SIL  Si2EN25273   0.131   3.179   3.471
    1SIL  Si2EO25274   0.476   2.980   3.290
    1SIL  O04Sh25275   0.276   3.156   3.535
    1SIL  O04Si25276   0.324   3.344   3.173
    1SIL  O04Sj25277   0.137   3.291   3.354
    1SIL  O04Sk25278   0.383   3.094   3.226
    1SIL  O04Sl25279   0.569   3.041   3.407
    1SIL  O04Sm25280   0.522   3.229   3.588
    1SIL  Si2EP25281   0.131   3.631   3.109
    1SIL  Si2EQ25282   9.715   3.605   3.471
    1SIL  Si2ER25283   0.230   3.405   3.290
    1SIL  O04Sn25284   0.031   3.581   3.535
    1SIL  O04So25285   0.078   3.769   3.173
    1SIL  O04Sp25286   9.721   3.716   3.354
    1SIL  O04Sq25287   0.137   3.520   3.226
    1SIL  O04Sr25288   0.324   3.467   3.407
    1SIL  O04Ss25289   0.276   3.655   3.588
    1SIL  Si2ES25290   9.715   4.057   3.109
    1SIL  Si2ET25291   9.469   4.030   3.471
    1SIL  Si2EU25292   9.815   3.831   3.290
    1SIL  O04St25293   9.615   4.007   3.535
    1SIL  O04Su25294   9.662   4.195   3.173
    1SIL  O04Sv25295   9.475   4.142   3.354
    1SIL  O04Sw25296   9.721   3.945   3.226
    1SIL  O04Sx25297   0.078   3.892   3.407
    1SIL  O04Sy25298   0.031   4.081   3.588
    1SIL  Si2EV25299   9.469   4.483   3.109
    1SIL  Si2EW25300   9.223   4.456   3.471
    1SIL  Si2EX25301   9.569   4.256   3.290
    1SIL  O04Sz25302   9.369   4.432   3.535
    1SIL  O04T025303   9.416   4.621   3.173
    1SIL  O04T125304   9.230   4.568   3.354
    1SIL  O04T225305   9.475   4.371   3.226
    1SIL  O04T325306   9.662   4.318   3.407
    1SIL  O04T425307   9.615   4.506   3.588
    1SIL  Si2EY25308   9.223   4.908   3.109
    1SIL  Si2EZ25309   8.977   4.882   3.471
    1SIL  Si2Ea25310   9.323   4.682   3.290
    1SIL  O04T525311   9.123   4.858   3.535
    1SIL  O04T625312   9.171   5.046   3.173
    1SIL  O04T725313   8.984   4.993   3.354
    1SIL  O04T825314   9.230   4.797   3.226
    1SIL  O04T925315   9.416   4.744   3.407
    1SIL  O04TA25316   9.369   4.932   3.588
    1SIL  Si2Eb25317   8.977   5.334   3.109
    1SIL  Si2Ec25318   8.732   5.307   3.471
    1SIL  Si2Ed25319   9.077   5.108   3.290
    1SIL  O04TB25320   8.878   5.284   3.535
    1SIL  O04TC25321   8.925   5.472   3.173
    1SIL  O04TD25322   8.738   5.419   3.354
    1SIL  O04TE25323   8.984   5.222   3.226
    1SIL  O04TF25324   9.171   5.169   3.407
    1SIL  O04TG25325   9.123   5.357   3.588
    1SIL  Si2Ee25326   8.732   5.759   3.109
    1SIL  Si2Ef25327   8.486   5.733   3.471
    1SIL  Si2Eg25328   8.832   5.533   3.290
    1SIL  O04TH25329   8.632   5.709   3.535
    1SIL  O04TI25330   8.679   5.898   3.173
    1SIL  O04TJ25331   8.492   5.844   3.354
    1SIL  O04TK25332   8.738   5.648   3.226
    1SIL  O04TL25333   8.925   5.595   3.407
    1SIL  O04TM25334   8.878   5.783   3.588
    1SIL  Si2Eh25335   8.486   6.185   3.109
    1SIL  Si2Ei25336   8.240   6.159   3.471
    1SIL  Si2Ej25337   8.586   5.959   3.290
    1SIL  O04TN25338   8.386   6.135   3.535
    1SIL  O04TO25339   8.433   6.323   3.173
    1SIL  O04TP25340   8.247   6.270   3.354
    1SIL  O04TQ25341   8.492   6.074   3.226
    1SIL  O04TR25342   8.679   6.020   3.407
    1SIL  O04TS25343   8.632   6.209   3.588
    1SIL  Si2Ek25344   8.240   6.611   3.109
    1SIL  Si2El25345   7.994   6.584   3.471
    1SIL  Si2Em25346   8.340   6.385   3.290
    1SIL  O04TT25347   8.140   6.561   3.535
    1SIL  O04TU25348   8.188   6.749   3.173
    1SIL  O04TV25349   8.001   6.696   3.354
    1SIL  O04TW25350   8.247   6.499   3.226
    1SIL  O04TX25351   8.433   6.446   3.407
    1SIL  O04TY25352   8.386   6.634   3.588
    1SIL  Si2En25353   7.994   7.036   3.109
    1SIL  Si2Eo25354   7.749   7.010   3.471
    1SIL  Si2Ep25355   8.094   6.810   3.290
    1SIL  O04TZ25356   7.895   6.986   3.535
    1SIL  O04Ta25357   7.942   7.175   3.173
    1SIL  O04Tb25358   7.755   7.121   3.354
    1SIL  O04Tc25359   8.001   6.925   3.226
    1SIL  O04Td25360   8.188   6.872   3.407
    1SIL  O04Te25361   8.140   7.060   3.588
    1SIL  Si2Eq25362   7.749   7.462   3.109
    1SIL  Si2Er25363   7.503   7.436   3.471
    1SIL  Si2Es25364   7.849   7.236   3.290
    1SIL  O04Tf25365   7.649   7.412   3.535
    1SIL  O04Tg25366   7.696   7.600   3.173
    1SIL  O04Th25367   7.509   7.547   3.354
    1SIL  O04Ti25368   7.755   7.351   3.226
    1SIL  O04Tj25369   7.942   7.297   3.407
    1SIL  O04Tk25370   7.895   7.486   3.588
    1SIL  Si2Et25371   7.503   7.888   3.109
    1SIL  Si2Eu25372   7.257   7.861   3.471
    1SIL  Si2Ev25373   7.603   7.662   3.290
    1SIL  O04Tl25374   7.403   7.838   3.535
    1SIL  O04Tm25375   7.450   8.026   3.173
    1SIL  O04Tn25376   7.264   7.973   3.354
    1SIL  O04To25377   7.509   7.776   3.226
    1SIL  O04Tp25378   7.696   7.723   3.407
    1SIL  O04Tq25379   7.649   7.911   3.588
    1SIL  Si2Ew25380   7.257   8.313   3.109
    1SIL  Si2Ex25381   7.011   8.287   3.471
    1SIL  Si2Ey25382   7.357   8.087   3.290
    1SIL  O04Tr25383   7.157   8.263   3.535
    1SIL  O04Ts25384   7.205   8.452   3.173
    1SIL  O04Tt25385   7.018   8.398   3.354
    1SIL  O04Tu25386   7.264   8.202   3.226
    1SIL  O04Tv25387   7.450   8.149   3.407
    1SIL  O04Tw25388   7.403   8.337   3.588
    1SIL  Si2Ez25389   7.011   8.739   3.109
    1SIL  Si2F025390   6.766   8.713   3.471
    1SIL  Si2F125391   7.111   8.513   3.290
    1SIL  O04Tx25392   6.912   8.689   3.535
    1SIL  O04Ty25393   6.959   8.877   3.173
    1SIL  O04Tz25394   6.772   8.824   3.354
    1SIL  O04U025395   7.018   8.628   3.226
    1SIL  O04U125396   7.205   8.574   3.407
    1SIL  O04U225397   7.157   8.763   3.588
    1SIL  Si2F225398   6.766   9.165   3.109
    1SIL  Si2F325399   6.520   9.138   3.471
    1SIL  Si2F425400   6.866   8.939   3.290
    1SIL  O04U325401   6.666   9.115   3.535
    1SIL  O04U425402   6.713   9.303   3.173
    1SIL  O04U525403   6.526   9.250   3.354
    1SIL  O04U625404   6.772   9.053   3.226
    1SIL  O04U725405   6.959   9.000   3.407
    1SIL  O04U825406   6.912   9.188   3.588
    1SIL  Si2F525407   6.520   9.590   3.109
    1SIL  Si2F625408   6.274   9.564   3.471
    1SIL  Si2F725409   6.620   9.364   3.290
    1SIL  O04U925410   6.420   9.540   3.535
    1SIL  O04UA25411   6.467   9.729   3.173
    1SIL  O04UB25412   6.281   9.675   3.354
    1SIL  O04UC25413   6.526   9.479   3.226
    1SIL  O04UD25414   6.713   9.426   3.407
    1SIL  O04UE25415   6.666   9.614   3.588
    1SIL  Si2F825416   2.588   0.226   3.109
    1SIL  Si2F925417   2.342   0.200   3.471
    1SIL  Si2FA25418   2.688   0.000   3.290
    1SIL  O04UF25419   2.488   0.176   3.535
    1SIL  O04UG25420   2.535   0.364   3.173
    1SIL  O04UH25421   2.349   0.311   3.354
    1SIL  O04UI25422   2.595   0.115   3.226
    1SIL  O04UJ25423   2.781   0.061   3.407
    1SIL  O04UK25424   2.734   0.250   3.588
    1SIL  Si2FB25425   2.342   0.652   3.109
    1SIL  Si2FC25426   2.097   0.625   3.471
    1SIL  Si2FD25427   2.442   0.426   3.290
    1SIL  O04UL25428   2.242   0.602   3.535
    1SIL  O04UM25429   2.290   0.790   3.173
    1SIL  O04UN25430   2.103   0.737   3.354
    1SIL  O04UO25431   2.349   0.540   3.226
    1SIL  O04UP25432   2.535   0.487   3.407
    1SIL  O04UQ25433   2.488   0.675   3.588
    1SIL  Si2FE25434   2.097   1.077   3.109
    1SIL  Si2FF25435   1.851   1.051   3.471
    1SIL  Si2FG25436   2.196   0.851   3.290
    1SIL  O04UR25437   1.997   1.027   3.535
    1SIL  O04US25438   2.044   1.216   3.173
    1SIL  O04UT25439   1.857   1.162   3.354
    1SIL  O04UU25440   2.103   0.966   3.226
    1SIL  O04UV25441   2.290   0.913   3.407
    1SIL  O04UW25442   2.242   1.101   3.588
    1SIL  Si2FH25443   1.851   1.503   3.109
    1SIL  Si2FI25444   1.605   1.477   3.471
    1SIL  Si2FJ25445   1.951   1.277   3.290
    1SIL  O04UX25446   1.751   1.453   3.535
    1SIL  O04UY25447   1.798   1.641   3.173
    1SIL  O04UZ25448   1.612   1.588   3.354
    1SIL  O04Ua25449   1.857   1.392   3.226
    1SIL  O04Ub25450   2.044   1.338   3.407
    1SIL  O04Uc25451   1.997   1.527   3.588
    1SIL  Si2FK25452   1.605   1.929   3.109
    1SIL  Si2FL25453   1.359   1.902   3.471
    1SIL  Si2FM25454   1.705   1.703   3.290
    1SIL  O04Ud25455   1.505   1.879   3.535
    1SIL  O04Ue25456   1.552   2.067   3.173
    1SIL  O04Uf25457   1.366   2.014   3.354
    1SIL  O04Ug25458   1.612   1.817   3.226
    1SIL  O04Uh25459   1.798   1.764   3.407
    1SIL  O04Ui25460   1.751   1.952   3.588
    1SIL  Si2FN25461   1.359   2.354   3.109
    1SIL  Si2FO25462   1.114   2.328   3.471
    1SIL  Si2FP25463   1.459   2.128   3.290
    1SIL  O04Uj25464   1.259   2.304   3.535
    1SIL  O04Uk25465   1.307   2.493   3.173
    1SIL  O04Ul25466   1.120   2.439   3.354
    1SIL  O04Um25467   1.366   2.243   3.226
    1SIL  O04Un25468   1.552   2.190   3.407
    1SIL  O04Uo25469   1.505   2.378   3.588
    1SIL  Si2FQ25470   1.114   2.780   3.109
    1SIL  Si2FR25471   0.868   2.753   3.471
    1SIL  Si2FS25472   1.213   2.554   3.290
    1SIL  O04Up25473   1.014   2.730   3.535
    1SIL  O04Uq25474   1.061   2.918   3.173
    1SIL  O04Ur25475   0.874   2.865   3.354
    1SIL  O04Us25476   1.120   2.668   3.226
    1SIL  O04Ut25477   1.307   2.615   3.407
    1SIL  O04Uu25478   1.259   2.804   3.588
    1SIL  Si2FT25479   0.868   3.206   3.109
    1SIL  Si2FU25480   0.622   3.179   3.471
    1SIL  Si2FV25481   0.968   2.980   3.290
    1SIL  O04Uv25482   0.768   3.156   3.535
    1SIL  O04Uw25483   0.815   3.344   3.173
    1SIL  O04Ux25484   0.629   3.291   3.354
    1SIL  O04Uy25485   0.874   3.094   3.226
    1SIL  O04Uz25486   1.061   3.041   3.407
    1SIL  O04V025487   1.014   3.229   3.588
    1SIL  Si2FW25488   0.622   3.631   3.109
    1SIL  Si2FX25489   0.376   3.605   3.471
    1SIL  Si2FY25490   0.722   3.405   3.290
    1SIL  O04V125491   0.522   3.581   3.535
    1SIL  O04V225492   0.569   3.769   3.173
    1SIL  O04V325493   0.383   3.716   3.354
    1SIL  O04V425494   0.629   3.520   3.226
    1SIL  O04V525495   0.815   3.467   3.407
    1SIL  O04V625496   0.768   3.655   3.588
    1SIL  Si2FZ25497   0.376   4.057   3.109
    1SIL  Si2Fa25498   0.131   4.030   3.471
    1SIL  Si2Fb25499   0.476   3.831   3.290
    1SIL  O04V725500   0.276   4.007   3.535
    1SIL  O04V825501   0.324   4.195   3.173
    1SIL  O04V925502   0.137   4.142   3.354
    1SIL  O04VA25503   0.383   3.945   3.226
    1SIL  O04VB25504   0.569   3.892   3.407
    1SIL  O04VC25505   0.522   4.081   3.588
    1SIL  Si2Fc25506   0.131   4.483   3.109
    1SIL  Si2Fd25507   9.715   4.456   3.471
    1SIL  Si2Fe25508   0.230   4.256   3.290
    1SIL  O04VD25509   0.031   4.432   3.535
    1SIL  O04VE25510   0.078   4.621   3.173
    1SIL  O04VF25511   9.721   4.568   3.354
    1SIL  O04VG25512   0.137   4.371   3.226
    1SIL  O04VH25513   0.324   4.318   3.407
    1SIL  O04VI25514   0.276   4.506   3.588
    1SIL  Si2Ff25515   9.715   4.908   3.109
    1SIL  Si2Fg25516   9.469   4.882   3.471
    1SIL  Si2Fh25517   9.815   4.682   3.290
    1SIL  O04VJ25518   9.615   4.858   3.535
    1SIL  O04VK25519   9.662   5.046   3.173
    1SIL  O04VL25520   9.475   4.993   3.354
    1SIL  O04VM25521   9.721   4.797   3.226
    1SIL  O04VN25522   0.078   4.744   3.407
    1SIL  O04VO25523   0.031   4.932   3.588
    1SIL  Si2Fi25524   9.469   5.334   3.109
    1SIL  Si2Fj25525   9.223   5.307   3.471
    1SIL  Si2Fk25526   9.569   5.108   3.290
    1SIL  O04VP25527   9.369   5.284   3.535
    1SIL  O04VQ25528   9.416   5.472   3.173
    1SIL  O04VR25529   9.230   5.419   3.354
    1SIL  O04VS25530   9.475   5.222   3.226
    1SIL  O04VT25531   9.662   5.169   3.407
    1SIL  O04VU25532   9.615   5.357   3.588
    1SIL  Si2Fl25533   9.223   5.759   3.109
    1SIL  Si2Fm25534   8.977   5.733   3.471
    1SIL  Si2Fn25535   9.323   5.533   3.290
    1SIL  O04VV25536   9.123   5.709   3.535
    1SIL  O04VW25537   9.171   5.898   3.173
    1SIL  O04VX25538   8.984   5.844   3.354
    1SIL  O04VY25539   9.230   5.648   3.226
    1SIL  O04VZ25540   9.416   5.595   3.407
    1SIL  O04Va25541   9.369   5.783   3.588
    1SIL  Si2Fo25542   8.977   6.185   3.109
    1SIL  Si2Fp25543   8.732   6.159   3.471
    1SIL  Si2Fq25544   9.077   5.959   3.290
    1SIL  O04Vb25545   8.878   6.135   3.535
    1SIL  O04Vc25546   8.925   6.323   3.173
    1SIL  O04Vd25547   8.738   6.270   3.354
    1SIL  O04Ve25548   8.984   6.074   3.226
    1SIL  O04Vf25549   9.171   6.020   3.407
    1SIL  O04Vg25550   9.123   6.209   3.588
    1SIL  Si2Fr25551   8.732   6.611   3.109
    1SIL  Si2Fs25552   8.486   6.584   3.471
    1SIL  Si2Ft25553   8.832   6.385   3.290
    1SIL  O04Vh25554   8.632   6.561   3.535
    1SIL  O04Vi25555   8.679   6.749   3.173
    1SIL  O04Vj25556   8.492   6.696   3.354
    1SIL  O04Vk25557   8.738   6.499   3.226
    1SIL  O04Vl25558   8.925   6.446   3.407
    1SIL  O04Vm25559   8.878   6.634   3.588
    1SIL  Si2Fu25560   8.486   7.036   3.109
    1SIL  Si2Fv25561   8.240   7.010   3.471
    1SIL  Si2Fw25562   8.586   6.810   3.290
    1SIL  O04Vn25563   8.386   6.986   3.535
    1SIL  O04Vo25564   8.433   7.175   3.173
    1SIL  O04Vp25565   8.247   7.121   3.354
    1SIL  O04Vq25566   8.492   6.925   3.226
    1SIL  O04Vr25567   8.679   6.872   3.407
    1SIL  O04Vs25568   8.632   7.060   3.588
    1SIL  Si2Fx25569   8.240   7.462   3.109
    1SIL  Si2Fy25570   7.994   7.436   3.471
    1SIL  Si2Fz25571   8.340   7.236   3.290
    1SIL  O04Vt25572   8.140   7.412   3.535
    1SIL  O04Vu25573   8.188   7.600   3.173
    1SIL  O04Vv25574   8.001   7.547   3.354
    1SIL  O04Vw25575   8.247   7.351   3.226
    1SIL  O04Vx25576   8.433   7.297   3.407
    1SIL  O04Vy25577   8.386   7.486   3.588
    1SIL  Si2G025578   7.994   7.888   3.109
    1SIL  Si2G125579   7.749   7.861   3.471
    1SIL  Si2G225580   8.094   7.662   3.290
    1SIL  O04Vz25581   7.895   7.838   3.535
    1SIL  O04W025582   7.942   8.026   3.173
    1SIL  O04W125583   7.755   7.973   3.354
    1SIL  O04W225584   8.001   7.776   3.226
    1SIL  O04W325585   8.188   7.723   3.407
    1SIL  O04W425586   8.140   7.911   3.588
    1SIL  Si2G325587   7.749   8.313   3.109
    1SIL  Si2G425588   7.503   8.287   3.471
    1SIL  Si2G525589   7.849   8.087   3.290
    1SIL  O04W525590   7.649   8.263   3.535
    1SIL  O04W625591   7.696   8.452   3.173
    1SIL  O04W725592   7.509   8.398   3.354
    1SIL  O04W825593   7.755   8.202   3.226
    1SIL  O04W925594   7.942   8.149   3.407
    1SIL  O04WA25595   7.895   8.337   3.588
    1SIL  Si2G625596   7.503   8.739   3.109
    1SIL  Si2G725597   7.257   8.713   3.471
    1SIL  Si2G825598   7.603   8.513   3.290
    1SIL  O04WB25599   7.403   8.689   3.535
    1SIL  O04WC25600   7.450   8.877   3.173
    1SIL  O04WD25601   7.264   8.824   3.354
    1SIL  O04WE25602   7.509   8.628   3.226
    1SIL  O04WF25603   7.696   8.574   3.407
    1SIL  O04WG25604   7.649   8.763   3.588
    1SIL  Si2G925605   7.257   9.165   3.109
    1SIL  Si2GA25606   7.011   9.138   3.471
    1SIL  Si2GB25607   7.357   8.939   3.290
    1SIL  O04WH25608   7.157   9.115   3.535
    1SIL  O04WI25609   7.205   9.303   3.173
    1SIL  O04WJ25610   7.018   9.250   3.354
    1SIL  O04WK25611   7.264   9.053   3.226
    1SIL  O04WL25612   7.450   9.000   3.407
    1SIL  O04WM25613   7.403   9.188   3.588
    1SIL  Si2GC25614   7.011   9.590   3.109
    1SIL  Si2GD25615   6.766   9.564   3.471
    1SIL  Si2GE25616   7.111   9.364   3.290
    1SIL  O04WN25617   6.912   9.540   3.535
    1SIL  O04WO25618   6.959   9.729   3.173
    1SIL  O04WP25619   6.772   9.675   3.354
    1SIL  O04WQ25620   7.018   9.479   3.226
    1SIL  O04WR25621   7.205   9.426   3.407
    1SIL  O04WS25622   7.157   9.614   3.588
    1SIL  Si2GF25623   3.079   0.226   3.109
    1SIL  Si2GG25624   2.834   0.200   3.471
    1SIL  Si2GH25625   3.179   0.000   3.290
    1SIL  O04WT25626   2.980   0.176   3.535
    1SIL  O04WU25627   3.027   0.364   3.173
    1SIL  O04WV25628   2.840   0.311   3.354
    1SIL  O04WW25629   3.086   0.115   3.226
    1SIL  O04WX25630   3.273   0.061   3.407
    1SIL  O04WY25631   3.225   0.250   3.588
    1SIL  Si2GI25632   2.834   0.652   3.109
    1SIL  Si2GJ25633   2.588   0.625   3.471
    1SIL  Si2GK25634   2.934   0.426   3.290
    1SIL  O04WZ25635   2.734   0.602   3.535
    1SIL  O04Wa25636   2.781   0.790   3.173
    1SIL  O04Wb25637   2.595   0.737   3.354
    1SIL  O04Wc25638   2.840   0.540   3.226
    1SIL  O04Wd25639   3.027   0.487   3.407
    1SIL  O04We25640   2.980   0.675   3.588
    1SIL  Si2GL25641   2.588   1.077   3.109
    1SIL  Si2GM25642   2.342   1.051   3.471
    1SIL  Si2GN25643   2.688   0.851   3.290
    1SIL  O04Wf25644   2.488   1.027   3.535
    1SIL  O04Wg25645   2.535   1.216   3.173
    1SIL  O04Wh25646   2.349   1.162   3.354
    1SIL  O04Wi25647   2.595   0.966   3.226
    1SIL  O04Wj25648   2.781   0.913   3.407
    1SIL  O04Wk25649   2.734   1.101   3.588
    1SIL  Si2GO25650   2.342   1.503   3.109
    1SIL  Si2GP25651   2.097   1.477   3.471
    1SIL  Si2GQ25652   2.442   1.277   3.290
    1SIL  O04Wl25653   2.242   1.453   3.535
    1SIL  O04Wm25654   2.290   1.641   3.173
    1SIL  O04Wn25655   2.103   1.588   3.354
    1SIL  O04Wo25656   2.349   1.392   3.226
    1SIL  O04Wp25657   2.535   1.338   3.407
    1SIL  O04Wq25658   2.488   1.527   3.588
    1SIL  Si2GR25659   2.097   1.929   3.109
    1SIL  Si2GS25660   1.851   1.902   3.471
    1SIL  Si2GT25661   2.196   1.703   3.290
    1SIL  O04Wr25662   1.997   1.879   3.535
    1SIL  O04Ws25663   2.044   2.067   3.173
    1SIL  O04Wt25664   1.857   2.014   3.354
    1SIL  O04Wu25665   2.103   1.817   3.226
    1SIL  O04Wv25666   2.290   1.764   3.407
    1SIL  O04Ww25667   2.242   1.952   3.588
    1SIL  Si2GU25668   1.851   2.354   3.109
    1SIL  Si2GV25669   1.605   2.328   3.471
    1SIL  Si2GW25670   1.951   2.128   3.290
    1SIL  O04Wx25671   1.751   2.304   3.535
    1SIL  O04Wy25672   1.798   2.493   3.173
    1SIL  O04Wz25673   1.612   2.439   3.354
    1SIL  O04X025674   1.857   2.243   3.226
    1SIL  O04X125675   2.044   2.190   3.407
    1SIL  O04X225676   1.997   2.378   3.588
    1SIL  Si2GX25677   1.605   2.780   3.109
    1SIL  Si2GY25678   1.359   2.753   3.471
    1SIL  Si2GZ25679   1.705   2.554   3.290
    1SIL  O04X325680   1.505   2.730   3.535
    1SIL  O04X425681   1.552   2.918   3.173
    1SIL  O04X525682   1.366   2.865   3.354
    1SIL  O04X625683   1.612   2.668   3.226
    1SIL  O04X725684   1.798   2.615   3.407
    1SIL  O04X825685   1.751   2.804   3.588
    1SIL  Si2Ga25686   1.359   3.206   3.109
    1SIL  Si2Gb25687   1.114   3.179   3.471
    1SIL  Si2Gc25688   1.459   2.980   3.290
    1SIL  O04X925689   1.259   3.156   3.535
    1SIL  O04XA25690   1.307   3.344   3.173
    1SIL  O04XB25691   1.120   3.291   3.354
    1SIL  O04XC25692   1.366   3.094   3.226
    1SIL  O04XD25693   1.552   3.041   3.407
    1SIL  O04XE25694   1.505   3.229   3.588
    1SIL  Si2Gd25695   1.114   3.631   3.109
    1SIL  Si2Ge25696   0.868   3.605   3.471
    1SIL  Si2Gf25697   1.213   3.405   3.290
    1SIL  O04XF25698   1.014   3.581   3.535
    1SIL  O04XG25699   1.061   3.769   3.173
    1SIL  O04XH25700   0.874   3.716   3.354
    1SIL  O04XI25701   1.120   3.520   3.226
    1SIL  O04XJ25702   1.307   3.467   3.407
    1SIL  O04XK25703   1.259   3.655   3.588
    1SIL  Si2Gg25704   0.868   4.057   3.109
    1SIL  Si2Gh25705   0.622   4.030   3.471
    1SIL  Si2Gi25706   0.968   3.831   3.290
    1SIL  O04XL25707   0.768   4.007   3.535
    1SIL  O04XM25708   0.815   4.195   3.173
    1SIL  O04XN25709   0.629   4.142   3.354
    1SIL  O04XO25710   0.874   3.945   3.226
    1SIL  O04XP25711   1.061   3.892   3.407
    1SIL  O04XQ25712   1.014   4.081   3.588
    1SIL  Si2Gj25713   0.622   4.483   3.109
    1SIL  Si2Gk25714   0.376   4.456   3.471
    1SIL  Si2Gl25715   0.722   4.256   3.290
    1SIL  O04XR25716   0.522   4.432   3.535
    1SIL  O04XS25717   0.569   4.621   3.173
    1SIL  O04XT25718   0.383   4.568   3.354
    1SIL  O04XU25719   0.629   4.371   3.226
    1SIL  O04XV25720   0.815   4.318   3.407
    1SIL  O04XW25721   0.768   4.506   3.588
    1SIL  Si2Gm25722   0.376   4.908   3.109
    1SIL  Si2Gn25723   0.131   4.882   3.471
    1SIL  Si2Go25724   0.476   4.682   3.290
    1SIL  O04XX25725   0.276   4.858   3.535
    1SIL  O04XY25726   0.324   5.046   3.173
    1SIL  O04XZ25727   0.137   4.993   3.354
    1SIL  O04Xa25728   0.383   4.797   3.226
    1SIL  O04Xb25729   0.569   4.744   3.407
    1SIL  O04Xc25730   0.522   4.932   3.588
    1SIL  Si2Gp25731   0.131   5.334   3.109
    1SIL  Si2Gq25732   9.715   5.307   3.471
    1SIL  Si2Gr25733   0.230   5.108   3.290
    1SIL  O04Xd25734   0.031   5.284   3.535
    1SIL  O04Xe25735   0.078   5.472   3.173
    1SIL  O04Xf25736   9.721   5.419   3.354
    1SIL  O04Xg25737   0.137   5.222   3.226
    1SIL  O04Xh25738   0.324   5.169   3.407
    1SIL  O04Xi25739   0.276   5.357   3.588
    1SIL  Si2Gs25740   9.715   5.759   3.109
    1SIL  Si2Gt25741   9.469   5.733   3.471
    1SIL  Si2Gu25742   9.815   5.533   3.290
    1SIL  O04Xj25743   9.615   5.709   3.535
    1SIL  O04Xk25744   9.662   5.898   3.173
    1SIL  O04Xl25745   9.475   5.844   3.354
    1SIL  O04Xm25746   9.721   5.648   3.226
    1SIL  O04Xn25747   0.078   5.595   3.407
    1SIL  O04Xo25748   0.031   5.783   3.588
    1SIL  Si2Gv25749   9.469   6.185   3.109
    1SIL  Si2Gw25750   9.223   6.159   3.471
    1SIL  Si2Gx25751   9.569   5.959   3.290
    1SIL  O04Xp25752   9.369   6.135   3.535
    1SIL  O04Xq25753   9.416   6.323   3.173
    1SIL  O04Xr25754   9.230   6.270   3.354
    1SIL  O04Xs25755   9.475   6.074   3.226
    1SIL  O04Xt25756   9.662   6.020   3.407
    1SIL  O04Xu25757   9.615   6.209   3.588
    1SIL  Si2Gy25758   9.223   6.611   3.109
    1SIL  Si2Gz25759   8.977   6.584   3.471
    1SIL  Si2H025760   9.323   6.385   3.290
    1SIL  O04Xv25761   9.123   6.561   3.535
    1SIL  O04Xw25762   9.171   6.749   3.173
    1SIL  O04Xx25763   8.984   6.696   3.354
    1SIL  O04Xy25764   9.230   6.499   3.226
    1SIL  O04Xz25765   9.416   6.446   3.407
    1SIL  O04Y025766   9.369   6.634   3.588
    1SIL  Si2H125767   8.977   7.036   3.109
    1SIL  Si2H225768   8.732   7.010   3.471
    1SIL  Si2H325769   9.077   6.810   3.290
    1SIL  O04Y125770   8.878   6.986   3.535
    1SIL  O04Y225771   8.925   7.175   3.173
    1SIL  O04Y325772   8.738   7.121   3.354
    1SIL  O04Y425773   8.984   6.925   3.226
    1SIL  O04Y525774   9.171   6.872   3.407
    1SIL  O04Y625775   9.123   7.060   3.588
    1SIL  Si2H425776   8.732   7.462   3.109
    1SIL  Si2H525777   8.486   7.436   3.471
    1SIL  Si2H625778   8.832   7.236   3.290
    1SIL  O04Y725779   8.632   7.412   3.535
    1SIL  O04Y825780   8.679   7.600   3.173
    1SIL  O04Y925781   8.492   7.547   3.354
    1SIL  O04YA25782   8.738   7.351   3.226
    1SIL  O04YB25783   8.925   7.297   3.407
    1SIL  O04YC25784   8.878   7.486   3.588
    1SIL  Si2H725785   8.486   7.888   3.109
    1SIL  Si2H825786   8.240   7.861   3.471
    1SIL  Si2H925787   8.586   7.662   3.290
    1SIL  O04YD25788   8.386   7.838   3.535
    1SIL  O04YE25789   8.433   8.026   3.173
    1SIL  O04YF25790   8.247   7.973   3.354
    1SIL  O04YG25791   8.492   7.776   3.226
    1SIL  O04YH25792   8.679   7.723   3.407
    1SIL  O04YI25793   8.632   7.911   3.588
    1SIL  Si2HA25794   8.240   8.313   3.109
    1SIL  Si2HB25795   7.994   8.287   3.471
    1SIL  Si2HC25796   8.340   8.087   3.290
    1SIL  O04YJ25797   8.140   8.263   3.535
    1SIL  O04YK25798   8.188   8.452   3.173
    1SIL  O04YL25799   8.001   8.398   3.354
    1SIL  O04YM25800   8.247   8.202   3.226
    1SIL  O04YN25801   8.433   8.149   3.407
    1SIL  O04YO25802   8.386   8.337   3.588
    1SIL  Si2HD25803   7.994   8.739   3.109
    1SIL  Si2HE25804   7.749   8.713   3.471
    1SIL  Si2HF25805   8.094   8.513   3.290
    1SIL  O04YP25806   7.895   8.689   3.535
    1SIL  O04YQ25807   7.942   8.877   3.173
    1SIL  O04YR25808   7.755   8.824   3.354
    1SIL  O04YS25809   8.001   8.628   3.226
    1SIL  O04YT25810   8.188   8.574   3.407
    1SIL  O04YU25811   8.140   8.763   3.588
    1SIL  Si2HG25812   7.749   9.165   3.109
    1SIL  Si2HH25813   7.503   9.138   3.471
    1SIL  Si2HI25814   7.849   8.939   3.290
    1SIL  O04YV25815   7.649   9.115   3.535
    1SIL  O04YW25816   7.696   9.303   3.173
    1SIL  O04YX25817   7.509   9.250   3.354
    1SIL  O04YY25818   7.755   9.053   3.226
    1SIL  O04YZ25819   7.942   9.000   3.407
    1SIL  O04Ya25820   7.895   9.188   3.588
    1SIL  Si2HJ25821   7.503   9.590   3.109
    1SIL  Si2HK25822   7.257   9.564   3.471
    1SIL  Si2HL25823   7.603   9.364   3.290
    1SIL  O04Yb25824   7.403   9.540   3.535
    1SIL  O04Yc25825   7.450   9.729   3.173
    1SIL  O04Yd25826   7.264   9.675   3.354
    1SIL  O04Ye25827   7.509   9.479   3.226
    1SIL  O04Yf25828   7.696   9.426   3.407
    1SIL  O04Yg25829   7.649   9.614   3.588
    1SIL  Si2HM25830   3.571   0.226   3.109
    1SIL  Si2HN25831   3.325   0.200   3.471
    1SIL  Si2HO25832   3.671   0.000   3.290
    1SIL  O04Yh25833   3.471   0.176   3.535
    1SIL  O04Yi25834   3.518   0.364   3.173
    1SIL  O04Yj25835   3.332   0.311   3.354
    1SIL  O04Yk25836   3.577   0.115   3.226
    1SIL  O04Yl25837   3.764   0.061   3.407
    1SIL  O04Ym25838   3.717   0.250   3.588
    1SIL  Si2HP25839   3.325   0.652   3.109
    1SIL  Si2HQ25840   3.079   0.625   3.471
    1SIL  Si2HR25841   3.425   0.426   3.290
    1SIL  O04Yn25842   3.225   0.602   3.535
    1SIL  O04Yo25843   3.273   0.790   3.173
    1SIL  O04Yp25844   3.086   0.737   3.354
    1SIL  O04Yq25845   3.332   0.540   3.226
    1SIL  O04Yr25846   3.518   0.487   3.407
    1SIL  O04Ys25847   3.471   0.675   3.588
    1SIL  Si2HS25848   3.079   1.077   3.109
    1SIL  Si2HT25849   2.834   1.051   3.471
    1SIL  Si2HU25850   3.179   0.851   3.290
    1SIL  O04Yt25851   2.980   1.027   3.535
    1SIL  O04Yu25852   3.027   1.216   3.173
    1SIL  O04Yv25853   2.840   1.162   3.354
    1SIL  O04Yw25854   3.086   0.966   3.226
    1SIL  O04Yx25855   3.273   0.913   3.407
    1SIL  O04Yy25856   3.225   1.101   3.588
    1SIL  Si2HV25857   2.834   1.503   3.109
    1SIL  Si2HW25858   2.588   1.477   3.471
    1SIL  Si2HX25859   2.934   1.277   3.290
    1SIL  O04Yz25860   2.734   1.453   3.535
    1SIL  O04Z025861   2.781   1.641   3.173
    1SIL  O04Z125862   2.595   1.588   3.354
    1SIL  O04Z225863   2.840   1.392   3.226
    1SIL  O04Z325864   3.027   1.338   3.407
    1SIL  O04Z425865   2.980   1.527   3.588
    1SIL  Si2HY25866   2.588   1.929   3.109
    1SIL  Si2HZ25867   2.342   1.902   3.471
    1SIL  Si2Ha25868   2.688   1.703   3.290
    1SIL  O04Z525869   2.488   1.879   3.535
    1SIL  O04Z625870   2.535   2.067   3.173
    1SIL  O04Z725871   2.349   2.014   3.354
    1SIL  O04Z825872   2.595   1.817   3.226
    1SIL  O04Z925873   2.781   1.764   3.407
    1SIL  O04ZA25874   2.734   1.952   3.588
    1SIL  Si2Hb25875   2.342   2.354   3.109
    1SIL  Si2Hc25876   2.097   2.328   3.471
    1SIL  Si2Hd25877   2.442   2.128   3.290
    1SIL  O04ZB25878   2.242   2.304   3.535
    1SIL  O04ZC25879   2.290   2.493   3.173
    1SIL  O04ZD25880   2.103   2.439   3.354
    1SIL  O04ZE25881   2.349   2.243   3.226
    1SIL  O04ZF25882   2.535   2.190   3.407
    1SIL  O04ZG25883   2.488   2.378   3.588
    1SIL  Si2He25884   2.097   2.780   3.109
    1SIL  Si2Hf25885   1.851   2.753   3.471
    1SIL  Si2Hg25886   2.196   2.554   3.290
    1SIL  O04ZH25887   1.997   2.730   3.535
    1SIL  O04ZI25888   2.044   2.918   3.173
    1SIL  O04ZJ25889   1.857   2.865   3.354
    1SIL  O04ZK25890   2.103   2.668   3.226
    1SIL  O04ZL25891   2.290   2.615   3.407
    1SIL  O04ZM25892   2.242   2.804   3.588
    1SIL  Si2Hh25893   1.851   3.206   3.109
    1SIL  Si2Hi25894   1.605   3.179   3.471
    1SIL  Si2Hj25895   1.951   2.980   3.290
    1SIL  O04ZN25896   1.751   3.156   3.535
    1SIL  O04ZO25897   1.798   3.344   3.173
    1SIL  O04ZP25898   1.612   3.291   3.354
    1SIL  O04ZQ25899   1.857   3.094   3.226
    1SIL  O04ZR25900   2.044   3.041   3.407
    1SIL  O04ZS25901   1.997   3.229   3.588
    1SIL  Si2Hk25902   1.605   3.631   3.109
    1SIL  Si2Hl25903   1.359   3.605   3.471
    1SIL  Si2Hm25904   1.705   3.405   3.290
    1SIL  O04ZT25905   1.505   3.581   3.535
    1SIL  O04ZU25906   1.552   3.769   3.173
    1SIL  O04ZV25907   1.366   3.716   3.354
    1SIL  O04ZW25908   1.612   3.520   3.226
    1SIL  O04ZX25909   1.798   3.467   3.407
    1SIL  O04ZY25910   1.751   3.655   3.588
    1SIL  Si2Hn25911   1.359   4.057   3.109
    1SIL  Si2Ho25912   1.114   4.030   3.471
    1SIL  Si2Hp25913   1.459   3.831   3.290
    1SIL  O04ZZ25914   1.259   4.007   3.535
    1SIL  O04Za25915   1.307   4.195   3.173
    1SIL  O04Zb25916   1.120   4.142   3.354
    1SIL  O04Zc25917   1.366   3.945   3.226
    1SIL  O04Zd25918   1.552   3.892   3.407
    1SIL  O04Ze25919   1.505   4.081   3.588
    1SIL  Si2Hq25920   1.114   4.483   3.109
    1SIL  Si2Hr25921   0.868   4.456   3.471
    1SIL  Si2Hs25922   1.213   4.256   3.290
    1SIL  O04Zf25923   1.014   4.432   3.535
    1SIL  O04Zg25924   1.061   4.621   3.173
    1SIL  O04Zh25925   0.874   4.568   3.354
    1SIL  O04Zi25926   1.120   4.371   3.226
    1SIL  O04Zj25927   1.307   4.318   3.407
    1SIL  O04Zk25928   1.259   4.506   3.588
    1SIL  Si2Ht25929   0.868   4.908   3.109
    1SIL  Si2Hu25930   0.622   4.882   3.471
    1SIL  Si2Hv25931   0.968   4.682   3.290
    1SIL  O04Zl25932   0.768   4.858   3.535
    1SIL  O04Zm25933   0.815   5.046   3.173
    1SIL  O04Zn25934   0.629   4.993   3.354
    1SIL  O04Zo25935   0.874   4.797   3.226
    1SIL  O04Zp25936   1.061   4.744   3.407
    1SIL  O04Zq25937   1.014   4.932   3.588
    1SIL  Si2Hw25938   0.622   5.334   3.109
    1SIL  Si2Hx25939   0.376   5.307   3.471
    1SIL  Si2Hy25940   0.722   5.108   3.290
    1SIL  O04Zr25941   0.522   5.284   3.535
    1SIL  O04Zs25942   0.569   5.472   3.173
    1SIL  O04Zt25943   0.383   5.419   3.354
    1SIL  O04Zu25944   0.629   5.222   3.226
    1SIL  O04Zv25945   0.815   5.169   3.407
    1SIL  O04Zw25946   0.768   5.357   3.588
    1SIL  Si2Hz25947   0.376   5.759   3.109
    1SIL  Si2I025948   0.131   5.733   3.471
    1SIL  Si2I125949   0.476   5.533   3.290
    1SIL  O04Zx25950   0.276   5.709   3.535
    1SIL  O04Zy25951   0.324   5.898   3.173
    1SIL  O04Zz25952   0.137   5.844   3.354
    1SIL  O04a025953   0.383   5.648   3.226
    1SIL  O04a125954   0.569   5.595   3.407
    1SIL  O04a225955   0.522   5.783   3.588
    1SIL  Si2I225956   0.131   6.185   3.109
    1SIL  Si2I325957   9.715   6.159   3.471
    1SIL  Si2I425958   0.230   5.959   3.290
    1SIL  O04a325959   0.031   6.135   3.535
    1SIL  O04a425960   0.078   6.323   3.173
    1SIL  O04a525961   9.721   6.270   3.354
    1SIL  O04a625962   0.137   6.074   3.226
    1SIL  O04a725963   0.324   6.020   3.407
    1SIL  O04a825964   0.276   6.209   3.588
    1SIL  Si2I525965   9.715   6.611   3.109
    1SIL  Si2I625966   9.469   6.584   3.471
    1SIL  Si2I725967   9.815   6.385   3.290
    1SIL  O04a925968   9.615   6.561   3.535
    1SIL  O04aA25969   9.662   6.749   3.173
    1SIL  O04aB25970   9.475   6.696   3.354
    1SIL  O04aC25971   9.721   6.499   3.226
    1SIL  O04aD25972   0.078   6.446   3.407
    1SIL  O04aE25973   0.031   6.634   3.588
    1SIL  Si2I825974   9.469   7.036   3.109
    1SIL  Si2I925975   9.223   7.010   3.471
    1SIL  Si2IA25976   9.569   6.810   3.290
    1SIL  O04aF25977   9.369   6.986   3.535
    1SIL  O04aG25978   9.416   7.175   3.173
    1SIL  O04aH25979   9.230   7.121   3.354
    1SIL  O04aI25980   9.475   6.925   3.226
    1SIL  O04aJ25981   9.662   6.872   3.407
    1SIL  O04aK25982   9.615   7.060   3.588
    1SIL  Si2IB25983   9.223   7.462   3.109
    1SIL  Si2IC25984   8.977   7.436   3.471
    1SIL  Si2ID25985   9.323   7.236   3.290
    1SIL  O04aL25986   9.123   7.412   3.535
    1SIL  O04aM25987   9.171   7.600   3.173
    1SIL  O04aN25988   8.984   7.547   3.354
    1SIL  O04aO25989   9.230   7.351   3.226
    1SIL  O04aP25990   9.416   7.297   3.407
    1SIL  O04aQ25991   9.369   7.486   3.588
    1SIL  Si2IE25992   8.977   7.888   3.109
    1SIL  Si2IF25993   8.732   7.861   3.471
    1SIL  Si2IG25994   9.077   7.662   3.290
    1SIL  O04aR25995   8.878   7.838   3.535
    1SIL  O04aS25996   8.925   8.026   3.173
    1SIL  O04aT25997   8.738   7.973   3.354
    1SIL  O04aU25998   8.984   7.776   3.226
    1SIL  O04aV25999   9.171   7.723   3.407
    1SIL  O04aW26000   9.123   7.911   3.588
    1SIL  Si2IH26001   8.732   8.313   3.109
    1SIL  Si2II26002   8.486   8.287   3.471
    1SIL  Si2IJ26003   8.832   8.087   3.290
    1SIL  O04aX26004   8.632   8.263   3.535
    1SIL  O04aY26005   8.679   8.452   3.173
    1SIL  O04aZ26006   8.492   8.398   3.354
    1SIL  O04aa26007   8.738   8.202   3.226
    1SIL  O04ab26008   8.925   8.149   3.407
    1SIL  O04ac26009   8.878   8.337   3.588
    1SIL  Si2IK26010   8.486   8.739   3.109
    1SIL  Si2IL26011   8.240   8.713   3.471
    1SIL  Si2IM26012   8.586   8.513   3.290
    1SIL  O04ad26013   8.386   8.689   3.535
    1SIL  O04ae26014   8.433   8.877   3.173
    1SIL  O04af26015   8.247   8.824   3.354
    1SIL  O04ag26016   8.492   8.628   3.226
    1SIL  O04ah26017   8.679   8.574   3.407
    1SIL  O04ai26018   8.632   8.763   3.588
    1SIL  Si2IN26019   8.240   9.165   3.109
    1SIL  Si2IO26020   7.994   9.138   3.471
    1SIL  Si2IP26021   8.340   8.939   3.290
    1SIL  O04aj26022   8.140   9.115   3.535
    1SIL  O04ak26023   8.188   9.303   3.173
    1SIL  O04al26024   8.001   9.250   3.354
    1SIL  O04am26025   8.247   9.053   3.226
    1SIL  O04an26026   8.433   9.000   3.407
    1SIL  O04ao26027   8.386   9.188   3.588
    1SIL  Si2IQ26028   7.994   9.590   3.109
    1SIL  Si2IR26029   7.749   9.564   3.471
    1SIL  Si2IS26030   8.094   9.364   3.290
    1SIL  O04ap26031   7.895   9.540   3.535
    1SIL  O04aq26032   7.942   9.729   3.173
    1SIL  O04ar26033   7.755   9.675   3.354
    1SIL  O04as26034   8.001   9.479   3.226
    1SIL  O04at26035   8.188   9.426   3.407
    1SIL  O04au26036   8.140   9.614   3.588
    1SIL  Si2IT26037   4.062   0.226   3.109
    1SIL  Si2IU26038   3.817   0.200   3.471
    1SIL  Si2IV26039   4.162   0.000   3.290
    1SIL  O04av26040   3.963   0.176   3.535
    1SIL  O04aw26041   4.010   0.364   3.173
    1SIL  O04ax26042   3.823   0.311   3.354
    1SIL  O04ay26043   4.069   0.115   3.226
    1SIL  O04az26044   4.256   0.061   3.407
    1SIL  O04b026045   4.208   0.250   3.588
    1SIL  Si2IW26046   3.817   0.652   3.109
    1SIL  Si2IX26047   3.571   0.625   3.471
    1SIL  Si2IY26048   3.917   0.426   3.290
    1SIL  O04b126049   3.717   0.602   3.535
    1SIL  O04b226050   3.764   0.790   3.173
    1SIL  O04b326051   3.577   0.737   3.354
    1SIL  O04b426052   3.823   0.540   3.226
    1SIL  O04b526053   4.010   0.487   3.407
    1SIL  O04b626054   3.963   0.675   3.588
    1SIL  Si2IZ26055   3.571   1.077   3.109
    1SIL  Si2Ia26056   3.325   1.051   3.471
    1SIL  Si2Ib26057   3.671   0.851   3.290
    1SIL  O04b726058   3.471   1.027   3.535
    1SIL  O04b826059   3.518   1.216   3.173
    1SIL  O04b926060   3.332   1.162   3.354
    1SIL  O04bA26061   3.577   0.966   3.226
    1SIL  O04bB26062   3.764   0.913   3.407
    1SIL  O04bC26063   3.717   1.101   3.588
    1SIL  Si2Ic26064   3.325   1.503   3.109
    1SIL  Si2Id26065   3.079   1.477   3.471
    1SIL  Si2Ie26066   3.425   1.277   3.290
    1SIL  O04bD26067   3.225   1.453   3.535
    1SIL  O04bE26068   3.273   1.641   3.173
    1SIL  O04bF26069   3.086   1.588   3.354
    1SIL  O04bG26070   3.332   1.392   3.226
    1SIL  O04bH26071   3.518   1.338   3.407
    1SIL  O04bI26072   3.471   1.527   3.588
    1SIL  Si2If26073   3.079   1.929   3.109
    1SIL  Si2Ig26074   2.834   1.902   3.471
    1SIL  Si2Ih26075   3.179   1.703   3.290
    1SIL  O04bJ26076   2.980   1.879   3.535
    1SIL  O04bK26077   3.027   2.067   3.173
    1SIL  O04bL26078   2.840   2.014   3.354
    1SIL  O04bM26079   3.086   1.817   3.226
    1SIL  O04bN26080   3.273   1.764   3.407
    1SIL  O04bO26081   3.225   1.952   3.588
    1SIL  Si2Ii26082   2.834   2.354   3.109
    1SIL  Si2Ij26083   2.588   2.328   3.471
    1SIL  Si2Ik26084   2.934   2.128   3.290
    1SIL  O04bP26085   2.734   2.304   3.535
    1SIL  O04bQ26086   2.781   2.493   3.173
    1SIL  O04bR26087   2.595   2.439   3.354
    1SIL  O04bS26088   2.840   2.243   3.226
    1SIL  O04bT26089   3.027   2.190   3.407
    1SIL  O04bU26090   2.980   2.378   3.588
    1SIL  Si2Il26091   2.588   2.780   3.109
    1SIL  Si2Im26092   2.342   2.753   3.471
    1SIL  Si2In26093   2.688   2.554   3.290
    1SIL  O04bV26094   2.488   2.730   3.535
    1SIL  O04bW26095   2.535   2.918   3.173
    1SIL  O04bX26096   2.349   2.865   3.354
    1SIL  O04bY26097   2.595   2.668   3.226
    1SIL  O04bZ26098   2.781   2.615   3.407
    1SIL  O04ba26099   2.734   2.804   3.588
    1SIL  Si2Io26100   2.342   3.206   3.109
    1SIL  Si2Ip26101   2.097   3.179   3.471
    1SIL  Si2Iq26102   2.442   2.980   3.290
    1SIL  O04bb26103   2.242   3.156   3.535
    1SIL  O04bc26104   2.290   3.344   3.173
    1SIL  O04bd26105   2.103   3.291   3.354
    1SIL  O04be26106   2.349   3.094   3.226
    1SIL  O04bf26107   2.535   3.041   3.407
    1SIL  O04bg26108   2.488   3.229   3.588
    1SIL  Si2Ir26109   2.097   3.631   3.109
    1SIL  Si2Is26110   1.851   3.605   3.471
    1SIL  Si2It26111   2.196   3.405   3.290
    1SIL  O04bh26112   1.997   3.581   3.535
    1SIL  O04bi26113   2.044   3.769   3.173
    1SIL  O04bj26114   1.857   3.716   3.354
    1SIL  O04bk26115   2.103   3.520   3.226
    1SIL  O04bl26116   2.290   3.467   3.407
    1SIL  O04bm26117   2.242   3.655   3.588
    1SIL  Si2Iu26118   1.851   4.057   3.109
    1SIL  Si2Iv26119   1.605   4.030   3.471
    1SIL  Si2Iw26120   1.951   3.831   3.290
    1SIL  O04bn26121   1.751   4.007   3.535
    1SIL  O04bo26122   1.798   4.195   3.173
    1SIL  O04bp26123   1.612   4.142   3.354
    1SIL  O04bq26124   1.857   3.945   3.226
    1SIL  O04br26125   2.044   3.892   3.407
    1SIL  O04bs26126   1.997   4.081   3.588
    1SIL  Si2Ix26127   1.605   4.483   3.109
    1SIL  Si2Iy26128   1.359   4.456   3.471
    1SIL  Si2Iz26129   1.705   4.256   3.290
    1SIL  O04bt26130   1.505   4.432   3.535
    1SIL  O04bu26131   1.552   4.621   3.173
    1SIL  O04bv26132   1.366   4.568   3.354
    1SIL  O04bw26133   1.612   4.371   3.226
    1SIL  O04bx26134   1.798   4.318   3.407
    1SIL  O04by26135   1.751   4.506   3.588
    1SIL  Si2J026136   1.359   4.908   3.109
    1SIL  Si2J126137   1.114   4.882   3.471
    1SIL  Si2J226138   1.459   4.682   3.290
    1SIL  O04bz26139   1.259   4.858   3.535
    1SIL  O04c026140   1.307   5.046   3.173
    1SIL  O04c126141   1.120   4.993   3.354
    1SIL  O04c226142   1.366   4.797   3.226
    1SIL  O04c326143   1.552   4.744   3.407
    1SIL  O04c426144   1.505   4.932   3.588
    1SIL  Si2J326145   1.114   5.334   3.109
    1SIL  Si2J426146   0.868   5.307   3.471
    1SIL  Si2J526147   1.213   5.108   3.290
    1SIL  O04c526148   1.014   5.284   3.535
    1SIL  O04c626149   1.061   5.472   3.173
    1SIL  O04c726150   0.874   5.419   3.354
    1SIL  O04c826151   1.120   5.222   3.226
    1SIL  O04c926152   1.307   5.169   3.407
    1SIL  O04cA26153   1.259   5.357   3.588
    1SIL  Si2J626154   0.868   5.759   3.109
    1SIL  Si2J726155   0.622   5.733   3.471
    1SIL  Si2J826156   0.968   5.533   3.290
    1SIL  O04cB26157   0.768   5.709   3.535
    1SIL  O04cC26158   0.815   5.898   3.173
    1SIL  O04cD26159   0.629   5.844   3.354
    1SIL  O04cE26160   0.874   5.648   3.226
    1SIL  O04cF26161   1.061   5.595   3.407
    1SIL  O04cG26162   1.014   5.783   3.588
    1SIL  Si2J926163   0.622   6.185   3.109
    1SIL  Si2JA26164   0.376   6.159   3.471
    1SIL  Si2JB26165   0.722   5.959   3.290
    1SIL  O04cH26166   0.522   6.135   3.535
    1SIL  O04cI26167   0.569   6.323   3.173
    1SIL  O04cJ26168   0.383   6.270   3.354
    1SIL  O04cK26169   0.629   6.074   3.226
    1SIL  O04cL26170   0.815   6.020   3.407
    1SIL  O04cM26171   0.768   6.209   3.588
    1SIL  Si2JC26172   0.376   6.611   3.109
    1SIL  Si2JD26173   0.131   6.584   3.471
    1SIL  Si2JE26174   0.476   6.385   3.290
    1SIL  O04cN26175   0.276   6.561   3.535
    1SIL  O04cO26176   0.324   6.749   3.173
    1SIL  O04cP26177   0.137   6.696   3.354
    1SIL  O04cQ26178   0.383   6.499   3.226
    1SIL  O04cR26179   0.569   6.446   3.407
    1SIL  O04cS26180   0.522   6.634   3.588
    1SIL  Si2JF26181   0.131   7.036   3.109
    1SIL  Si2JG26182   9.715   7.010   3.471
    1SIL  Si2JH26183   0.230   6.810   3.290
    1SIL  O04cT26184   0.031   6.986   3.535
    1SIL  O04cU26185   0.078   7.175   3.173
    1SIL  O04cV26186   9.721   7.121   3.354
    1SIL  O04cW26187   0.137   6.925   3.226
    1SIL  O04cX26188   0.324   6.872   3.407
    1SIL  O04cY26189   0.276   7.060   3.588
    1SIL  Si2JI26190   9.715   7.462   3.109
    1SIL  Si2JJ26191   9.469   7.436   3.471
    1SIL  Si2JK26192   9.815   7.236   3.290
    1SIL  O04cZ26193   9.615   7.412   3.535
    1SIL  O04ca26194   9.662   7.600   3.173
    1SIL  O04cb26195   9.475   7.547   3.354
    1SIL  O04cc26196   9.721   7.351   3.226
    1SIL  O04cd26197   0.078   7.297   3.407
    1SIL  O04ce26198   0.031   7.486   3.588
    1SIL  Si2JL26199   9.469   7.888   3.109
    1SIL  Si2JM26200   9.223   7.861   3.471
    1SIL  Si2JN26201   9.569   7.662   3.290
    1SIL  O04cf26202   9.369   7.838   3.535
    1SIL  O04cg26203   9.416   8.026   3.173
    1SIL  O04ch26204   9.230   7.973   3.354
    1SIL  O04ci26205   9.475   7.776   3.226
    1SIL  O04cj26206   9.662   7.723   3.407
    1SIL  O04ck26207   9.615   7.911   3.588
    1SIL  Si2JO26208   9.223   8.313   3.109
    1SIL  Si2JP26209   8.977   8.287   3.471
    1SIL  Si2JQ26210   9.323   8.087   3.290
    1SIL  O04cl26211   9.123   8.263   3.535
    1SIL  O04cm26212   9.171   8.452   3.173
    1SIL  O04cn26213   8.984   8.398   3.354
    1SIL  O04co26214   9.230   8.202   3.226
    1SIL  O04cp26215   9.416   8.149   3.407
    1SIL  O04cq26216   9.369   8.337   3.588
    1SIL  Si2JR26217   8.977   8.739   3.109
    1SIL  Si2JS26218   8.732   8.713   3.471
    1SIL  Si2JT26219   9.077   8.513   3.290
    1SIL  O04cr26220   8.878   8.689   3.535
    1SIL  O04cs26221   8.925   8.877   3.173
    1SIL  O04ct26222   8.738   8.824   3.354
    1SIL  O04cu26223   8.984   8.628   3.226
    1SIL  O04cv26224   9.171   8.574   3.407
    1SIL  O04cw26225   9.123   8.763   3.588
    1SIL  Si2JU26226   8.732   9.165   3.109
    1SIL  Si2JV26227   8.486   9.138   3.471
    1SIL  Si2JW26228   8.832   8.939   3.290
    1SIL  O04cx26229   8.632   9.115   3.535
    1SIL  O04cy26230   8.679   9.303   3.173
    1SIL  O04cz26231   8.492   9.250   3.354
    1SIL  O04d026232   8.738   9.053   3.226
    1SIL  O04d126233   8.925   9.000   3.407
    1SIL  O04d226234   8.878   9.188   3.588
    1SIL  Si2JX26235   8.486   9.590   3.109
    1SIL  Si2JY26236   8.240   9.564   3.471
    1SIL  Si2JZ26237   8.586   9.364   3.290
    1SIL  O04d326238   8.386   9.540   3.535
    1SIL  O04d426239   8.433   9.729   3.173
    1SIL  O04d526240   8.247   9.675   3.354
    1SIL  O04d626241   8.492   9.479   3.226
    1SIL  O04d726242   8.679   9.426   3.407
    1SIL  O04d826243   8.632   9.614   3.588
    1SIL  Si2Ja26244   4.554   0.226   3.109
    1SIL  Si2Jb26245   4.308   0.200   3.471
    1SIL  Si2Jc26246   4.654   0.000   3.290
    1SIL  O04d926247   4.454   0.176   3.535
    1SIL  O04dA26248   4.501   0.364   3.173
    1SIL  O04dB26249   4.315   0.311   3.354
    1SIL  O04dC26250   4.560   0.115   3.226
    1SIL  O04dD26251   4.747   0.061   3.407
    1SIL  O04dE26252   4.700   0.250   3.588
    1SIL  Si2Jd26253   4.308   0.652   3.109
    1SIL  Si2Je26254   4.062   0.625   3.471
    1SIL  Si2Jf26255   4.408   0.426   3.290
    1SIL  O04dF26256   4.208   0.602   3.535
    1SIL  O04dG26257   4.256   0.790   3.173
    1SIL  O04dH26258   4.069   0.737   3.354
    1SIL  O04dI26259   4.315   0.540   3.226
    1SIL  O04dJ26260   4.501   0.487   3.407
    1SIL  O04dK26261   4.454   0.675   3.588
    1SIL  Si2Jg26262   4.062   1.077   3.109
    1SIL  Si2Jh26263   3.817   1.051   3.471
    1SIL  Si2Ji26264   4.162   0.851   3.290
    1SIL  O04dL26265   3.963   1.027   3.535
    1SIL  O04dM26266   4.010   1.216   3.173
    1SIL  O04dN26267   3.823   1.162   3.354
    1SIL  O04dO26268   4.069   0.966   3.226
    1SIL  O04dP26269   4.256   0.913   3.407
    1SIL  O04dQ26270   4.208   1.101   3.588
    1SIL  Si2Jj26271   3.817   1.503   3.109
    1SIL  Si2Jk26272   3.571   1.477   3.471
    1SIL  Si2Jl26273   3.917   1.277   3.290
    1SIL  O04dR26274   3.717   1.453   3.535
    1SIL  O04dS26275   3.764   1.641   3.173
    1SIL  O04dT26276   3.577   1.588   3.354
    1SIL  O04dU26277   3.823   1.392   3.226
    1SIL  O04dV26278   4.010   1.338   3.407
    1SIL  O04dW26279   3.963   1.527   3.588
    1SIL  Si2Jm26280   3.571   1.929   3.109
    1SIL  Si2Jn26281   3.325   1.902   3.471
    1SIL  Si2Jo26282   3.671   1.703   3.290
    1SIL  O04dX26283   3.471   1.879   3.535
    1SIL  O04dY26284   3.518   2.067   3.173
    1SIL  O04dZ26285   3.332   2.014   3.354
    1SIL  O04da26286   3.577   1.817   3.226
    1SIL  O04db26287   3.764   1.764   3.407
    1SIL  O04dc26288   3.717   1.952   3.588
    1SIL  Si2Jp26289   3.325   2.354   3.109
    1SIL  Si2Jq26290   3.079   2.328   3.471
    1SIL  Si2Jr26291   3.425   2.128   3.290
    1SIL  O04dd26292   3.225   2.304   3.535
    1SIL  O04de26293   3.273   2.493   3.173
    1SIL  O04df26294   3.086   2.439   3.354
    1SIL  O04dg26295   3.332   2.243   3.226
    1SIL  O04dh26296   3.518   2.190   3.407
    1SIL  O04di26297   3.471   2.378   3.588
    1SIL  Si2Js26298   3.079   2.780   3.109
    1SIL  Si2Jt26299   2.834   2.753   3.471
    1SIL  Si2Ju26300   3.179   2.554   3.290
    1SIL  O04dj26301   2.980   2.730   3.535
    1SIL  O04dk26302   3.027   2.918   3.173
    1SIL  O04dl26303   2.840   2.865   3.354
    1SIL  O04dm26304   3.086   2.668   3.226
    1SIL  O04dn26305   3.273   2.615   3.407
    1SIL  O04do26306   3.225   2.804   3.588
    1SIL  Si2Jv26307   2.834   3.206   3.109
    1SIL  Si2Jw26308   2.588   3.179   3.471
    1SIL  Si2Jx26309   2.934   2.980   3.290
    1SIL  O04dp26310   2.734   3.156   3.535
    1SIL  O04dq26311   2.781   3.344   3.173
    1SIL  O04dr26312   2.595   3.291   3.354
    1SIL  O04ds26313   2.840   3.094   3.226
    1SIL  O04dt26314   3.027   3.041   3.407
    1SIL  O04du26315   2.980   3.229   3.588
    1SIL  Si2Jy26316   2.588   3.631   3.109
    1SIL  Si2Jz26317   2.342   3.605   3.471
    1SIL  Si2K026318   2.688   3.405   3.290
    1SIL  O04dv26319   2.488   3.581   3.535
    1SIL  O04dw26320   2.535   3.769   3.173
    1SIL  O04dx26321   2.349   3.716   3.354
    1SIL  O04dy26322   2.595   3.520   3.226
    1SIL  O04dz26323   2.781   3.467   3.407
    1SIL  O04e026324   2.734   3.655   3.588
    1SIL  Si2K126325   2.342   4.057   3.109
    1SIL  Si2K226326   2.097   4.030   3.471
    1SIL  Si2K326327   2.442   3.831   3.290
    1SIL  O04e126328   2.242   4.007   3.535
    1SIL  O04e226329   2.290   4.195   3.173
    1SIL  O04e326330   2.103   4.142   3.354
    1SIL  O04e426331   2.349   3.945   3.226
    1SIL  O04e526332   2.535   3.892   3.407
    1SIL  O04e626333   2.488   4.081   3.588
    1SIL  Si2K426334   2.097   4.483   3.109
    1SIL  Si2K526335   1.851   4.456   3.471
    1SIL  Si2K626336   2.196   4.256   3.290
    1SIL  O04e726337   1.997   4.432   3.535
    1SIL  O04e826338   2.044   4.621   3.173
    1SIL  O04e926339   1.857   4.568   3.354
    1SIL  O04eA26340   2.103   4.371   3.226
    1SIL  O04eB26341   2.290   4.318   3.407
    1SIL  O04eC26342   2.242   4.506   3.588
    1SIL  Si2K726343   1.851   4.908   3.109
    1SIL  Si2K826344   1.605   4.882   3.471
    1SIL  Si2K926345   1.951   4.682   3.290
    1SIL  O04eD26346   1.751   4.858   3.535
    1SIL  O04eE26347   1.798   5.046   3.173
    1SIL  O04eF26348   1.612   4.993   3.354
    1SIL  O04eG26349   1.857   4.797   3.226
    1SIL  O04eH26350   2.044   4.744   3.407
    1SIL  O04eI26351   1.997   4.932   3.588
    1SIL  Si2KA26352   1.605   5.334   3.109
    1SIL  Si2KB26353   1.359   5.307   3.471
    1SIL  Si2KC26354   1.705   5.108   3.290
    1SIL  O04eJ26355   1.505   5.284   3.535
    1SIL  O04eK26356   1.552   5.472   3.173
    1SIL  O04eL26357   1.366   5.419   3.354
    1SIL  O04eM26358   1.612   5.222   3.226
    1SIL  O04eN26359   1.798   5.169   3.407
    1SIL  O04eO26360   1.751   5.357   3.588
    1SIL  Si2KD26361   1.359   5.759   3.109
    1SIL  Si2KE26362   1.114   5.733   3.471
    1SIL  Si2KF26363   1.459   5.533   3.290
    1SIL  O04eP26364   1.259   5.709   3.535
    1SIL  O04eQ26365   1.307   5.898   3.173
    1SIL  O04eR26366   1.120   5.844   3.354
    1SIL  O04eS26367   1.366   5.648   3.226
    1SIL  O04eT26368   1.552   5.595   3.407
    1SIL  O04eU26369   1.505   5.783   3.588
    1SIL  Si2KG26370   1.114   6.185   3.109
    1SIL  Si2KH26371   0.868   6.159   3.471
    1SIL  Si2KI26372   1.213   5.959   3.290
    1SIL  O04eV26373   1.014   6.135   3.535
    1SIL  O04eW26374   1.061   6.323   3.173
    1SIL  O04eX26375   0.874   6.270   3.354
    1SIL  O04eY26376   1.120   6.074   3.226
    1SIL  O04eZ26377   1.307   6.020   3.407
    1SIL  O04ea26378   1.259   6.209   3.588
    1SIL  Si2KJ26379   0.868   6.611   3.109
    1SIL  Si2KK26380   0.622   6.584   3.471
    1SIL  Si2KL26381   0.968   6.385   3.290
    1SIL  O04eb26382   0.768   6.561   3.535
    1SIL  O04ec26383   0.815   6.749   3.173
    1SIL  O04ed26384   0.629   6.696   3.354
    1SIL  O04ee26385   0.874   6.499   3.226
    1SIL  O04ef26386   1.061   6.446   3.407
    1SIL  O04eg26387   1.014   6.634   3.588
    1SIL  Si2KM26388   0.622   7.036   3.109
    1SIL  Si2KN26389   0.376   7.010   3.471
    1SIL  Si2KO26390   0.722   6.810   3.290
    1SIL  O04eh26391   0.522   6.986   3.535
    1SIL  O04ei26392   0.569   7.175   3.173
    1SIL  O04ej26393   0.383   7.121   3.354
    1SIL  O04ek26394   0.629   6.925   3.226
    1SIL  O04el26395   0.815   6.872   3.407
    1SIL  O04em26396   0.768   7.060   3.588
    1SIL  Si2KP26397   0.376   7.462   3.109
    1SIL  Si2KQ26398   0.131   7.436   3.471
    1SIL  Si2KR26399   0.476   7.236   3.290
    1SIL  O04en26400   0.276   7.412   3.535
    1SIL  O04eo26401   0.324   7.600   3.173
    1SIL  O04ep26402   0.137   7.547   3.354
    1SIL  O04eq26403   0.383   7.351   3.226
    1SIL  O04er26404   0.569   7.297   3.407
    1SIL  O04es26405   0.522   7.486   3.588
    1SIL  Si2KS26406   0.131   7.888   3.109
    1SIL  Si2KT26407   9.715   7.861   3.471
    1SIL  Si2KU26408   0.230   7.662   3.290
    1SIL  O04et26409   0.031   7.838   3.535
    1SIL  O04eu26410   0.078   8.026   3.173
    1SIL  O04ev26411   9.721   7.973   3.354
    1SIL  O04ew26412   0.137   7.776   3.226
    1SIL  O04ex26413   0.324   7.723   3.407
    1SIL  O04ey26414   0.276   7.911   3.588
    1SIL  Si2KV26415   9.715   8.313   3.109
    1SIL  Si2KW26416   9.469   8.287   3.471
    1SIL  Si2KX26417   9.815   8.087   3.290
    1SIL  O04ez26418   9.615   8.263   3.535
    1SIL  O04f026419   9.662   8.452   3.173
    1SIL  O04f126420   9.475   8.398   3.354
    1SIL  O04f226421   9.721   8.202   3.226
    1SIL  O04f326422   0.078   8.149   3.407
    1SIL  O04f426423   0.031   8.337   3.588
    1SIL  Si2KY26424   9.469   8.739   3.109
    1SIL  Si2KZ26425   9.223   8.713   3.471
    1SIL  Si2Ka26426   9.569   8.513   3.290
    1SIL  O04f526427   9.369   8.689   3.535
    1SIL  O04f626428   9.416   8.877   3.173
    1SIL  O04f726429   9.230   8.824   3.354
    1SIL  O04f826430   9.475   8.628   3.226
    1SIL  O04f926431   9.662   8.574   3.407
    1SIL  O04fA26432   9.615   8.763   3.588
    1SIL  Si2Kb26433   9.223   9.165   3.109
    1SIL  Si2Kc26434   8.977   9.138   3.471
    1SIL  Si2Kd26435   9.323   8.939   3.290
    1SIL  O04fB26436   9.123   9.115   3.535
    1SIL  O04fC26437   9.171   9.303   3.173
    1SIL  O04fD26438   8.984   9.250   3.354
    1SIL  O04fE26439   9.230   9.053   3.226
    1SIL  O04fF26440   9.416   9.000   3.407
    1SIL  O04fG26441   9.369   9.188   3.588
    1SIL  Si2Ke26442   8.977   9.590   3.109
    1SIL  Si2Kf26443   8.732   9.564   3.471
    1SIL  Si2Kg26444   9.077   9.364   3.290
    1SIL  O04fH26445   8.878   9.540   3.535
    1SIL  O04fI26446   8.925   9.729   3.173
    1SIL  O04fJ26447   8.738   9.675   3.354
    1SIL  O04fK26448   8.984   9.479   3.226
    1SIL  O04fL26449   9.171   9.426   3.407
    1SIL  O04fM26450   9.123   9.614   3.588
    1SIL  Si2Kh26451   5.045   0.226   3.109
    1SIL  Si2Ki26452   4.800   0.200   3.471
    1SIL  Si2Kj26453   5.145   0.000   3.290
    1SIL  O04fN26454   4.946   0.176   3.535
    1SIL  O04fO26455   4.993   0.364   3.173
    1SIL  O04fP26456   4.806   0.311   3.354
    1SIL  O04fQ26457   5.052   0.115   3.226
    1SIL  O04fR26458   5.239   0.061   3.407
    1SIL  O04fS26459   5.191   0.250   3.588
    1SIL  Si2Kk26460   4.800   0.652   3.109
    1SIL  Si2Kl26461   4.554   0.625   3.471
    1SIL  Si2Km26462   4.900   0.426   3.290
    1SIL  O04fT26463   4.700   0.602   3.535
    1SIL  O04fU26464   4.747   0.790   3.173
    1SIL  O04fV26465   4.560   0.737   3.354
    1SIL  O04fW26466   4.806   0.540   3.226
    1SIL  O04fX26467   4.993   0.487   3.407
    1SIL  O04fY26468   4.946   0.675   3.588
    1SIL  Si2Kn26469   4.554   1.077   3.109
    1SIL  Si2Ko26470   4.308   1.051   3.471
    1SIL  Si2Kp26471   4.654   0.851   3.290
    1SIL  O04fZ26472   4.454   1.027   3.535
    1SIL  O04fa26473   4.501   1.216   3.173
    1SIL  O04fb26474   4.315   1.162   3.354
    1SIL  O04fc26475   4.560   0.966   3.226
    1SIL  O04fd26476   4.747   0.913   3.407
    1SIL  O04fe26477   4.700   1.101   3.588
    1SIL  Si2Kq26478   4.308   1.503   3.109
    1SIL  Si2Kr26479   4.062   1.477   3.471
    1SIL  Si2Ks26480   4.408   1.277   3.290
    1SIL  O04ff26481   4.208   1.453   3.535
    1SIL  O04fg26482   4.256   1.641   3.173
    1SIL  O04fh26483   4.069   1.588   3.354
    1SIL  O04fi26484   4.315   1.392   3.226
    1SIL  O04fj26485   4.501   1.338   3.407
    1SIL  O04fk26486   4.454   1.527   3.588
    1SIL  Si2Kt26487   4.062   1.929   3.109
    1SIL  Si2Ku26488   3.817   1.902   3.471
    1SIL  Si2Kv26489   4.162   1.703   3.290
    1SIL  O04fl26490   3.963   1.879   3.535
    1SIL  O04fm26491   4.010   2.067   3.173
    1SIL  O04fn26492   3.823   2.014   3.354
    1SIL  O04fo26493   4.069   1.817   3.226
    1SIL  O04fp26494   4.256   1.764   3.407
    1SIL  O04fq26495   4.208   1.952   3.588
    1SIL  Si2Kw26496   3.817   2.354   3.109
    1SIL  Si2Kx26497   3.571   2.328   3.471
    1SIL  Si2Ky26498   3.917   2.128   3.290
    1SIL  O04fr26499   3.717   2.304   3.535
    1SIL  O04fs26500   3.764   2.493   3.173
    1SIL  O04ft26501   3.577   2.439   3.354
    1SIL  O04fu26502   3.823   2.243   3.226
    1SIL  O04fv26503   4.010   2.190   3.407
    1SIL  O04fw26504   3.963   2.378   3.588
    1SIL  Si2Kz26505   3.571   2.780   3.109
    1SIL  Si2L026506   3.325   2.753   3.471
    1SIL  Si2L126507   3.671   2.554   3.290
    1SIL  O04fx26508   3.471   2.730   3.535
    1SIL  O04fy26509   3.518   2.918   3.173
    1SIL  O04fz26510   3.332   2.865   3.354
    1SIL  O04g026511   3.577   2.668   3.226
    1SIL  O04g126512   3.764   2.615   3.407
    1SIL  O04g226513   3.717   2.804   3.588
    1SIL  Si2L226514   3.325   3.206   3.109
    1SIL  Si2L326515   3.079   3.179   3.471
    1SIL  Si2L426516   3.425   2.980   3.290
    1SIL  O04g326517   3.225   3.156   3.535
    1SIL  O04g426518   3.273   3.344   3.173
    1SIL  O04g526519   3.086   3.291   3.354
    1SIL  O04g626520   3.332   3.094   3.226
    1SIL  O04g726521   3.518   3.041   3.407
    1SIL  O04g826522   3.471   3.229   3.588
    1SIL  Si2L526523   3.079   3.631   3.109
    1SIL  Si2L626524   2.834   3.605   3.471
    1SIL  Si2L726525   3.179   3.405   3.290
    1SIL  O04g926526   2.980   3.581   3.535
    1SIL  O04gA26527   3.027   3.769   3.173
    1SIL  O04gB26528   2.840   3.716   3.354
    1SIL  O04gC26529   3.086   3.520   3.226
    1SIL  O04gD26530   3.273   3.467   3.407
    1SIL  O04gE26531   3.225   3.655   3.588
    1SIL  Si2L826532   2.834   4.057   3.109
    1SIL  Si2L926533   2.588   4.030   3.471
    1SIL  Si2LA26534   2.934   3.831   3.290
    1SIL  O04gF26535   2.734   4.007   3.535
    1SIL  O04gG26536   2.781   4.195   3.173
    1SIL  O04gH26537   2.595   4.142   3.354
    1SIL  O04gI26538   2.840   3.945   3.226
    1SIL  O04gJ26539   3.027   3.892   3.407
    1SIL  O04gK26540   2.980   4.081   3.588
    1SIL  Si2LB26541   2.588   4.483   3.109
    1SIL  Si2LC26542   2.342   4.456   3.471
    1SIL  Si2LD26543   2.688   4.256   3.290
    1SIL  O04gL26544   2.488   4.432   3.535
    1SIL  O04gM26545   2.535   4.621   3.173
    1SIL  O04gN26546   2.349   4.568   3.354
    1SIL  O04gO26547   2.595   4.371   3.226
    1SIL  O04gP26548   2.781   4.318   3.407
    1SIL  O04gQ26549   2.734   4.506   3.588
    1SIL  Si2LE26550   2.342   4.908   3.109
    1SIL  Si2LF26551   2.097   4.882   3.471
    1SIL  Si2LG26552   2.442   4.682   3.290
    1SIL  O04gR26553   2.242   4.858   3.535
    1SIL  O04gS26554   2.290   5.046   3.173
    1SIL  O04gT26555   2.103   4.993   3.354
    1SIL  O04gU26556   2.349   4.797   3.226
    1SIL  O04gV26557   2.535   4.744   3.407
    1SIL  O04gW26558   2.488   4.932   3.588
    1SIL  Si2LH26559   2.097   5.334   3.109
    1SIL  Si2LI26560   1.851   5.307   3.471
    1SIL  Si2LJ26561   2.196   5.108   3.290
    1SIL  O04gX26562   1.997   5.284   3.535
    1SIL  O04gY26563   2.044   5.472   3.173
    1SIL  O04gZ26564   1.857   5.419   3.354
    1SIL  O04ga26565   2.103   5.222   3.226
    1SIL  O04gb26566   2.290   5.169   3.407
    1SIL  O04gc26567   2.242   5.357   3.588
    1SIL  Si2LK26568   1.851   5.759   3.109
    1SIL  Si2LL26569   1.605   5.733   3.471
    1SIL  Si2LM26570   1.951   5.533   3.290
    1SIL  O04gd26571   1.751   5.709   3.535
    1SIL  O04ge26572   1.798   5.898   3.173
    1SIL  O04gf26573   1.612   5.844   3.354
    1SIL  O04gg26574   1.857   5.648   3.226
    1SIL  O04gh26575   2.044   5.595   3.407
    1SIL  O04gi26576   1.997   5.783   3.588
    1SIL  Si2LN26577   1.605   6.185   3.109
    1SIL  Si2LO26578   1.359   6.159   3.471
    1SIL  Si2LP26579   1.705   5.959   3.290
    1SIL  O04gj26580   1.505   6.135   3.535
    1SIL  O04gk26581   1.552   6.323   3.173
    1SIL  O04gl26582   1.366   6.270   3.354
    1SIL  O04gm26583   1.612   6.074   3.226
    1SIL  O04gn26584   1.798   6.020   3.407
    1SIL  O04go26585   1.751   6.209   3.588
    1SIL  Si2LQ26586   1.359   6.611   3.109
    1SIL  Si2LR26587   1.114   6.584   3.471
    1SIL  Si2LS26588   1.459   6.385   3.290
    1SIL  O04gp26589   1.259   6.561   3.535
    1SIL  O04gq26590   1.307   6.749   3.173
    1SIL  O04gr26591   1.120   6.696   3.354
    1SIL  O04gs26592   1.366   6.499   3.226
    1SIL  O04gt26593   1.552   6.446   3.407
    1SIL  O04gu26594   1.505   6.634   3.588
    1SIL  Si2LT26595   1.114   7.036   3.109
    1SIL  Si2LU26596   0.868   7.010   3.471
    1SIL  Si2LV26597   1.213   6.810   3.290
    1SIL  O04gv26598   1.014   6.986   3.535
    1SIL  O04gw26599   1.061   7.175   3.173
    1SIL  O04gx26600   0.874   7.121   3.354
    1SIL  O04gy26601   1.120   6.925   3.226
    1SIL  O04gz26602   1.307   6.872   3.407
    1SIL  O04h026603   1.259   7.060   3.588
    1SIL  Si2LW26604   0.868   7.462   3.109
    1SIL  Si2LX26605   0.622   7.436   3.471
    1SIL  Si2LY26606   0.968   7.236   3.290
    1SIL  O04h126607   0.768   7.412   3.535
    1SIL  O04h226608   0.815   7.600   3.173
    1SIL  O04h326609   0.629   7.547   3.354
    1SIL  O04h426610   0.874   7.351   3.226
    1SIL  O04h526611   1.061   7.297   3.407
    1SIL  O04h626612   1.014   7.486   3.588
    1SIL  Si2LZ26613   0.622   7.888   3.109
    1SIL  Si2La26614   0.376   7.861   3.471
    1SIL  Si2Lb26615   0.722   7.662   3.290
    1SIL  O04h726616   0.522   7.838   3.535
    1SIL  O04h826617   0.569   8.026   3.173
    1SIL  O04h926618   0.383   7.973   3.354
    1SIL  O04hA26619   0.629   7.776   3.226
    1SIL  O04hB26620   0.815   7.723   3.407
    1SIL  O04hC26621   0.768   7.911   3.588
    1SIL  Si2Lc26622   0.376   8.313   3.109
    1SIL  Si2Ld26623   0.131   8.287   3.471
    1SIL  Si2Le26624   0.476   8.087   3.290
    1SIL  O04hD26625   0.276   8.263   3.535
    1SIL  O04hE26626   0.324   8.452   3.173
    1SIL  O04hF26627   0.137   8.398   3.354
    1SIL  O04hG26628   0.383   8.202   3.226
    1SIL  O04hH26629   0.569   8.149   3.407
    1SIL  O04hI26630   0.522   8.337   3.588
    1SIL  Si2Lf26631   0.131   8.739   3.109
    1SIL  Si2Lg26632   9.715   8.713   3.471
    1SIL  Si2Lh26633   0.230   8.513   3.290
    1SIL  O04hJ26634   0.031   8.689   3.535
    1SIL  O04hK26635   0.078   8.877   3.173
    1SIL  O04hL26636   9.721   8.824   3.354
    1SIL  O04hM26637   0.137   8.628   3.226
    1SIL  O04hN26638   0.324   8.574   3.407
    1SIL  O04hO26639   0.276   8.763   3.588
    1SIL  Si2Li26640   9.715   9.165   3.109
    1SIL  Si2Lj26641   9.469   9.138   3.471
    1SIL  Si2Lk26642   9.815   8.939   3.290
    1SIL  O04hP26643   9.615   9.115   3.535
    1SIL  O04hQ26644   9.662   9.303   3.173
    1SIL  O04hR26645   9.475   9.250   3.354
    1SIL  O04hS26646   9.721   9.053   3.226
    1SIL  O04hT26647   0.078   9.000   3.407
    1SIL  O04hU26648   0.031   9.188   3.588
    1SIL  Si2Ll26649   9.469   9.590   3.109
    1SIL  Si2Lm26650   9.223   9.564   3.471
    1SIL  Si2Ln26651   9.569   9.364   3.290
    1SIL  O04hV26652   9.369   9.540   3.535
    1SIL  O04hW26653   9.416   9.729   3.173
    1SIL  O04hX26654   9.230   9.675   3.354
    1SIL  O04hY26655   9.475   9.479   3.226
    1SIL  O04hZ26656   9.662   9.426   3.407
    1SIL  O04ha26657   9.615   9.614   3.588
    1SIL  Si2Lo26658   5.537   0.226   3.109
    1SIL  Si2Lp26659   5.291   0.200   3.471
    1SIL  Si2Lq26660   5.637   0.000   3.290
    1SIL  O04hb26661   5.437   0.176   3.535
    1SIL  O04hc26662   5.484   0.364   3.173
    1SIL  O04hd26663   5.298   0.311   3.354
    1SIL  O04he26664   5.543   0.115   3.226
    1SIL  O04hf26665   5.730   0.061   3.407
    1SIL  O04hg26666   5.683   0.250   3.588
    1SIL  Si2Lr26667   5.291   0.652   3.109
    1SIL  Si2Ls26668   5.045   0.625   3.471
    1SIL  Si2Lt26669   5.391   0.426   3.290
    1SIL  O04hh26670   5.191   0.602   3.535
    1SIL  O04hi26671   5.239   0.790   3.173
    1SIL  O04hj26672   5.052   0.737   3.354
    1SIL  O04hk26673   5.298   0.540   3.226
    1SIL  O04hl26674   5.484   0.487   3.407
    1SIL  O04hm26675   5.437   0.675   3.588
    1SIL  Si2Lu26676   5.045   1.077   3.109
    1SIL  Si2Lv26677   4.800   1.051   3.471
    1SIL  Si2Lw26678   5.145   0.851   3.290
    1SIL  O04hn26679   4.946   1.027   3.535
    1SIL  O04ho26680   4.993   1.216   3.173
    1SIL  O04hp26681   4.806   1.162   3.354
    1SIL  O04hq26682   5.052   0.966   3.226
    1SIL  O04hr26683   5.239   0.913   3.407
    1SIL  O04hs26684   5.191   1.101   3.588
    1SIL  Si2Lx26685   4.800   1.503   3.109
    1SIL  Si2Ly26686   4.554   1.477   3.471
    1SIL  Si2Lz26687   4.900   1.277   3.290
    1SIL  O04ht26688   4.700   1.453   3.535
    1SIL  O04hu26689   4.747   1.641   3.173
    1SIL  O04hv26690   4.560   1.588   3.354
    1SIL  O04hw26691   4.806   1.392   3.226
    1SIL  O04hx26692   4.993   1.338   3.407
    1SIL  O04hy26693   4.946   1.527   3.588
    1SIL  Si2M026694   4.554   1.929   3.109
    1SIL  Si2M126695   4.308   1.902   3.471
    1SIL  Si2M226696   4.654   1.703   3.290
    1SIL  O04hz26697   4.454   1.879   3.535
    1SIL  O04i026698   4.501   2.067   3.173
    1SIL  O04i126699   4.315   2.014   3.354
    1SIL  O04i226700   4.560   1.817   3.226
    1SIL  O04i326701   4.747   1.764   3.407
    1SIL  O04i426702   4.700   1.952   3.588
    1SIL  Si2M326703   4.308   2.354   3.109
    1SIL  Si2M426704   4.062   2.328   3.471
    1SIL  Si2M526705   4.408   2.128   3.290
    1SIL  O04i526706   4.208   2.304   3.535
    1SIL  O04i626707   4.256   2.493   3.173
    1SIL  O04i726708   4.069   2.439   3.354
    1SIL  O04i826709   4.315   2.243   3.226
    1SIL  O04i926710   4.501   2.190   3.407
    1SIL  O04iA26711   4.454   2.378   3.588
    1SIL  Si2M626712   4.062   2.780   3.109
    1SIL  Si2M726713   3.817   2.753   3.471
    1SIL  Si2M826714   4.162   2.554   3.290
    1SIL  O04iB26715   3.963   2.730   3.535
    1SIL  O04iC26716   4.010   2.918   3.173
    1SIL  O04iD26717   3.823   2.865   3.354
    1SIL  O04iE26718   4.069   2.668   3.226
    1SIL  O04iF26719   4.256   2.615   3.407
    1SIL  O04iG26720   4.208   2.804   3.588
    1SIL  Si2M926721   3.817   3.206   3.109
    1SIL  Si2MA26722   3.571   3.179   3.471
    1SIL  Si2MB26723   3.917   2.980   3.290
    1SIL  O04iH26724   3.717   3.156   3.535
    1SIL  O04iI26725   3.764   3.344   3.173
    1SIL  O04iJ26726   3.577   3.291   3.354
    1SIL  O04iK26727   3.823   3.094   3.226
    1SIL  O04iL26728   4.010   3.041   3.407
    1SIL  O04iM26729   3.963   3.229   3.588
    1SIL  Si2MC26730   3.571   3.631   3.109
    1SIL  Si2MD26731   3.325   3.605   3.471
    1SIL  Si2ME26732   3.671   3.405   3.290
    1SIL  O04iN26733   3.471   3.581   3.535
    1SIL  O04iO26734   3.518   3.769   3.173
    1SIL  O04iP26735   3.332   3.716   3.354
    1SIL  O04iQ26736   3.577   3.520   3.226
    1SIL  O04iR26737   3.764   3.467   3.407
    1SIL  O04iS26738   3.717   3.655   3.588
    1SIL  Si2MF26739   3.325   4.057   3.109
    1SIL  Si2MG26740   3.079   4.030   3.471
    1SIL  Si2MH26741   3.425   3.831   3.290
    1SIL  O04iT26742   3.225   4.007   3.535
    1SIL  O04iU26743   3.273   4.195   3.173
    1SIL  O04iV26744   3.086   4.142   3.354
    1SIL  O04iW26745   3.332   3.945   3.226
    1SIL  O04iX26746   3.518   3.892   3.407
    1SIL  O04iY26747   3.471   4.081   3.588
    1SIL  Si2MI26748   3.079   4.483   3.109
    1SIL  Si2MJ26749   2.834   4.456   3.471
    1SIL  Si2MK26750   3.179   4.256   3.290
    1SIL  O04iZ26751   2.980   4.432   3.535
    1SIL  O04ia26752   3.027   4.621   3.173
    1SIL  O04ib26753   2.840   4.568   3.354
    1SIL  O04ic26754   3.086   4.371   3.226
    1SIL  O04id26755   3.273   4.318   3.407
    1SIL  O04ie26756   3.225   4.506   3.588
    1SIL  Si2ML26757   2.834   4.908   3.109
    1SIL  Si2MM26758   2.588   4.882   3.471
    1SIL  Si2MN26759   2.934   4.682   3.290
    1SIL  O04if26760   2.734   4.858   3.535
    1SIL  O04ig26761   2.781   5.046   3.173
    1SIL  O04ih26762   2.595   4.993   3.354
    1SIL  O04ii26763   2.840   4.797   3.226
    1SIL  O04ij26764   3.027   4.744   3.407
    1SIL  O04ik26765   2.980   4.932   3.588
    1SIL  Si2MO26766   2.588   5.334   3.109
    1SIL  Si2MP26767   2.342   5.307   3.471
    1SIL  Si2MQ26768   2.688   5.108   3.290
    1SIL  O04il26769   2.488   5.284   3.535
    1SIL  O04im26770   2.535   5.472   3.173
    1SIL  O04in26771   2.349   5.419   3.354
    1SIL  O04io26772   2.595   5.222   3.226
    1SIL  O04ip26773   2.781   5.169   3.407
    1SIL  O04iq26774   2.734   5.357   3.588
    1SIL  Si2MR26775   2.342   5.759   3.109
    1SIL  Si2MS26776   2.097   5.733   3.471
    1SIL  Si2MT26777   2.442   5.533   3.290
    1SIL  O04ir26778   2.242   5.709   3.535
    1SIL  O04is26779   2.290   5.898   3.173
    1SIL  O04it26780   2.103   5.844   3.354
    1SIL  O04iu26781   2.349   5.648   3.226
    1SIL  O04iv26782   2.535   5.595   3.407
    1SIL  O04iw26783   2.488   5.783   3.588
    1SIL  Si2MU26784   2.097   6.185   3.109
    1SIL  Si2MV26785   1.851   6.159   3.471
    1SIL  Si2MW26786   2.196   5.959   3.290
    1SIL  O04ix26787   1.997   6.135   3.535
    1SIL  O04iy26788   2.044   6.323   3.173
    1SIL  O04iz26789   1.857   6.270   3.354
    1SIL  O04j026790   2.103   6.074   3.226
    1SIL  O04j126791   2.290   6.020   3.407
    1SIL  O04j226792   2.242   6.209   3.588
    1SIL  Si2MX26793   1.851   6.611   3.109
    1SIL  Si2MY26794   1.605   6.584   3.471
    1SIL  Si2MZ26795   1.951   6.385   3.290
    1SIL  O04j326796   1.751   6.561   3.535
    1SIL  O04j426797   1.798   6.749   3.173
    1SIL  O04j526798   1.612   6.696   3.354
    1SIL  O04j626799   1.857   6.499   3.226
    1SIL  O04j726800   2.044   6.446   3.407
    1SIL  O04j826801   1.997   6.634   3.588
    1SIL  Si2Ma26802   1.605   7.036   3.109
    1SIL  Si2Mb26803   1.359   7.010   3.471
    1SIL  Si2Mc26804   1.705   6.810   3.290
    1SIL  O04j926805   1.505   6.986   3.535
    1SIL  O04jA26806   1.552   7.175   3.173
    1SIL  O04jB26807   1.366   7.121   3.354
    1SIL  O04jC26808   1.612   6.925   3.226
    1SIL  O04jD26809   1.798   6.872   3.407
    1SIL  O04jE26810   1.751   7.060   3.588
    1SIL  Si2Md26811   1.359   7.462   3.109
    1SIL  Si2Me26812   1.114   7.436   3.471
    1SIL  Si2Mf26813   1.459   7.236   3.290
    1SIL  O04jF26814   1.259   7.412   3.535
    1SIL  O04jG26815   1.307   7.600   3.173
    1SIL  O04jH26816   1.120   7.547   3.354
    1SIL  O04jI26817   1.366   7.351   3.226
    1SIL  O04jJ26818   1.552   7.297   3.407
    1SIL  O04jK26819   1.505   7.486   3.588
    1SIL  Si2Mg26820   1.114   7.888   3.109
    1SIL  Si2Mh26821   0.868   7.861   3.471
    1SIL  Si2Mi26822   1.213   7.662   3.290
    1SIL  O04jL26823   1.014   7.838   3.535
    1SIL  O04jM26824   1.061   8.026   3.173
    1SIL  O04jN26825   0.874   7.973   3.354
    1SIL  O04jO26826   1.120   7.776   3.226
    1SIL  O04jP26827   1.307   7.723   3.407
    1SIL  O04jQ26828   1.259   7.911   3.588
    1SIL  Si2Mj26829   0.868   8.313   3.109
    1SIL  Si2Mk26830   0.622   8.287   3.471
    1SIL  Si2Ml26831   0.968   8.087   3.290
    1SIL  O04jR26832   0.768   8.263   3.535
    1SIL  O04jS26833   0.815   8.452   3.173
    1SIL  O04jT26834   0.629   8.398   3.354
    1SIL  O04jU26835   0.874   8.202   3.226
    1SIL  O04jV26836   1.061   8.149   3.407
    1SIL  O04jW26837   1.014   8.337   3.588
    1SIL  Si2Mm26838   0.622   8.739   3.109
    1SIL  Si2Mn26839   0.376   8.713   3.471
    1SIL  Si2Mo26840   0.722   8.513   3.290
    1SIL  O04jX26841   0.522   8.689   3.535
    1SIL  O04jY26842   0.569   8.877   3.173
    1SIL  O04jZ26843   0.383   8.824   3.354
    1SIL  O04ja26844   0.629   8.628   3.226
    1SIL  O04jb26845   0.815   8.574   3.407
    1SIL  O04jc26846   0.768   8.763   3.588
    1SIL  Si2Mp26847   0.376   9.165   3.109
    1SIL  Si2Mq26848   0.131   9.138   3.471
    1SIL  Si2Mr26849   0.476   8.939   3.290
    1SIL  O04jd26850   0.276   9.115   3.535
    1SIL  O04je26851   0.324   9.303   3.173
    1SIL  O04jf26852   0.137   9.250   3.354
    1SIL  O04jg26853   0.383   9.053   3.226
    1SIL  O04jh26854   0.569   9.000   3.407
    1SIL  O04ji26855   0.522   9.188   3.588
    1SIL  Si2Ms26856   0.131   9.590   3.109
    1SIL  Si2Mt26857   9.715   9.564   3.471
    1SIL  Si2Mu26858   0.230   9.364   3.290
    1SIL  O04jj26859   0.031   9.540   3.535
    1SIL  O04jk26860   0.078   9.729   3.173
    1SIL  O04jl26861   9.721   9.675   3.354
    1SIL  O04jm26862   0.137   9.479   3.226
    1SIL  O04jn26863   0.324   9.426   3.407
    1SIL  O04jo26864   0.276   9.614   3.588
    1SIL  Si2Mv26865   6.028   0.226   3.109
    1SIL  Si2Mw26866   5.783   0.200   3.471
    1SIL  Si2Mx26867   6.128   0.000   3.290
    1SIL  O04jp26868   5.929   0.176   3.535
    1SIL  O04jq26869   5.976   0.364   3.173
    1SIL  O04jr26870   5.789   0.311   3.354
    1SIL  O04js26871   6.035   0.115   3.226
    1SIL  O04jt26872   6.222   0.061   3.407
    1SIL  O04ju26873   6.174   0.250   3.588
    1SIL  Si2My26874   5.783   0.652   3.109
    1SIL  Si2Mz26875   5.537   0.625   3.471
    1SIL  Si2N026876   5.883   0.426   3.290
    1SIL  O04jv26877   5.683   0.602   3.535
    1SIL  O04jw26878   5.730   0.790   3.173
    1SIL  O04jx26879   5.543   0.737   3.354
    1SIL  O04jy26880   5.789   0.540   3.226
    1SIL  O04jz26881   5.976   0.487   3.407
    1SIL  O04k026882   5.929   0.675   3.588
    1SIL  Si2N126883   5.537   1.077   3.109
    1SIL  Si2N226884   5.291   1.051   3.471
    1SIL  Si2N326885   5.637   0.851   3.290
    1SIL  O04k126886   5.437   1.027   3.535
    1SIL  O04k226887   5.484   1.216   3.173
    1SIL  O04k326888   5.298   1.162   3.354
    1SIL  O04k426889   5.543   0.966   3.226
    1SIL  O04k526890   5.730   0.913   3.407
    1SIL  O04k626891   5.683   1.101   3.588
    1SIL  Si2N426892   5.291   1.503   3.109
    1SIL  Si2N526893   5.045   1.477   3.471
    1SIL  Si2N626894   5.391   1.277   3.290
    1SIL  O04k726895   5.191   1.453   3.535
    1SIL  O04k826896   5.239   1.641   3.173
    1SIL  O04k926897   5.052   1.588   3.354
    1SIL  O04kA26898   5.298   1.392   3.226
    1SIL  O04kB26899   5.484   1.338   3.407
    1SIL  O04kC26900   5.437   1.527   3.588
    1SIL  Si2N726901   5.045   1.929   3.109
    1SIL  Si2N826902   4.800   1.902   3.471
    1SIL  Si2N926903   5.145   1.703   3.290
    1SIL  O04kD26904   4.946   1.879   3.535
    1SIL  O04kE26905   4.993   2.067   3.173
    1SIL  O04kF26906   4.806   2.014   3.354
    1SIL  O04kG26907   5.052   1.817   3.226
    1SIL  O04kH26908   5.239   1.764   3.407
    1SIL  O04kI26909   5.191   1.952   3.588
    1SIL  Si2NA26910   4.800   2.354   3.109
    1SIL  Si2NB26911   4.554   2.328   3.471
    1SIL  Si2NC26912   4.900   2.128   3.290
    1SIL  O04kJ26913   4.700   2.304   3.535
    1SIL  O04kK26914   4.747   2.493   3.173
    1SIL  O04kL26915   4.560   2.439   3.354
    1SIL  O04kM26916   4.806   2.243   3.226
    1SIL  O04kN26917   4.993   2.190   3.407
    1SIL  O04kO26918   4.946   2.378   3.588
    1SIL  Si2ND26919   4.554   2.780   3.109
    1SIL  Si2NE26920   4.308   2.753   3.471
    1SIL  Si2NF26921   4.654   2.554   3.290
    1SIL  O04kP26922   4.454   2.730   3.535
    1SIL  O04kQ26923   4.501   2.918   3.173
    1SIL  O04kR26924   4.315   2.865   3.354
    1SIL  O04kS26925   4.560   2.668   3.226
    1SIL  O04kT26926   4.747   2.615   3.407
    1SIL  O04kU26927   4.700   2.804   3.588
    1SIL  Si2NG26928   4.308   3.206   3.109
    1SIL  Si2NH26929   4.062   3.179   3.471
    1SIL  Si2NI26930   4.408   2.980   3.290
    1SIL  O04kV26931   4.208   3.156   3.535
    1SIL  O04kW26932   4.256   3.344   3.173
    1SIL  O04kX26933   4.069   3.291   3.354
    1SIL  O04kY26934   4.315   3.094   3.226
    1SIL  O04kZ26935   4.501   3.041   3.407
    1SIL  O04ka26936   4.454   3.229   3.588
    1SIL  Si2NJ26937   4.062   3.631   3.109
    1SIL  Si2NK26938   3.817   3.605   3.471
    1SIL  Si2NL26939   4.162   3.405   3.290
    1SIL  O04kb26940   3.963   3.581   3.535
    1SIL  O04kc26941   4.010   3.769   3.173
    1SIL  O04kd26942   3.823   3.716   3.354
    1SIL  O04ke26943   4.069   3.520   3.226
    1SIL  O04kf26944   4.256   3.467   3.407
    1SIL  O04kg26945   4.208   3.655   3.588
    1SIL  Si2NM26946   3.817   4.057   3.109
    1SIL  Si2NN26947   3.571   4.030   3.471
    1SIL  Si2NO26948   3.917   3.831   3.290
    1SIL  O04kh26949   3.717   4.007   3.535
    1SIL  O04ki26950   3.764   4.195   3.173
    1SIL  O04kj26951   3.577   4.142   3.354
    1SIL  O04kk26952   3.823   3.945   3.226
    1SIL  O04kl26953   4.010   3.892   3.407
    1SIL  O04km26954   3.963   4.081   3.588
    1SIL  Si2NP26955   3.571   4.483   3.109
    1SIL  Si2NQ26956   3.325   4.456   3.471
    1SIL  Si2NR26957   3.671   4.256   3.290
    1SIL  O04kn26958   3.471   4.432   3.535
    1SIL  O04ko26959   3.518   4.621   3.173
    1SIL  O04kp26960   3.332   4.568   3.354
    1SIL  O04kq26961   3.577   4.371   3.226
    1SIL  O04kr26962   3.764   4.318   3.407
    1SIL  O04ks26963   3.717   4.506   3.588
    1SIL  Si2NS26964   3.325   4.908   3.109
    1SIL  Si2NT26965   3.079   4.882   3.471
    1SIL  Si2NU26966   3.425   4.682   3.290
    1SIL  O04kt26967   3.225   4.858   3.535
    1SIL  O04ku26968   3.273   5.046   3.173
    1SIL  O04kv26969   3.086   4.993   3.354
    1SIL  O04kw26970   3.332   4.797   3.226
    1SIL  O04kx26971   3.518   4.744   3.407
    1SIL  O04ky26972   3.471   4.932   3.588
    1SIL  Si2NV26973   3.079   5.334   3.109
    1SIL  Si2NW26974   2.834   5.307   3.471
    1SIL  Si2NX26975   3.179   5.108   3.290
    1SIL  O04kz26976   2.980   5.284   3.535
    1SIL  O04l026977   3.027   5.472   3.173
    1SIL  O04l126978   2.840   5.419   3.354
    1SIL  O04l226979   3.086   5.222   3.226
    1SIL  O04l326980   3.273   5.169   3.407
    1SIL  O04l426981   3.225   5.357   3.588
    1SIL  Si2NY26982   2.834   5.759   3.109
    1SIL  Si2NZ26983   2.588   5.733   3.471
    1SIL  Si2Na26984   2.934   5.533   3.290
    1SIL  O04l526985   2.734   5.709   3.535
    1SIL  O04l626986   2.781   5.898   3.173
    1SIL  O04l726987   2.595   5.844   3.354
    1SIL  O04l826988   2.840   5.648   3.226
    1SIL  O04l926989   3.027   5.595   3.407
    1SIL  O04lA26990   2.980   5.783   3.588
    1SIL  Si2Nb26991   2.588   6.185   3.109
    1SIL  Si2Nc26992   2.342   6.159   3.471
    1SIL  Si2Nd26993   2.688   5.959   3.290
    1SIL  O04lB26994   2.488   6.135   3.535
    1SIL  O04lC26995   2.535   6.323   3.173
    1SIL  O04lD26996   2.349   6.270   3.354
    1SIL  O04lE26997   2.595   6.074   3.226
    1SIL  O04lF26998   2.781   6.020   3.407
    1SIL  O04lG26999   2.734   6.209   3.588
    1SIL  Si2Ne27000   2.342   6.611   3.109
    1SIL  Si2Nf27001   2.097   6.584   3.471
    1SIL  Si2Ng27002   2.442   6.385   3.290
    1SIL  O04lH27003   2.242   6.561   3.535
    1SIL  O04lI27004   2.290   6.749   3.173
    1SIL  O04lJ27005   2.103   6.696   3.354
    1SIL  O04lK27006   2.349   6.499   3.226
    1SIL  O04lL27007   2.535   6.446   3.407
    1SIL  O04lM27008   2.488   6.634   3.588
    1SIL  Si2Nh27009   2.097   7.036   3.109
    1SIL  Si2Ni27010   1.851   7.010   3.471
    1SIL  Si2Nj27011   2.196   6.810   3.290
    1SIL  O04lN27012   1.997   6.986   3.535
    1SIL  O04lO27013   2.044   7.175   3.173
    1SIL  O04lP27014   1.857   7.121   3.354
    1SIL  O04lQ27015   2.103   6.925   3.226
    1SIL  O04lR27016   2.290   6.872   3.407
    1SIL  O04lS27017   2.242   7.060   3.588
    1SIL  Si2Nk27018   1.851   7.462   3.109
    1SIL  Si2Nl27019   1.605   7.436   3.471
    1SIL  Si2Nm27020   1.951   7.236   3.290
    1SIL  O04lT27021   1.751   7.412   3.535
    1SIL  O04lU27022   1.798   7.600   3.173
    1SIL  O04lV27023   1.612   7.547   3.354
    1SIL  O04lW27024   1.857   7.351   3.226
    1SIL  O04lX27025   2.044   7.297   3.407
    1SIL  O04lY27026   1.997   7.486   3.588
    1SIL  Si2Nn27027   1.605   7.888   3.109
    1SIL  Si2No27028   1.359   7.861   3.471
    1SIL  Si2Np27029   1.705   7.662   3.290
    1SIL  O04lZ27030   1.505   7.838   3.535
    1SIL  O04la27031   1.552   8.026   3.173
    1SIL  O04lb27032   1.366   7.973   3.354
    1SIL  O04lc27033   1.612   7.776   3.226
    1SIL  O04ld27034   1.798   7.723   3.407
    1SIL  O04le27035   1.751   7.911   3.588
    1SIL  Si2Nq27036   1.359   8.313   3.109
    1SIL  Si2Nr27037   1.114   8.287   3.471
    1SIL  Si2Ns27038   1.459   8.087   3.290
    1SIL  O04lf27039   1.259   8.263   3.535
    1SIL  O04lg27040   1.307   8.452   3.173
    1SIL  O04lh27041   1.120   8.398   3.354
    1SIL  O04li27042   1.366   8.202   3.226
    1SIL  O04lj27043   1.552   8.149   3.407
    1SIL  O04lk27044   1.505   8.337   3.588
    1SIL  Si2Nt27045   1.114   8.739   3.109
    1SIL  Si2Nu27046   0.868   8.713   3.471
    1SIL  Si2Nv27047   1.213   8.513   3.290
    1SIL  O04ll27048   1.014   8.689   3.535
    1SIL  O04lm27049   1.061   8.877   3.173
    1SIL  O04ln27050   0.874   8.824   3.354
    1SIL  O04lo27051   1.120   8.628   3.226
    1SIL  O04lp27052   1.307   8.574   3.407
    1SIL  O04lq27053   1.259   8.763   3.588
    1SIL  Si2Nw27054   0.868   9.165   3.109
    1SIL  Si2Nx27055   0.622   9.138   3.471
    1SIL  Si2Ny27056   0.968   8.939   3.290
    1SIL  O04lr27057   0.768   9.115   3.535
    1SIL  O04ls27058   0.815   9.303   3.173
    1SIL  O04lt27059   0.629   9.250   3.354
    1SIL  O04lu27060   0.874   9.053   3.226
    1SIL  O04lv27061   1.061   9.000   3.407
    1SIL  O04lw27062   1.014   9.188   3.588
    1SIL  Si2Nz27063   0.622   9.590   3.109
    1SIL  Si2O027064   0.376   9.564   3.471
    1SIL  Si2O127065   0.722   9.364   3.290
    1SIL  O04lx27066   0.522   9.540   3.535
    1SIL  O04ly27067   0.569   9.729   3.173
    1SIL  O04lz27068   0.383   9.675   3.354
    1SIL  O04m027069   0.629   9.479   3.226
    1SIL  O04m127070   0.815   9.426   3.407
    1SIL  O04m227071   0.768   9.614   3.588
    1SIL  Si2O227072   6.520   0.226   3.109
    1SIL  Si2O327073   6.274   0.200   3.471
    1SIL  Si2O427074   6.620   0.000   3.290
    1SIL  O04m327075   6.420   0.176   3.535
    1SIL  O04m427076   6.467   0.364   3.173
    1SIL  O04m527077   6.281   0.311   3.354
    1SIL  O04m627078   6.526   0.115   3.226
    1SIL  O04m727079   6.713   0.061   3.407
    1SIL  O04m827080   6.666   0.250   3.588
    1SIL  Si2O527081   6.274   0.652   3.109
    1SIL  Si2O627082   6.028   0.625   3.471
    1SIL  Si2O727083   6.374   0.426   3.290
    1SIL  O04m927084   6.174   0.602   3.535
    1SIL  O04mA27085   6.222   0.790   3.173
    1SIL  O04mB27086   6.035   0.737   3.354
    1SIL  O04mC27087   6.281   0.540   3.226
    1SIL  O04mD27088   6.467   0.487   3.407
    1SIL  O04mE27089   6.420   0.675   3.588
    1SIL  Si2O827090   6.028   1.077   3.109
    1SIL  Si2O927091   5.783   1.051   3.471
    1SIL  Si2OA27092   6.128   0.851   3.290
    1SIL  O04mF27093   5.929   1.027   3.535
    1SIL  O04mG27094   5.976   1.216   3.173
    1SIL  O04mH27095   5.789   1.162   3.354
    1SIL  O04mI27096   6.035   0.966   3.226
    1SIL  O04mJ27097   6.222   0.913   3.407
    1SIL  O04mK27098   6.174   1.101   3.588
    1SIL  Si2OB27099   5.783   1.503   3.109
    1SIL  Si2OC27100   5.537   1.477   3.471
    1SIL  Si2OD27101   5.883   1.277   3.290
    1SIL  O04mL27102   5.683   1.453   3.535
    1SIL  O04mM27103   5.730   1.641   3.173
    1SIL  O04mN27104   5.543   1.588   3.354
    1SIL  O04mO27105   5.789   1.392   3.226
    1SIL  O04mP27106   5.976   1.338   3.407
    1SIL  O04mQ27107   5.929   1.527   3.588
    1SIL  Si2OE27108   5.537   1.929   3.109
    1SIL  Si2OF27109   5.291   1.902   3.471
    1SIL  Si2OG27110   5.637   1.703   3.290
    1SIL  O04mR27111   5.437   1.879   3.535
    1SIL  O04mS27112   5.484   2.067   3.173
    1SIL  O04mT27113   5.298   2.014   3.354
    1SIL  O04mU27114   5.543   1.817   3.226
    1SIL  O04mV27115   5.730   1.764   3.407
    1SIL  O04mW27116   5.683   1.952   3.588
    1SIL  Si2OH27117   5.291   2.354   3.109
    1SIL  Si2OI27118   5.045   2.328   3.471
    1SIL  Si2OJ27119   5.391   2.128   3.290
    1SIL  O04mX27120   5.191   2.304   3.535
    1SIL  O04mY27121   5.239   2.493   3.173
    1SIL  O04mZ27122   5.052   2.439   3.354
    1SIL  O04ma27123   5.298   2.243   3.226
    1SIL  O04mb27124   5.484   2.190   3.407
    1SIL  O04mc27125   5.437   2.378   3.588
    1SIL  Si2OK27126   5.045   2.780   3.109
    1SIL  Si2OL27127   4.800   2.753   3.471
    1SIL  Si2OM27128   5.145   2.554   3.290
    1SIL  O04md27129   4.946   2.730   3.535
    1SIL  O04me27130   4.993   2.918   3.173
    1SIL  O04mf27131   4.806   2.865   3.354
    1SIL  O04mg27132   5.052   2.668   3.226
    1SIL  O04mh27133   5.239   2.615   3.407
    1SIL  O04mi27134   5.191   2.804   3.588
    1SIL  Si2ON27135   4.800   3.206   3.109
    1SIL  Si2OO27136   4.554   3.179   3.471
    1SIL  Si2OP27137   4.900   2.980   3.290
    1SIL  O04mj27138   4.700   3.156   3.535
    1SIL  O04mk27139   4.747   3.344   3.173
    1SIL  O04ml27140   4.560   3.291   3.354
    1SIL  O04mm27141   4.806   3.094   3.226
    1SIL  O04mn27142   4.993   3.041   3.407
    1SIL  O04mo27143   4.946   3.229   3.588
    1SIL  Si2OQ27144   4.554   3.631   3.109
    1SIL  Si2OR27145   4.308   3.605   3.471
    1SIL  Si2OS27146   4.654   3.405   3.290
    1SIL  O04mp27147   4.454   3.581   3.535
    1SIL  O04mq27148   4.501   3.769   3.173
    1SIL  O04mr27149   4.315   3.716   3.354
    1SIL  O04ms27150   4.560   3.520   3.226
    1SIL  O04mt27151   4.747   3.467   3.407
    1SIL  O04mu27152   4.700   3.655   3.588
    1SIL  Si2OT27153   4.308   4.057   3.109
    1SIL  Si2OU27154   4.062   4.030   3.471
    1SIL  Si2OV27155   4.408   3.831   3.290
    1SIL  O04mv27156   4.208   4.007   3.535
    1SIL  O04mw27157   4.256   4.195   3.173
    1SIL  O04mx27158   4.069   4.142   3.354
    1SIL  O04my27159   4.315   3.945   3.226
    1SIL  O04mz27160   4.501   3.892   3.407
    1SIL  O04n027161   4.454   4.081   3.588
    1SIL  Si2OW27162   4.062   4.483   3.109
    1SIL  Si2OX27163   3.817   4.456   3.471
    1SIL  Si2OY27164   4.162   4.256   3.290
    1SIL  O04n127165   3.963   4.432   3.535
    1SIL  O04n227166   4.010   4.621   3.173
    1SIL  O04n327167   3.823   4.568   3.354
    1SIL  O04n427168   4.069   4.371   3.226
    1SIL  O04n527169   4.256   4.318   3.407
    1SIL  O04n627170   4.208   4.506   3.588
    1SIL  Si2OZ27171   3.817   4.908   3.109
    1SIL  Si2Oa27172   3.571   4.882   3.471
    1SIL  Si2Ob27173   3.917   4.682   3.290
    1SIL  O04n727174   3.717   4.858   3.535
    1SIL  O04n827175   3.764   5.046   3.173
    1SIL  O04n927176   3.577   4.993   3.354
    1SIL  O04nA27177   3.823   4.797   3.226
    1SIL  O04nB27178   4.010   4.744   3.407
    1SIL  O04nC27179   3.963   4.932   3.588
    1SIL  Si2Oc27180   3.571   5.334   3.109
    1SIL  Si2Od27181   3.325   5.307   3.471
    1SIL  Si2Oe27182   3.671   5.108   3.290
    1SIL  O04nD27183   3.471   5.284   3.535
    1SIL  O04nE27184   3.518   5.472   3.173
    1SIL  O04nF27185   3.332   5.419   3.354
    1SIL  O04nG27186   3.577   5.222   3.226
    1SIL  O04nH27187   3.764   5.169   3.407
    1SIL  O04nI27188   3.717   5.357   3.588
    1SIL  Si2Of27189   3.325   5.759   3.109
    1SIL  Si2Og27190   3.079   5.733   3.471
    1SIL  Si2Oh27191   3.425   5.533   3.290
    1SIL  O04nJ27192   3.225   5.709   3.535
    1SIL  O04nK27193   3.273   5.898   3.173
    1SIL  O04nL27194   3.086   5.844   3.354
    1SIL  O04nM27195   3.332   5.648   3.226
    1SIL  O04nN27196   3.518   5.595   3.407
    1SIL  O04nO27197   3.471   5.783   3.588
    1SIL  Si2Oi27198   3.079   6.185   3.109
    1SIL  Si2Oj27199   2.834   6.159   3.471
    1SIL  Si2Ok27200   3.179   5.959   3.290
    1SIL  O04nP27201   2.980   6.135   3.535
    1SIL  O04nQ27202   3.027   6.323   3.173
    1SIL  O04nR27203   2.840   6.270   3.354
    1SIL  O04nS27204   3.086   6.074   3.226
    1SIL  O04nT27205   3.273   6.020   3.407
    1SIL  O04nU27206   3.225   6.209   3.588
    1SIL  Si2Ol27207   2.834   6.611   3.109
    1SIL  Si2Om27208   2.588   6.584   3.471
    1SIL  Si2On27209   2.934   6.385   3.290
    1SIL  O04nV27210   2.734   6.561   3.535
    1SIL  O04nW27211   2.781   6.749   3.173
    1SIL  O04nX27212   2.595   6.696   3.354
    1SIL  O04nY27213   2.840   6.499   3.226
    1SIL  O04nZ27214   3.027   6.446   3.407
    1SIL  O04na27215   2.980   6.634   3.588
    1SIL  Si2Oo27216   2.588   7.036   3.109
    1SIL  Si2Op27217   2.342   7.010   3.471
    1SIL  Si2Oq27218   2.688   6.810   3.290
    1SIL  O04nb27219   2.488   6.986   3.535
    1SIL  O04nc27220   2.535   7.175   3.173
    1SIL  O04nd27221   2.349   7.121   3.354
    1SIL  O04ne27222   2.595   6.925   3.226
    1SIL  O04nf27223   2.781   6.872   3.407
    1SIL  O04ng27224   2.734   7.060   3.588
    1SIL  Si2Or27225   2.342   7.462   3.109
    1SIL  Si2Os27226   2.097   7.436   3.471
    1SIL  Si2Ot27227   2.442   7.236   3.290
    1SIL  O04nh27228   2.242   7.412   3.535
    1SIL  O04ni27229   2.290   7.600   3.173
    1SIL  O04nj27230   2.103   7.547   3.354
    1SIL  O04nk27231   2.349   7.351   3.226
    1SIL  O04nl27232   2.535   7.297   3.407
    1SIL  O04nm27233   2.488   7.486   3.588
    1SIL  Si2Ou27234   2.097   7.888   3.109
    1SIL  Si2Ov27235   1.851   7.861   3.471
    1SIL  Si2Ow27236   2.196   7.662   3.290
    1SIL  O04nn27237   1.997   7.838   3.535
    1SIL  O04no27238   2.044   8.026   3.173
    1SIL  O04np27239   1.857   7.973   3.354
    1SIL  O04nq27240   2.103   7.776   3.226
    1SIL  O04nr27241   2.290   7.723   3.407
    1SIL  O04ns27242   2.242   7.911   3.588
    1SIL  Si2Ox27243   1.851   8.313   3.109
    1SIL  Si2Oy27244   1.605   8.287   3.471
    1SIL  Si2Oz27245   1.951   8.087   3.290
    1SIL  O04nt27246   1.751   8.263   3.535
    1SIL  O04nu27247   1.798   8.452   3.173
    1SIL  O04nv27248   1.612   8.398   3.354
    1SIL  O04nw27249   1.857   8.202   3.226
    1SIL  O04nx27250   2.044   8.149   3.407
    1SIL  O04ny27251   1.997   8.337   3.588
    1SIL  Si2P027252   1.605   8.739   3.109
    1SIL  Si2P127253   1.359   8.713   3.471
    1SIL  Si2P227254   1.705   8.513   3.290
    1SIL  O04nz27255   1.505   8.689   3.535
    1SIL  O04o027256   1.552   8.877   3.173
    1SIL  O04o127257   1.366   8.824   3.354
    1SIL  O04o227258   1.612   8.628   3.226
    1SIL  O04o327259   1.798   8.574   3.407
    1SIL  O04o427260   1.751   8.763   3.588
    1SIL  Si2P327261   1.359   9.165   3.109
    1SIL  Si2P427262   1.114   9.138   3.471
    1SIL  Si2P527263   1.459   8.939   3.290
    1SIL  O04o527264   1.259   9.115   3.535
    1SIL  O04o627265   1.307   9.303   3.173
    1SIL  O04o727266   1.120   9.250   3.354
    1SIL  O04o827267   1.366   9.053   3.226
    1SIL  O04o927268   1.552   9.000   3.407
    1SIL  O04oA27269   1.505   9.188   3.588
    1SIL  Si2P627270   1.114   9.590   3.109
    1SIL  Si2P727271   0.868   9.564   3.471
    1SIL  Si2P827272   1.213   9.364   3.290
    1SIL  O04oB27273   1.014   9.540   3.535
    1SIL  O04oC27274   1.061   9.729   3.173
    1SIL  O04oD27275   0.874   9.675   3.354
    1SIL  O04oE27276   1.120   9.479   3.226
    1SIL  O04oF27277   1.307   9.426   3.407
    1SIL  O04oG27278   1.259   9.614   3.588
    1SIL  Si2P927279   7.011   0.226   3.109
    1SIL  Si2PA27280   6.766   0.200   3.471
    1SIL  Si2PB27281   7.111   0.000   3.290
    1SIL  O04oH27282   6.912   0.176   3.535
    1SIL  O04oI27283   6.959   0.364   3.173
    1SIL  O04oJ27284   6.772   0.311   3.354
    1SIL  O04oK27285   7.018   0.115   3.226
    1SIL  O04oL27286   7.205   0.061   3.407
    1SIL  O04oM27287   7.157   0.250   3.588
    1SIL  Si2PC27288   6.766   0.652   3.109
    1SIL  Si2PD27289   6.520   0.625   3.471
    1SIL  Si2PE27290   6.866   0.426   3.290
    1SIL  O04oN27291   6.666   0.602   3.535
    1SIL  O04oO27292   6.713   0.790   3.173
    1SIL  O04oP27293   6.526   0.737   3.354
    1SIL  O04oQ27294   6.772   0.540   3.226
    1SIL  O04oR27295   6.959   0.487   3.407
    1SIL  O04oS27296   6.912   0.675   3.588
    1SIL  Si2PF27297   6.520   1.077   3.109
    1SIL  Si2PG27298   6.274   1.051   3.471
    1SIL  Si2PH27299   6.620   0.851   3.290
    1SIL  O04oT27300   6.420   1.027   3.535
    1SIL  O04oU27301   6.467   1.216   3.173
    1SIL  O04oV27302   6.281   1.162   3.354
    1SIL  O04oW27303   6.526   0.966   3.226
    1SIL  O04oX27304   6.713   0.913   3.407
    1SIL  O04oY27305   6.666   1.101   3.588
    1SIL  Si2PI27306   6.274   1.503   3.109
    1SIL  Si2PJ27307   6.028   1.477   3.471
    1SIL  Si2PK27308   6.374   1.277   3.290
    1SIL  O04oZ27309   6.174   1.453   3.535
    1SIL  O04oa27310   6.222   1.641   3.173
    1SIL  O04ob27311   6.035   1.588   3.354
    1SIL  O04oc27312   6.281   1.392   3.226
    1SIL  O04od27313   6.467   1.338   3.407
    1SIL  O04oe27314   6.420   1.527   3.588
    1SIL  Si2PL27315   6.028   1.929   3.109
    1SIL  Si2PM27316   5.783   1.902   3.471
    1SIL  Si2PN27317   6.128   1.703   3.290
    1SIL  O04of27318   5.929   1.879   3.535
    1SIL  O04og27319   5.976   2.067   3.173
    1SIL  O04oh27320   5.789   2.014   3.354
    1SIL  O04oi27321   6.035   1.817   3.226
    1SIL  O04oj27322   6.222   1.764   3.407
    1SIL  O04ok27323   6.174   1.952   3.588
    1SIL  Si2PO27324   5.783   2.354   3.109
    1SIL  Si2PP27325   5.537   2.328   3.471
    1SIL  Si2PQ27326   5.883   2.128   3.290
    1SIL  O04ol27327   5.683   2.304   3.535
    1SIL  O04om27328   5.730   2.493   3.173
    1SIL  O04on27329   5.543   2.439   3.354
    1SIL  O04oo27330   5.789   2.243   3.226
    1SIL  O04op27331   5.976   2.190   3.407
    1SIL  O04oq27332   5.929   2.378   3.588
    1SIL  Si2PR27333   5.537   2.780   3.109
    1SIL  Si2PS27334   5.291   2.753   3.471
    1SIL  Si2PT27335   5.637   2.554   3.290
    1SIL  O04or27336   5.437   2.730   3.535
    1SIL  O04os27337   5.484   2.918   3.173
    1SIL  O04ot27338   5.298   2.865   3.354
    1SIL  O04ou27339   5.543   2.668   3.226
    1SIL  O04ov27340   5.730   2.615   3.407
    1SIL  O04ow27341   5.683   2.804   3.588
    1SIL  Si2PU27342   5.291   3.206   3.109
    1SIL  Si2PV27343   5.045   3.179   3.471
    1SIL  Si2PW27344   5.391   2.980   3.290
    1SIL  O04ox27345   5.191   3.156   3.535
    1SIL  O04oy27346   5.239   3.344   3.173
    1SIL  O04oz27347   5.052   3.291   3.354
    1SIL  O04p027348   5.298   3.094   3.226
    1SIL  O04p127349   5.484   3.041   3.407
    1SIL  O04p227350   5.437   3.229   3.588
    1SIL  Si2PX27351   5.045   3.631   3.109
    1SIL  Si2PY27352   4.800   3.605   3.471
    1SIL  Si2PZ27353   5.145   3.405   3.290
    1SIL  O04p327354   4.946   3.581   3.535
    1SIL  O04p427355   4.993   3.769   3.173
    1SIL  O04p527356   4.806   3.716   3.354
    1SIL  O04p627357   5.052   3.520   3.226
    1SIL  O04p727358   5.239   3.467   3.407
    1SIL  O04p827359   5.191   3.655   3.588
    1SIL  Si2Pa27360   4.800   4.057   3.109
    1SIL  Si2Pb27361   4.554   4.030   3.471
    1SIL  Si2Pc27362   4.900   3.831   3.290
    1SIL  O04p927363   4.700   4.007   3.535
    1SIL  O04pA27364   4.747   4.195   3.173
    1SIL  O04pB27365   4.560   4.142   3.354
    1SIL  O04pC27366   4.806   3.945   3.226
    1SIL  O04pD27367   4.993   3.892   3.407
    1SIL  O04pE27368   4.946   4.081   3.588
    1SIL  Si2Pd27369   4.554   4.483   3.109
    1SIL  Si2Pe27370   4.308   4.456   3.471
    1SIL  Si2Pf27371   4.654   4.256   3.290
    1SIL  O04pF27372   4.454   4.432   3.535
    1SIL  O04pG27373   4.501   4.621   3.173
    1SIL  O04pH27374   4.315   4.568   3.354
    1SIL  O04pI27375   4.560   4.371   3.226
    1SIL  O04pJ27376   4.747   4.318   3.407
    1SIL  O04pK27377   4.700   4.506   3.588
    1SIL  Si2Pg27378   4.308   4.908   3.109
    1SIL  Si2Ph27379   4.062   4.882   3.471
    1SIL  Si2Pi27380   4.408   4.682   3.290
    1SIL  O04pL27381   4.208   4.858   3.535
    1SIL  O04pM27382   4.256   5.046   3.173
    1SIL  O04pN27383   4.069   4.993   3.354
    1SIL  O04pO27384   4.315   4.797   3.226
    1SIL  O04pP27385   4.501   4.744   3.407
    1SIL  O04pQ27386   4.454   4.932   3.588
    1SIL  Si2Pj27387   4.062   5.334   3.109
    1SIL  Si2Pk27388   3.817   5.307   3.471
    1SIL  Si2Pl27389   4.162   5.108   3.290
    1SIL  O04pR27390   3.963   5.284   3.535
    1SIL  O04pS27391   4.010   5.472   3.173
    1SIL  O04pT27392   3.823   5.419   3.354
    1SIL  O04pU27393   4.069   5.222   3.226
    1SIL  O04pV27394   4.256   5.169   3.407
    1SIL  O04pW27395   4.208   5.357   3.588
    1SIL  Si2Pm27396   3.817   5.759   3.109
    1SIL  Si2Pn27397   3.571   5.733   3.471
    1SIL  Si2Po27398   3.917   5.533   3.290
    1SIL  O04pX27399   3.717   5.709   3.535
    1SIL  O04pY27400   3.764   5.898   3.173
    1SIL  O04pZ27401   3.577   5.844   3.354
    1SIL  O04pa27402   3.823   5.648   3.226
    1SIL  O04pb27403   4.010   5.595   3.407
    1SIL  O04pc27404   3.963   5.783   3.588
    1SIL  Si2Pp27405   3.571   6.185   3.109
    1SIL  Si2Pq27406   3.325   6.159   3.471
    1SIL  Si2Pr27407   3.671   5.959   3.290
    1SIL  O04pd27408   3.471   6.135   3.535
    1SIL  O04pe27409   3.518   6.323   3.173
    1SIL  O04pf27410   3.332   6.270   3.354
    1SIL  O04pg27411   3.577   6.074   3.226
    1SIL  O04ph27412   3.764   6.020   3.407
    1SIL  O04pi27413   3.717   6.209   3.588
    1SIL  Si2Ps27414   3.325   6.611   3.109
    1SIL  Si2Pt27415   3.079   6.584   3.471
    1SIL  Si2Pu27416   3.425   6.385   3.290
    1SIL  O04pj27417   3.225   6.561   3.535
    1SIL  O04pk27418   3.273   6.749   3.173
    1SIL  O04pl27419   3.086   6.696   3.354
    1SIL  O04pm27420   3.332   6.499   3.226
    1SIL  O04pn27421   3.518   6.446   3.407
    1SIL  O04po27422   3.471   6.634   3.588
    1SIL  Si2Pv27423   3.079   7.036   3.109
    1SIL  Si2Pw27424   2.834   7.010   3.471
    1SIL  Si2Px27425   3.179   6.810   3.290
    1SIL  O04pp27426   2.980   6.986   3.535
    1SIL  O04pq27427   3.027   7.175   3.173
    1SIL  O04pr27428   2.840   7.121   3.354
    1SIL  O04ps27429   3.086   6.925   3.226
    1SIL  O04pt27430   3.273   6.872   3.407
    1SIL  O04pu27431   3.225   7.060   3.588
    1SIL  Si2Py27432   2.834   7.462   3.109
    1SIL  Si2Pz27433   2.588   7.436   3.471
    1SIL  Si2Q027434   2.934   7.236   3.290
    1SIL  O04pv27435   2.734   7.412   3.535
    1SIL  O04pw27436   2.781   7.600   3.173
    1SIL  O04px27437   2.595   7.547   3.354
    1SIL  O04py27438   2.840   7.351   3.226
    1SIL  O04pz27439   3.027   7.297   3.407
    1SIL  O04q027440   2.980   7.486   3.588
    1SIL  Si2Q127441   2.588   7.888   3.109
    1SIL  Si2Q227442   2.342   7.861   3.471
    1SIL  Si2Q327443   2.688   7.662   3.290
    1SIL  O04q127444   2.488   7.838   3.535
    1SIL  O04q227445   2.535   8.026   3.173
    1SIL  O04q327446   2.349   7.973   3.354
    1SIL  O04q427447   2.595   7.776   3.226
    1SIL  O04q527448   2.781   7.723   3.407
    1SIL  O04q627449   2.734   7.911   3.588
    1SIL  Si2Q427450   2.342   8.313   3.109
    1SIL  Si2Q527451   2.097   8.287   3.471
    1SIL  Si2Q627452   2.442   8.087   3.290
    1SIL  O04q727453   2.242   8.263   3.535
    1SIL  O04q827454   2.290   8.452   3.173
    1SIL  O04q927455   2.103   8.398   3.354
    1SIL  O04qA27456   2.349   8.202   3.226
    1SIL  O04qB27457   2.535   8.149   3.407
    1SIL  O04qC27458   2.488   8.337   3.588
    1SIL  Si2Q727459   2.097   8.739   3.109
    1SIL  Si2Q827460   1.851   8.713   3.471
    1SIL  Si2Q927461   2.196   8.513   3.290
    1SIL  O04qD27462   1.997   8.689   3.535
    1SIL  O04qE27463   2.044   8.877   3.173
    1SIL  O04qF27464   1.857   8.824   3.354
    1SIL  O04qG27465   2.103   8.628   3.226
    1SIL  O04qH27466   2.290   8.574   3.407
    1SIL  O04qI27467   2.242   8.763   3.588
    1SIL  Si2QA27468   1.851   9.165   3.109
    1SIL  Si2QB27469   1.605   9.138   3.471
    1SIL  Si2QC27470   1.951   8.939   3.290
    1SIL  O04qJ27471   1.751   9.115   3.535
    1SIL  O04qK27472   1.798   9.303   3.173
    1SIL  O04qL27473   1.612   9.250   3.354
    1SIL  O04qM27474   1.857   9.053   3.226
    1SIL  O04qN27475   2.044   9.000   3.407
    1SIL  O04qO27476   1.997   9.188   3.588
    1SIL  Si2QD27477   1.605   9.590   3.109
    1SIL  Si2QE27478   1.359   9.564   3.471
    1SIL  Si2QF27479   1.705   9.364   3.290
    1SIL  O04qP27480   1.505   9.540   3.535
    1SIL  O04qQ27481   1.552   9.729   3.173
    1SIL  O04qR27482   1.366   9.675   3.354
    1SIL  O04qS27483   1.612   9.479   3.226
    1SIL  O04qT27484   1.798   9.426   3.407
    1SIL  O04qU27485   1.751   9.614   3.588
    1SIL  Si2QG27486   7.503   0.226   3.109
    1SIL  Si2QH27487   7.257   0.200   3.471
    1SIL  Si2QI27488   7.603   0.000   3.290
    1SIL  O04qV27489   7.403   0.176   3.535
    1SIL  O04qW27490   7.450   0.364   3.173
    1SIL  O04qX27491   7.264   0.311   3.354
    1SIL  O04qY27492   7.509   0.115   3.226
    1SIL  O04qZ27493   7.696   0.061   3.407
    1SIL  O04qa27494   7.649   0.250   3.588
    1SIL  Si2QJ27495   7.257   0.652   3.109
    1SIL  Si2QK27496   7.011   0.625   3.471
    1SIL  Si2QL27497   7.357   0.426   3.290
    1SIL  O04qb27498   7.157   0.602   3.535
    1SIL  O04qc27499   7.205   0.790   3.173
    1SIL  O04qd27500   7.018   0.737   3.354
    1SIL  O04qe27501   7.264   0.540   3.226
    1SIL  O04qf27502   7.450   0.487   3.407
    1SIL  O04qg27503   7.403   0.675   3.588
    1SIL  Si2QM27504   7.011   1.077   3.109
    1SIL  Si2QN27505   6.766   1.051   3.471
    1SIL  Si2QO27506   7.111   0.851   3.290
    1SIL  O04qh27507   6.912   1.027   3.535
    1SIL  O04qi27508   6.959   1.216   3.173
    1SIL  O04qj27509   6.772   1.162   3.354
    1SIL  O04qk27510   7.018   0.966   3.226
    1SIL  O04ql27511   7.205   0.913   3.407
    1SIL  O04qm27512   7.157   1.101   3.588
    1SIL  Si2QP27513   6.766   1.503   3.109
    1SIL  Si2QQ27514   6.520   1.477   3.471
    1SIL  Si2QR27515   6.866   1.277   3.290
    1SIL  O04qn27516   6.666   1.453   3.535
    1SIL  O04qo27517   6.713   1.641   3.173
    1SIL  O04qp27518   6.526   1.588   3.354
    1SIL  O04qq27519   6.772   1.392   3.226
    1SIL  O04qr27520   6.959   1.338   3.407
    1SIL  O04qs27521   6.912   1.527   3.588
    1SIL  Si2QS27522   6.520   1.929   3.109
    1SIL  Si2QT27523   6.274   1.902   3.471
    1SIL  Si2QU27524   6.620   1.703   3.290
    1SIL  O04qt27525   6.420   1.879   3.535
    1SIL  O04qu27526   6.467   2.067   3.173
    1SIL  O04qv27527   6.281   2.014   3.354
    1SIL  O04qw27528   6.526   1.817   3.226
    1SIL  O04qx27529   6.713   1.764   3.407
    1SIL  O04qy27530   6.666   1.952   3.588
    1SIL  Si2QV27531   6.274   2.354   3.109
    1SIL  Si2QW27532   6.028   2.328   3.471
    1SIL  Si2QX27533   6.374   2.128   3.290
    1SIL  O04qz27534   6.174   2.304   3.535
    1SIL  O04r027535   6.222   2.493   3.173
    1SIL  O04r127536   6.035   2.439   3.354
    1SIL  O04r227537   6.281   2.243   3.226
    1SIL  O04r327538   6.467   2.190   3.407
    1SIL  O04r427539   6.420   2.378   3.588
    1SIL  Si2QY27540   6.028   2.780   3.109
    1SIL  Si2QZ27541   5.783   2.753   3.471
    1SIL  Si2Qa27542   6.128   2.554   3.290
    1SIL  O04r527543   5.929   2.730   3.535
    1SIL  O04r627544   5.976   2.918   3.173
    1SIL  O04r727545   5.789   2.865   3.354
    1SIL  O04r827546   6.035   2.668   3.226
    1SIL  O04r927547   6.222   2.615   3.407
    1SIL  O04rA27548   6.174   2.804   3.588
    1SIL  Si2Qb27549   5.783   3.206   3.109
    1SIL  Si2Qc27550   5.537   3.179   3.471
    1SIL  Si2Qd27551   5.883   2.980   3.290
    1SIL  O04rB27552   5.683   3.156   3.535
    1SIL  O04rC27553   5.730   3.344   3.173
    1SIL  O04rD27554   5.543   3.291   3.354
    1SIL  O04rE27555   5.789   3.094   3.226
    1SIL  O04rF27556   5.976   3.041   3.407
    1SIL  O04rG27557   5.929   3.229   3.588
    1SIL  Si2Qe27558   5.537   3.631   3.109
    1SIL  Si2Qf27559   5.291   3.605   3.471
    1SIL  Si2Qg27560   5.637   3.405   3.290
    1SIL  O04rH27561   5.437   3.581   3.535
    1SIL  O04rI27562   5.484   3.769   3.173
    1SIL  O04rJ27563   5.298   3.716   3.354
    1SIL  O04rK27564   5.543   3.520   3.226
    1SIL  O04rL27565   5.730   3.467   3.407
    1SIL  O04rM27566   5.683   3.655   3.588
    1SIL  Si2Qh27567   5.291   4.057   3.109
    1SIL  Si2Qi27568   5.045   4.030   3.471
    1SIL  Si2Qj27569   5.391   3.831   3.290
    1SIL  O04rN27570   5.191   4.007   3.535
    1SIL  O04rO27571   5.239   4.195   3.173
    1SIL  O04rP27572   5.052   4.142   3.354
    1SIL  O04rQ27573   5.298   3.945   3.226
    1SIL  O04rR27574   5.484   3.892   3.407
    1SIL  O04rS27575   5.437   4.081   3.588
    1SIL  Si2Qk27576   5.045   4.483   3.109
    1SIL  Si2Ql27577   4.800   4.456   3.471
    1SIL  Si2Qm27578   5.145   4.256   3.290
    1SIL  O04rT27579   4.946   4.432   3.535
    1SIL  O04rU27580   4.993   4.621   3.173
    1SIL  O04rV27581   4.806   4.568   3.354
    1SIL  O04rW27582   5.052   4.371   3.226
    1SIL  O04rX27583   5.239   4.318   3.407
    1SIL  O04rY27584   5.191   4.506   3.588
    1SIL  Si2Qn27585   4.800   4.908   3.109
    1SIL  Si2Qo27586   4.554   4.882   3.471
    1SIL  Si2Qp27587   4.900   4.682   3.290
    1SIL  O04rZ27588   4.700   4.858   3.535
    1SIL  O04ra27589   4.747   5.046   3.173
    1SIL  O04rb27590   4.560   4.993   3.354
    1SIL  O04rc27591   4.806   4.797   3.226
    1SIL  O04rd27592   4.993   4.744   3.407
    1SIL  O04re27593   4.946   4.932   3.588
    1SIL  Si2Qq27594   4.554   5.334   3.109
    1SIL  Si2Qr27595   4.308   5.307   3.471
    1SIL  Si2Qs27596   4.654   5.108   3.290
    1SIL  O04rf27597   4.454   5.284   3.535
    1SIL  O04rg27598   4.501   5.472   3.173
    1SIL  O04rh27599   4.315   5.419   3.354
    1SIL  O04ri27600   4.560   5.222   3.226
    1SIL  O04rj27601   4.747   5.169   3.407
    1SIL  O04rk27602   4.700   5.357   3.588
    1SIL  Si2Qt27603   4.308   5.759   3.109
    1SIL  Si2Qu27604   4.062   5.733   3.471
    1SIL  Si2Qv27605   4.408   5.533   3.290
    1SIL  O04rl27606   4.208   5.709   3.535
    1SIL  O04rm27607   4.256   5.898   3.173
    1SIL  O04rn27608   4.069   5.844   3.354
    1SIL  O04ro27609   4.315   5.648   3.226
    1SIL  O04rp27610   4.501   5.595   3.407
    1SIL  O04rq27611   4.454   5.783   3.588
    1SIL  Si2Qw27612   4.062   6.185   3.109
    1SIL  Si2Qx27613   3.817   6.159   3.471
    1SIL  Si2Qy27614   4.162   5.959   3.290
    1SIL  O04rr27615   3.963   6.135   3.535
    1SIL  O04rs27616   4.010   6.323   3.173
    1SIL  O04rt27617   3.823   6.270   3.354
    1SIL  O04ru27618   4.069   6.074   3.226
    1SIL  O04rv27619   4.256   6.020   3.407
    1SIL  O04rw27620   4.208   6.209   3.588
    1SIL  Si2Qz27621   3.817   6.611   3.109
    1SIL  Si2R027622   3.571   6.584   3.471
    1SIL  Si2R127623   3.917   6.385   3.290
    1SIL  O04rx27624   3.717   6.561   3.535
    1SIL  O04ry27625   3.764   6.749   3.173
    1SIL  O04rz27626   3.577   6.696   3.354
    1SIL  O04s027627   3.823   6.499   3.226
    1SIL  O04s127628   4.010   6.446   3.407
    1SIL  O04s227629   3.963   6.634   3.588
    1SIL  Si2R227630   3.571   7.036   3.109
    1SIL  Si2R327631   3.325   7.010   3.471
    1SIL  Si2R427632   3.671   6.810   3.290
    1SIL  O04s327633   3.471   6.986   3.535
    1SIL  O04s427634   3.518   7.175   3.173
    1SIL  O04s527635   3.332   7.121   3.354
    1SIL  O04s627636   3.577   6.925   3.226
    1SIL  O04s727637   3.764   6.872   3.407
    1SIL  O04s827638   3.717   7.060   3.588
    1SIL  Si2R527639   3.325   7.462   3.109
    1SIL  Si2R627640   3.079   7.436   3.471
    1SIL  Si2R727641   3.425   7.236   3.290
    1SIL  O04s927642   3.225   7.412   3.535
    1SIL  O04sA27643   3.273   7.600   3.173
    1SIL  O04sB27644   3.086   7.547   3.354
    1SIL  O04sC27645   3.332   7.351   3.226
    1SIL  O04sD27646   3.518   7.297   3.407
    1SIL  O04sE27647   3.471   7.486   3.588
    1SIL  Si2R827648   3.079   7.888   3.109
    1SIL  Si2R927649   2.834   7.861   3.471
    1SIL  Si2RA27650   3.179   7.662   3.290
    1SIL  O04sF27651   2.980   7.838   3.535
    1SIL  O04sG27652   3.027   8.026   3.173
    1SIL  O04sH27653   2.840   7.973   3.354
    1SIL  O04sI27654   3.086   7.776   3.226
    1SIL  O04sJ27655   3.273   7.723   3.407
    1SIL  O04sK27656   3.225   7.911   3.588
    1SIL  Si2RB27657   2.834   8.313   3.109
    1SIL  Si2RC27658   2.588   8.287   3.471
    1SIL  Si2RD27659   2.934   8.087   3.290
    1SIL  O04sL27660   2.734   8.263   3.535
    1SIL  O04sM27661   2.781   8.452   3.173
    1SIL  O04sN27662   2.595   8.398   3.354
    1SIL  O04sO27663   2.840   8.202   3.226
    1SIL  O04sP27664   3.027   8.149   3.407
    1SIL  O04sQ27665   2.980   8.337   3.588
    1SIL  Si2RE27666   2.588   8.739   3.109
    1SIL  Si2RF27667   2.342   8.713   3.471
    1SIL  Si2RG27668   2.688   8.513   3.290
    1SIL  O04sR27669   2.488   8.689   3.535
    1SIL  O04sS27670   2.535   8.877   3.173
    1SIL  O04sT27671   2.349   8.824   3.354
    1SIL  O04sU27672   2.595   8.628   3.226
    1SIL  O04sV27673   2.781   8.574   3.407
    1SIL  O04sW27674   2.734   8.763   3.588
    1SIL  Si2RH27675   2.342   9.165   3.109
    1SIL  Si2RI27676   2.097   9.138   3.471
    1SIL  Si2RJ27677   2.442   8.939   3.290
    1SIL  O04sX27678   2.242   9.115   3.535
    1SIL  O04sY27679   2.290   9.303   3.173
    1SIL  O04sZ27680   2.103   9.250   3.354
    1SIL  O04sa27681   2.349   9.053   3.226
    1SIL  O04sb27682   2.535   9.000   3.407
    1SIL  O04sc27683   2.488   9.188   3.588
    1SIL  Si2RK27684   2.097   9.590   3.109
    1SIL  Si2RL27685   1.851   9.564   3.471
    1SIL  Si2RM27686   2.196   9.364   3.290
    1SIL  O04sd27687   1.997   9.540   3.535
    1SIL  O04se27688   2.044   9.729   3.173
    1SIL  O04sf27689   1.857   9.675   3.354
    1SIL  O04sg27690   2.103   9.479   3.226
    1SIL  O04sh27691   2.290   9.426   3.407
    1SIL  O04si27692   2.242   9.614   3.588
    1SIL  Si2RN27693   7.994   0.226   3.109
    1SIL  Si2RO27694   7.749   0.200   3.471
    1SIL  Si2RP27695   8.094   0.000   3.290
    1SIL  O04sj27696   7.895   0.176   3.535
    1SIL  O04sk27697   7.942   0.364   3.173
    1SIL  O04sl27698   7.755   0.311   3.354
    1SIL  O04sm27699   8.001   0.115   3.226
    1SIL  O04sn27700   8.188   0.061   3.407
    1SIL  O04so27701   8.140   0.250   3.588
    1SIL  Si2RQ27702   7.749   0.652   3.109
    1SIL  Si2RR27703   7.503   0.625   3.471
    1SIL  Si2RS27704   7.849   0.426   3.290
    1SIL  O04sp27705   7.649   0.602   3.535
    1SIL  O04sq27706   7.696   0.790   3.173
    1SIL  O04sr27707   7.509   0.737   3.354
    1SIL  O04ss27708   7.755   0.540   3.226
    1SIL  O04st27709   7.942   0.487   3.407
    1SIL  O04su27710   7.895   0.675   3.588
    1SIL  Si2RT27711   7.503   1.077   3.109
    1SIL  Si2RU27712   7.257   1.051   3.471
    1SIL  Si2RV27713   7.603   0.851   3.290
    1SIL  O04sv27714   7.403   1.027   3.535
    1SIL  O04sw27715   7.450   1.216   3.173
    1SIL  O04sx27716   7.264   1.162   3.354
    1SIL  O04sy27717   7.509   0.966   3.226
    1SIL  O04sz27718   7.696   0.913   3.407
    1SIL  O04t027719   7.649   1.101   3.588
    1SIL  Si2RW27720   7.257   1.503   3.109
    1SIL  Si2RX27721   7.011   1.477   3.471
    1SIL  Si2RY27722   7.357   1.277   3.290
    1SIL  O04t127723   7.157   1.453   3.535
    1SIL  O04t227724   7.205   1.641   3.173
    1SIL  O04t327725   7.018   1.588   3.354
    1SIL  O04t427726   7.264   1.392   3.226
    1SIL  O04t527727   7.450   1.338   3.407
    1SIL  O04t627728   7.403   1.527   3.588
    1SIL  Si2RZ27729   7.011   1.929   3.109
    1SIL  Si2Ra27730   6.766   1.902   3.471
    1SIL  Si2Rb27731   7.111   1.703   3.290
    1SIL  O04t727732   6.912   1.879   3.535
    1SIL  O04t827733   6.959   2.067   3.173
    1SIL  O04t927734   6.772   2.014   3.354
    1SIL  O04tA27735   7.018   1.817   3.226
    1SIL  O04tB27736   7.205   1.764   3.407
    1SIL  O04tC27737   7.157   1.952   3.588
    1SIL  Si2Rc27738   6.766   2.354   3.109
    1SIL  Si2Rd27739   6.520   2.328   3.471
    1SIL  Si2Re27740   6.866   2.128   3.290
    1SIL  O04tD27741   6.666   2.304   3.535
    1SIL  O04tE27742   6.713   2.493   3.173
    1SIL  O04tF27743   6.526   2.439   3.354
    1SIL  O04tG27744   6.772   2.243   3.226
    1SIL  O04tH27745   6.959   2.190   3.407
    1SIL  O04tI27746   6.912   2.378   3.588
    1SIL  Si2Rf27747   6.520   2.780   3.109
    1SIL  Si2Rg27748   6.274   2.753   3.471
    1SIL  Si2Rh27749   6.620   2.554   3.290
    1SIL  O04tJ27750   6.420   2.730   3.535
    1SIL  O04tK27751   6.467   2.918   3.173
    1SIL  O04tL27752   6.281   2.865   3.354
    1SIL  O04tM27753   6.526   2.668   3.226
    1SIL  O04tN27754   6.713   2.615   3.407
    1SIL  O04tO27755   6.666   2.804   3.588
    1SIL  Si2Ri27756   6.274   3.206   3.109
    1SIL  Si2Rj27757   6.028   3.179   3.471
    1SIL  Si2Rk27758   6.374   2.980   3.290
    1SIL  O04tP27759   6.174   3.156   3.535
    1SIL  O04tQ27760   6.222   3.344   3.173
    1SIL  O04tR27761   6.035   3.291   3.354
    1SIL  O04tS27762   6.281   3.094   3.226
    1SIL  O04tT27763   6.467   3.041   3.407
    1SIL  O04tU27764   6.420   3.229   3.588
    1SIL  Si2Rl27765   6.028   3.631   3.109
    1SIL  Si2Rm27766   5.783   3.605   3.471
    1SIL  Si2Rn27767   6.128   3.405   3.290
    1SIL  O04tV27768   5.929   3.581   3.535
    1SIL  O04tW27769   5.976   3.769   3.173
    1SIL  O04tX27770   5.789   3.716   3.354
    1SIL  O04tY27771   6.035   3.520   3.226
    1SIL  O04tZ27772   6.222   3.467   3.407
    1SIL  O04ta27773   6.174   3.655   3.588
    1SIL  Si2Ro27774   5.783   4.057   3.109
    1SIL  Si2Rp27775   5.537   4.030   3.471
    1SIL  Si2Rq27776   5.883   3.831   3.290
    1SIL  O04tb27777   5.683   4.007   3.535
    1SIL  O04tc27778   5.730   4.195   3.173
    1SIL  O04td27779   5.543   4.142   3.354
    1SIL  O04te27780   5.789   3.945   3.226
    1SIL  O04tf27781   5.976   3.892   3.407
    1SIL  O04tg27782   5.929   4.081   3.588
    1SIL  Si2Rr27783   5.537   4.483   3.109
    1SIL  Si2Rs27784   5.291   4.456   3.471
    1SIL  Si2Rt27785   5.637   4.256   3.290
    1SIL  O04th27786   5.437   4.432   3.535
    1SIL  O04ti27787   5.484   4.621   3.173
    1SIL  O04tj27788   5.298   4.568   3.354
    1SIL  O04tk27789   5.543   4.371   3.226
    1SIL  O04tl27790   5.730   4.318   3.407
    1SIL  O04tm27791   5.683   4.506   3.588
    1SIL  Si2Ru27792   5.291   4.908   3.109
    1SIL  Si2Rv27793   5.045   4.882   3.471
    1SIL  Si2Rw27794   5.391   4.682   3.290
    1SIL  O04tn27795   5.191   4.858   3.535
    1SIL  O04to27796   5.239   5.046   3.173
    1SIL  O04tp27797   5.052   4.993   3.354
    1SIL  O04tq27798   5.298   4.797   3.226
    1SIL  O04tr27799   5.484   4.744   3.407
    1SIL  O04ts27800   5.437   4.932   3.588
    1SIL  Si2Rx27801   5.045   5.334   3.109
    1SIL  Si2Ry27802   4.800   5.307   3.471
    1SIL  Si2Rz27803   5.145   5.108   3.290
    1SIL  O04tt27804   4.946   5.284   3.535
    1SIL  O04tu27805   4.993   5.472   3.173
    1SIL  O04tv27806   4.806   5.419   3.354
    1SIL  O04tw27807   5.052   5.222   3.226
    1SIL  O04tx27808   5.239   5.169   3.407
    1SIL  O04ty27809   5.191   5.357   3.588
    1SIL  Si2S027810   4.800   5.759   3.109
    1SIL  Si2S127811   4.554   5.733   3.471
    1SIL  Si2S227812   4.900   5.533   3.290
    1SIL  O04tz27813   4.700   5.709   3.535
    1SIL  O04u027814   4.747   5.898   3.173
    1SIL  O04u127815   4.560   5.844   3.354
    1SIL  O04u227816   4.806   5.648   3.226
    1SIL  O04u327817   4.993   5.595   3.407
    1SIL  O04u427818   4.946   5.783   3.588
    1SIL  Si2S327819   4.554   6.185   3.109
    1SIL  Si2S427820   4.308   6.159   3.471
    1SIL  Si2S527821   4.654   5.959   3.290
    1SIL  O04u527822   4.454   6.135   3.535
    1SIL  O04u627823   4.501   6.323   3.173
    1SIL  O04u727824   4.315   6.270   3.354
    1SIL  O04u827825   4.560   6.074   3.226
    1SIL  O04u927826   4.747   6.020   3.407
    1SIL  O04uA27827   4.700   6.209   3.588
    1SIL  Si2S627828   4.308   6.611   3.109
    1SIL  Si2S727829   4.062   6.584   3.471
    1SIL  Si2S827830   4.408   6.385   3.290
    1SIL  O04uB27831   4.208   6.561   3.535
    1SIL  O04uC27832   4.256   6.749   3.173
    1SIL  O04uD27833   4.069   6.696   3.354
    1SIL  O04uE27834   4.315   6.499   3.226
    1SIL  O04uF27835   4.501   6.446   3.407
    1SIL  O04uG27836   4.454   6.634   3.588
    1SIL  Si2S927837   4.062   7.036   3.109
    1SIL  Si2SA27838   3.817   7.010   3.471
    1SIL  Si2SB27839   4.162   6.810   3.290
    1SIL  O04uH27840   3.963   6.986   3.535
    1SIL  O04uI27841   4.010   7.175   3.173
    1SIL  O04uJ27842   3.823   7.121   3.354
    1SIL  O04uK27843   4.069   6.925   3.226
    1SIL  O04uL27844   4.256   6.872   3.407
    1SIL  O04uM27845   4.208   7.060   3.588
    1SIL  Si2SC27846   3.817   7.462   3.109
    1SIL  Si2SD27847   3.571   7.436   3.471
    1SIL  Si2SE27848   3.917   7.236   3.290
    1SIL  O04uN27849   3.717   7.412   3.535
    1SIL  O04uO27850   3.764   7.600   3.173
    1SIL  O04uP27851   3.577   7.547   3.354
    1SIL  O04uQ27852   3.823   7.351   3.226
    1SIL  O04uR27853   4.010   7.297   3.407
    1SIL  O04uS27854   3.963   7.486   3.588
    1SIL  Si2SF27855   3.571   7.888   3.109
    1SIL  Si2SG27856   3.325   7.861   3.471
    1SIL  Si2SH27857   3.671   7.662   3.290
    1SIL  O04uT27858   3.471   7.838   3.535
    1SIL  O04uU27859   3.518   8.026   3.173
    1SIL  O04uV27860   3.332   7.973   3.354
    1SIL  O04uW27861   3.577   7.776   3.226
    1SIL  O04uX27862   3.764   7.723   3.407
    1SIL  O04uY27863   3.717   7.911   3.588
    1SIL  Si2SI27864   3.325   8.313   3.109
    1SIL  Si2SJ27865   3.079   8.287   3.471
    1SIL  Si2SK27866   3.425   8.087   3.290
    1SIL  O04uZ27867   3.225   8.263   3.535
    1SIL  O04ua27868   3.273   8.452   3.173
    1SIL  O04ub27869   3.086   8.398   3.354
    1SIL  O04uc27870   3.332   8.202   3.226
    1SIL  O04ud27871   3.518   8.149   3.407
    1SIL  O04ue27872   3.471   8.337   3.588
    1SIL  Si2SL27873   3.079   8.739   3.109
    1SIL  Si2SM27874   2.834   8.713   3.471
    1SIL  Si2SN27875   3.179   8.513   3.290
    1SIL  O04uf27876   2.980   8.689   3.535
    1SIL  O04ug27877   3.027   8.877   3.173
    1SIL  O04uh27878   2.840   8.824   3.354
    1SIL  O04ui27879   3.086   8.628   3.226
    1SIL  O04uj27880   3.273   8.574   3.407
    1SIL  O04uk27881   3.225   8.763   3.588
    1SIL  Si2SO27882   2.834   9.165   3.109
    1SIL  Si2SP27883   2.588   9.138   3.471
    1SIL  Si2SQ27884   2.934   8.939   3.290
    1SIL  O04ul27885   2.734   9.115   3.535
    1SIL  O04um27886   2.781   9.303   3.173
    1SIL  O04un27887   2.595   9.250   3.354
    1SIL  O04uo27888   2.840   9.053   3.226
    1SIL  O04up27889   3.027   9.000   3.407
    1SIL  O04uq27890   2.980   9.188   3.588
    1SIL  Si2SR27891   2.588   9.590   3.109
    1SIL  Si2SS27892   2.342   9.564   3.471
    1SIL  Si2ST27893   2.688   9.364   3.290
    1SIL  O04ur27894   2.488   9.540   3.535
    1SIL  O04us27895   2.535   9.729   3.173
    1SIL  O04ut27896   2.349   9.675   3.354
    1SIL  O04uu27897   2.595   9.479   3.226
    1SIL  O04uv27898   2.781   9.426   3.407
    1SIL  O04uw27899   2.734   9.614   3.588
    1SIL  Si2SU27900   8.486   0.226   3.109
    1SIL  Si2SV27901   8.240   0.200   3.471
    1SIL  Si2SW27902   8.586   0.000   3.290
    1SIL  O04ux27903   8.386   0.176   3.535
    1SIL  O04uy27904   8.433   0.364   3.173
    1SIL  O04uz27905   8.247   0.311   3.354
    1SIL  O04v027906   8.492   0.115   3.226
    1SIL  O04v127907   8.679   0.061   3.407
    1SIL  O04v227908   8.632   0.250   3.588
    1SIL  Si2SX27909   8.240   0.652   3.109
    1SIL  Si2SY27910   7.994   0.625   3.471
    1SIL  Si2SZ27911   8.340   0.426   3.290
    1SIL  O04v327912   8.140   0.602   3.535
    1SIL  O04v427913   8.188   0.790   3.173
    1SIL  O04v527914   8.001   0.737   3.354
    1SIL  O04v627915   8.247   0.540   3.226
    1SIL  O04v727916   8.433   0.487   3.407
    1SIL  O04v827917   8.386   0.675   3.588
    1SIL  Si2Sa27918   7.994   1.077   3.109
    1SIL  Si2Sb27919   7.749   1.051   3.471
    1SIL  Si2Sc27920   8.094   0.851   3.290
    1SIL  O04v927921   7.895   1.027   3.535
    1SIL  O04vA27922   7.942   1.216   3.173
    1SIL  O04vB27923   7.755   1.162   3.354
    1SIL  O04vC27924   8.001   0.966   3.226
    1SIL  O04vD27925   8.188   0.913   3.407
    1SIL  O04vE27926   8.140   1.101   3.588
    1SIL  Si2Sd27927   7.749   1.503   3.109
    1SIL  Si2Se27928   7.503   1.477   3.471
    1SIL  Si2Sf27929   7.849   1.277   3.290
    1SIL  O04vF27930   7.649   1.453   3.535
    1SIL  O04vG27931   7.696   1.641   3.173
    1SIL  O04vH27932   7.509   1.588   3.354
    1SIL  O04vI27933   7.755   1.392   3.226
    1SIL  O04vJ27934   7.942   1.338   3.407
    1SIL  O04vK27935   7.895   1.527   3.588
    1SIL  Si2Sg27936   7.503   1.929   3.109
    1SIL  Si2Sh27937   7.257   1.902   3.471
    1SIL  Si2Si27938   7.603   1.703   3.290
    1SIL  O04vL27939   7.403   1.879   3.535
    1SIL  O04vM27940   7.450   2.067   3.173
    1SIL  O04vN27941   7.264   2.014   3.354
    1SIL  O04vO27942   7.509   1.817   3.226
    1SIL  O04vP27943   7.696   1.764   3.407
    1SIL  O04vQ27944   7.649   1.952   3.588
    1SIL  Si2Sj27945   7.257   2.354   3.109
    1SIL  Si2Sk27946   7.011   2.328   3.471
    1SIL  Si2Sl27947   7.357   2.128   3.290
    1SIL  O04vR27948   7.157   2.304   3.535
    1SIL  O04vS27949   7.205   2.493   3.173
    1SIL  O04vT27950   7.018   2.439   3.354
    1SIL  O04vU27951   7.264   2.243   3.226
    1SIL  O04vV27952   7.450   2.190   3.407
    1SIL  O04vW27953   7.403   2.378   3.588
    1SIL  Si2Sm27954   7.011   2.780   3.109
    1SIL  Si2Sn27955   6.766   2.753   3.471
    1SIL  Si2So27956   7.111   2.554   3.290
    1SIL  O04vX27957   6.912   2.730   3.535
    1SIL  O04vY27958   6.959   2.918   3.173
    1SIL  O04vZ27959   6.772   2.865   3.354
    1SIL  O04va27960   7.018   2.668   3.226
    1SIL  O04vb27961   7.205   2.615   3.407
    1SIL  O04vc27962   7.157   2.804   3.588
    1SIL  Si2Sp27963   6.766   3.206   3.109
    1SIL  Si2Sq27964   6.520   3.179   3.471
    1SIL  Si2Sr27965   6.866   2.980   3.290
    1SIL  O04vd27966   6.666   3.156   3.535
    1SIL  O04ve27967   6.713   3.344   3.173
    1SIL  O04vf27968   6.526   3.291   3.354
    1SIL  O04vg27969   6.772   3.094   3.226
    1SIL  O04vh27970   6.959   3.041   3.407
    1SIL  O04vi27971   6.912   3.229   3.588
    1SIL  Si2Ss27972   6.520   3.631   3.109
    1SIL  Si2St27973   6.274   3.605   3.471
    1SIL  Si2Su27974   6.620   3.405   3.290
    1SIL  O04vj27975   6.420   3.581   3.535
    1SIL  O04vk27976   6.467   3.769   3.173
    1SIL  O04vl27977   6.281   3.716   3.354
    1SIL  O04vm27978   6.526   3.520   3.226
    1SIL  O04vn27979   6.713   3.467   3.407
    1SIL  O04vo27980   6.666   3.655   3.588
    1SIL  Si2Sv27981   6.274   4.057   3.109
    1SIL  Si2Sw27982   6.028   4.030   3.471
    1SIL  Si2Sx27983   6.374   3.831   3.290
    1SIL  O04vp27984   6.174   4.007   3.535
    1SIL  O04vq27985   6.222   4.195   3.173
    1SIL  O04vr27986   6.035   4.142   3.354
    1SIL  O04vs27987   6.281   3.945   3.226
    1SIL  O04vt27988   6.467   3.892   3.407
    1SIL  O04vu27989   6.420   4.081   3.588
    1SIL  Si2Sy27990   6.028   4.483   3.109
    1SIL  Si2Sz27991   5.783   4.456   3.471
    1SIL  Si2T027992   6.128   4.256   3.290
    1SIL  O04vv27993   5.929   4.432   3.535
    1SIL  O04vw27994   5.976   4.621   3.173
    1SIL  O04vx27995   5.789   4.568   3.354
    1SIL  O04vy27996   6.035   4.371   3.226
    1SIL  O04vz27997   6.222   4.318   3.407
    1SIL  O04w027998   6.174   4.506   3.588
    1SIL  Si2T127999   5.783   4.908   3.109
    1SIL  Si2T228000   5.537   4.882   3.471
    1SIL  Si2T328001   5.883   4.682   3.290
    1SIL  O04w128002   5.683   4.858   3.535
    1SIL  O04w228003   5.730   5.046   3.173
    1SIL  O04w328004   5.543   4.993   3.354
    1SIL  O04w428005   5.789   4.797   3.226
    1SIL  O04w528006   5.976   4.744   3.407
    1SIL  O04w628007   5.929   4.932   3.588
    1SIL  Si2T428008   5.537   5.334   3.109
    1SIL  Si2T528009   5.291   5.307   3.471
    1SIL  Si2T628010   5.637   5.108   3.290
    1SIL  O04w728011   5.437   5.284   3.535
    1SIL  O04w828012   5.484   5.472   3.173
    1SIL  O04w928013   5.298   5.419   3.354
    1SIL  O04wA28014   5.543   5.222   3.226
    1SIL  O04wB28015   5.730   5.169   3.407
    1SIL  O04wC28016   5.683   5.357   3.588
    1SIL  Si2T728017   5.291   5.759   3.109
    1SIL  Si2T828018   5.045   5.733   3.471
    1SIL  Si2T928019   5.391   5.533   3.290
    1SIL  O04wD28020   5.191   5.709   3.535
    1SIL  O04wE28021   5.239   5.898   3.173
    1SIL  O04wF28022   5.052   5.844   3.354
    1SIL  O04wG28023   5.298   5.648   3.226
    1SIL  O04wH28024   5.484   5.595   3.407
    1SIL  O04wI28025   5.437   5.783   3.588
    1SIL  Si2TA28026   5.045   6.185   3.109
    1SIL  Si2TB28027   4.800   6.159   3.471
    1SIL  Si2TC28028   5.145   5.959   3.290
    1SIL  O04wJ28029   4.946   6.135   3.535
    1SIL  O04wK28030   4.993   6.323   3.173
    1SIL  O04wL28031   4.806   6.270   3.354
    1SIL  O04wM28032   5.052   6.074   3.226
    1SIL  O04wN28033   5.239   6.020   3.407
    1SIL  O04wO28034   5.191   6.209   3.588
    1SIL  Si2TD28035   4.800   6.611   3.109
    1SIL  Si2TE28036   4.554   6.584   3.471
    1SIL  Si2TF28037   4.900   6.385   3.290
    1SIL  O04wP28038   4.700   6.561   3.535
    1SIL  O04wQ28039   4.747   6.749   3.173
    1SIL  O04wR28040   4.560   6.696   3.354
    1SIL  O04wS28041   4.806   6.499   3.226
    1SIL  O04wT28042   4.993   6.446   3.407
    1SIL  O04wU28043   4.946   6.634   3.588
    1SIL  Si2TG28044   4.554   7.036   3.109
    1SIL  Si2TH28045   4.308   7.010   3.471
    1SIL  Si2TI28046   4.654   6.810   3.290
    1SIL  O04wV28047   4.454   6.986   3.535
    1SIL  O04wW28048   4.501   7.175   3.173
    1SIL  O04wX28049   4.315   7.121   3.354
    1SIL  O04wY28050   4.560   6.925   3.226
    1SIL  O04wZ28051   4.747   6.872   3.407
    1SIL  O04wa28052   4.700   7.060   3.588
    1SIL  Si2TJ28053   4.308   7.462   3.109
    1SIL  Si2TK28054   4.062   7.436   3.471
    1SIL  Si2TL28055   4.408   7.236   3.290
    1SIL  O04wb28056   4.208   7.412   3.535
    1SIL  O04wc28057   4.256   7.600   3.173
    1SIL  O04wd28058   4.069   7.547   3.354
    1SIL  O04we28059   4.315   7.351   3.226
    1SIL  O04wf28060   4.501   7.297   3.407
    1SIL  O04wg28061   4.454   7.486   3.588
    1SIL  Si2TM28062   4.062   7.888   3.109
    1SIL  Si2TN28063   3.817   7.861   3.471
    1SIL  Si2TO28064   4.162   7.662   3.290
    1SIL  O04wh28065   3.963   7.838   3.535
    1SIL  O04wi28066   4.010   8.026   3.173
    1SIL  O04wj28067   3.823   7.973   3.354
    1SIL  O04wk28068   4.069   7.776   3.226
    1SIL  O04wl28069   4.256   7.723   3.407
    1SIL  O04wm28070   4.208   7.911   3.588
    1SIL  Si2TP28071   3.817   8.313   3.109
    1SIL  Si2TQ28072   3.571   8.287   3.471
    1SIL  Si2TR28073   3.917   8.087   3.290
    1SIL  O04wn28074   3.717   8.263   3.535
    1SIL  O04wo28075   3.764   8.452   3.173
    1SIL  O04wp28076   3.577   8.398   3.354
    1SIL  O04wq28077   3.823   8.202   3.226
    1SIL  O04wr28078   4.010   8.149   3.407
    1SIL  O04ws28079   3.963   8.337   3.588
    1SIL  Si2TS28080   3.571   8.739   3.109
    1SIL  Si2TT28081   3.325   8.713   3.471
    1SIL  Si2TU28082   3.671   8.513   3.290
    1SIL  O04wt28083   3.471   8.689   3.535
    1SIL  O04wu28084   3.518   8.877   3.173
    1SIL  O04wv28085   3.332   8.824   3.354
    1SIL  O04ww28086   3.577   8.628   3.226
    1SIL  O04wx28087   3.764   8.574   3.407
    1SIL  O04wy28088   3.717   8.763   3.588
    1SIL  Si2TV28089   3.325   9.165   3.109
    1SIL  Si2TW28090   3.079   9.138   3.471
    1SIL  Si2TX28091   3.425   8.939   3.290
    1SIL  O04wz28092   3.225   9.115   3.535
    1SIL  O04x028093   3.273   9.303   3.173
    1SIL  O04x128094   3.086   9.250   3.354
    1SIL  O04x228095   3.332   9.053   3.226
    1SIL  O04x328096   3.518   9.000   3.407
    1SIL  O04x428097   3.471   9.188   3.588
    1SIL  Si2TY28098   3.079   9.590   3.109
    1SIL  Si2TZ28099   2.834   9.564   3.471
    1SIL  Si2Ta28100   3.179   9.364   3.290
    1SIL  O04x528101   2.980   9.540   3.535
    1SIL  O04x628102   3.027   9.729   3.173
    1SIL  O04x728103   2.840   9.675   3.354
    1SIL  O04x828104   3.086   9.479   3.226
    1SIL  O04x928105   3.273   9.426   3.407
    1SIL  O04xA28106   3.225   9.614   3.588
    1SIL  Si2Tb28107   8.977   0.226   3.109
    1SIL  Si2Tc28108   8.732   0.200   3.471
    1SIL  Si2Td28109   9.077   0.000   3.290
    1SIL  O04xB28110   8.878   0.176   3.535
    1SIL  O04xC28111   8.925   0.364   3.173
    1SIL  O04xD28112   8.738   0.311   3.354
    1SIL  O04xE28113   8.984   0.115   3.226
    1SIL  O04xF28114   9.171   0.061   3.407
    1SIL  O04xG28115   9.123   0.250   3.588
    1SIL  Si2Te28116   8.732   0.652   3.109
    1SIL  Si2Tf28117   8.486   0.625   3.471
    1SIL  Si2Tg28118   8.832   0.426   3.290
    1SIL  O04xH28119   8.632   0.602   3.535
    1SIL  O04xI28120   8.679   0.790   3.173
    1SIL  O04xJ28121   8.492   0.737   3.354
    1SIL  O04xK28122   8.738   0.540   3.226
    1SIL  O04xL28123   8.925   0.487   3.407
    1SIL  O04xM28124   8.878   0.675   3.588
    1SIL  Si2Th28125   8.486   1.077   3.109
    1SIL  Si2Ti28126   8.240   1.051   3.471
    1SIL  Si2Tj28127   8.586   0.851   3.290
    1SIL  O04xN28128   8.386   1.027   3.535
    1SIL  O04xO28129   8.433   1.216   3.173
    1SIL  O04xP28130   8.247   1.162   3.354
    1SIL  O04xQ28131   8.492   0.966   3.226
    1SIL  O04xR28132   8.679   0.913   3.407
    1SIL  O04xS28133   8.632   1.101   3.588
    1SIL  Si2Tk28134   8.240   1.503   3.109
    1SIL  Si2Tl28135   7.994   1.477   3.471
    1SIL  Si2Tm28136   8.340   1.277   3.290
    1SIL  O04xT28137   8.140   1.453   3.535
    1SIL  O04xU28138   8.188   1.641   3.173
    1SIL  O04xV28139   8.001   1.588   3.354
    1SIL  O04xW28140   8.247   1.392   3.226
    1SIL  O04xX28141   8.433   1.338   3.407
    1SIL  O04xY28142   8.386   1.527   3.588
    1SIL  Si2Tn28143   7.994   1.929   3.109
    1SIL  Si2To28144   7.749   1.902   3.471
    1SIL  Si2Tp28145   8.094   1.703   3.290
    1SIL  O04xZ28146   7.895   1.879   3.535
    1SIL  O04xa28147   7.942   2.067   3.173
    1SIL  O04xb28148   7.755   2.014   3.354
    1SIL  O04xc28149   8.001   1.817   3.226
    1SIL  O04xd28150   8.188   1.764   3.407
    1SIL  O04xe28151   8.140   1.952   3.588
    1SIL  Si2Tq28152   7.749   2.354   3.109
    1SIL  Si2Tr28153   7.503   2.328   3.471
    1SIL  Si2Ts28154   7.849   2.128   3.290
    1SIL  O04xf28155   7.649   2.304   3.535
    1SIL  O04xg28156   7.696   2.493   3.173
    1SIL  O04xh28157   7.509   2.439   3.354
    1SIL  O04xi28158   7.755   2.243   3.226
    1SIL  O04xj28159   7.942   2.190   3.407
    1SIL  O04xk28160   7.895   2.378   3.588
    1SIL  Si2Tt28161   7.503   2.780   3.109
    1SIL  Si2Tu28162   7.257   2.753   3.471
    1SIL  Si2Tv28163   7.603   2.554   3.290
    1SIL  O04xl28164   7.403   2.730   3.535
    1SIL  O04xm28165   7.450   2.918   3.173
    1SIL  O04xn28166   7.264   2.865   3.354
    1SIL  O04xo28167   7.509   2.668   3.226
    1SIL  O04xp28168   7.696   2.615   3.407
    1SIL  O04xq28169   7.649   2.804   3.588
    1SIL  Si2Tw28170   7.257   3.206   3.109
    1SIL  Si2Tx28171   7.011   3.179   3.471
    1SIL  Si2Ty28172   7.357   2.980   3.290
    1SIL  O04xr28173   7.157   3.156   3.535
    1SIL  O04xs28174   7.205   3.344   3.173
    1SIL  O04xt28175   7.018   3.291   3.354
    1SIL  O04xu28176   7.264   3.094   3.226
    1SIL  O04xv28177   7.450   3.041   3.407
    1SIL  O04xw28178   7.403   3.229   3.588
    1SIL  Si2Tz28179   7.011   3.631   3.109
    1SIL  Si2U028180   6.766   3.605   3.471
    1SIL  Si2U128181   7.111   3.405   3.290
    1SIL  O04xx28182   6.912   3.581   3.535
    1SIL  O04xy28183   6.959   3.769   3.173
    1SIL  O04xz28184   6.772   3.716   3.354
    1SIL  O04y028185   7.018   3.520   3.226
    1SIL  O04y128186   7.205   3.467   3.407
    1SIL  O04y228187   7.157   3.655   3.588
    1SIL  Si2U228188   6.766   4.057   3.109
    1SIL  Si2U328189   6.520   4.030   3.471
    1SIL  Si2U428190   6.866   3.831   3.290
    1SIL  O04y328191   6.666   4.007   3.535
    1SIL  O04y428192   6.713   4.195   3.173
    1SIL  O04y528193   6.526   4.142   3.354
    1SIL  O04y628194   6.772   3.945   3.226
    1SIL  O04y728195   6.959   3.892   3.407
    1SIL  O04y828196   6.912   4.081   3.588
    1SIL  Si2U528197   6.520   4.483   3.109
    1SIL  Si2U628198   6.274   4.456   3.471
    1SIL  Si2U728199   6.620   4.256   3.290
    1SIL  O04y928200   6.420   4.432   3.535
    1SIL  O04yA28201   6.467   4.621   3.173
    1SIL  O04yB28202   6.281   4.568   3.354
    1SIL  O04yC28203   6.526   4.371   3.226
    1SIL  O04yD28204   6.713   4.318   3.407
    1SIL  O04yE28205   6.666   4.506   3.588
    1SIL  Si2U828206   6.274   4.908   3.109
    1SIL  Si2U928207   6.028   4.882   3.471
    1SIL  Si2UA28208   6.374   4.682   3.290
    1SIL  O04yF28209   6.174   4.858   3.535
    1SIL  O04yG28210   6.222   5.046   3.173
    1SIL  O04yH28211   6.035   4.993   3.354
    1SIL  O04yI28212   6.281   4.797   3.226
    1SIL  O04yJ28213   6.467   4.744   3.407
    1SIL  O04yK28214   6.420   4.932   3.588
    1SIL  Si2UB28215   6.028   5.334   3.109
    1SIL  Si2UC28216   5.783   5.307   3.471
    1SIL  Si2UD28217   6.128   5.108   3.290
    1SIL  O04yL28218   5.929   5.284   3.535
    1SIL  O04yM28219   5.976   5.472   3.173
    1SIL  O04yN28220   5.789   5.419   3.354
    1SIL  O04yO28221   6.035   5.222   3.226
    1SIL  O04yP28222   6.222   5.169   3.407
    1SIL  O04yQ28223   6.174   5.357   3.588
    1SIL  Si2UE28224   5.783   5.759   3.109
    1SIL  Si2UF28225   5.537   5.733   3.471
    1SIL  Si2UG28226   5.883   5.533   3.290
    1SIL  O04yR28227   5.683   5.709   3.535
    1SIL  O04yS28228   5.730   5.898   3.173
    1SIL  O04yT28229   5.543   5.844   3.354
    1SIL  O04yU28230   5.789   5.648   3.226
    1SIL  O04yV28231   5.976   5.595   3.407
    1SIL  O04yW28232   5.929   5.783   3.588
    1SIL  Si2UH28233   5.537   6.185   3.109
    1SIL  Si2UI28234   5.291   6.159   3.471
    1SIL  Si2UJ28235   5.637   5.959   3.290
    1SIL  O04yX28236   5.437   6.135   3.535
    1SIL  O04yY28237   5.484   6.323   3.173
    1SIL  O04yZ28238   5.298   6.270   3.354
    1SIL  O04ya28239   5.543   6.074   3.226
    1SIL  O04yb28240   5.730   6.020   3.407
    1SIL  O04yc28241   5.683   6.209   3.588
    1SIL  Si2UK28242   5.291   6.611   3.109
    1SIL  Si2UL28243   5.045   6.584   3.471
    1SIL  Si2UM28244   5.391   6.385   3.290
    1SIL  O04yd28245   5.191   6.561   3.535
    1SIL  O04ye28246   5.239   6.749   3.173
    1SIL  O04yf28247   5.052   6.696   3.354
    1SIL  O04yg28248   5.298   6.499   3.226
    1SIL  O04yh28249   5.484   6.446   3.407
    1SIL  O04yi28250   5.437   6.634   3.588
    1SIL  Si2UN28251   5.045   7.036   3.109
    1SIL  Si2UO28252   4.800   7.010   3.471
    1SIL  Si2UP28253   5.145   6.810   3.290
    1SIL  O04yj28254   4.946   6.986   3.535
    1SIL  O04yk28255   4.993   7.175   3.173
    1SIL  O04yl28256   4.806   7.121   3.354
    1SIL  O04ym28257   5.052   6.925   3.226
    1SIL  O04yn28258   5.239   6.872   3.407
    1SIL  O04yo28259   5.191   7.060   3.588
    1SIL  Si2UQ28260   4.800   7.462   3.109
    1SIL  Si2UR28261   4.554   7.436   3.471
    1SIL  Si2US28262   4.900   7.236   3.290
    1SIL  O04yp28263   4.700   7.412   3.535
    1SIL  O04yq28264   4.747   7.600   3.173
    1SIL  O04yr28265   4.560   7.547   3.354
    1SIL  O04ys28266   4.806   7.351   3.226
    1SIL  O04yt28267   4.993   7.297   3.407
    1SIL  O04yu28268   4.946   7.486   3.588
    1SIL  Si2UT28269   4.554   7.888   3.109
    1SIL  Si2UU28270   4.308   7.861   3.471
    1SIL  Si2UV28271   4.654   7.662   3.290
    1SIL  O04yv28272   4.454   7.838   3.535
    1SIL  O04yw28273   4.501   8.026   3.173
    1SIL  O04yx28274   4.315   7.973   3.354
    1SIL  O04yy28275   4.560   7.776   3.226
    1SIL  O04yz28276   4.747   7.723   3.407
    1SIL  O04z028277   4.700   7.911   3.588
    1SIL  Si2UW28278   4.308   8.313   3.109
    1SIL  Si2UX28279   4.062   8.287   3.471
    1SIL  Si2UY28280   4.408   8.087   3.290
    1SIL  O04z128281   4.208   8.263   3.535
    1SIL  O04z228282   4.256   8.452   3.173
    1SIL  O04z328283   4.069   8.398   3.354
    1SIL  O04z428284   4.315   8.202   3.226
    1SIL  O04z528285   4.501   8.149   3.407
    1SIL  O04z628286   4.454   8.337   3.588
    1SIL  Si2UZ28287   4.062   8.739   3.109
    1SIL  Si2Ua28288   3.817   8.713   3.471
    1SIL  Si2Ub28289   4.162   8.513   3.290
    1SIL  O04z728290   3.963   8.689   3.535
    1SIL  O04z828291   4.010   8.877   3.173
    1SIL  O04z928292   3.823   8.824   3.354
    1SIL  O04zA28293   4.069   8.628   3.226
    1SIL  O04zB28294   4.256   8.574   3.407
    1SIL  O04zC28295   4.208   8.763   3.588
    1SIL  Si2Uc28296   3.817   9.165   3.109
    1SIL  Si2Ud28297   3.571   9.138   3.471
    1SIL  Si2Ue28298   3.917   8.939   3.290
    1SIL  O04zD28299   3.717   9.115   3.535
    1SIL  O04zE28300   3.764   9.303   3.173
    1SIL  O04zF28301   3.577   9.250   3.354
    1SIL  O04zG28302   3.823   9.053   3.226
    1SIL  O04zH28303   4.010   9.000   3.407
    1SIL  O04zI28304   3.963   9.188   3.588
    1SIL  Si2Uf28305   3.571   9.590   3.109
    1SIL  Si2Ug28306   3.325   9.564   3.471
    1SIL  Si2Uh28307   3.671   9.364   3.290
    1SIL  O04zJ28308   3.471   9.540   3.535
    1SIL  O04zK28309   3.518   9.729   3.173
    1SIL  O04zL28310   3.332   9.675   3.354
    1SIL  O04zM28311   3.577   9.479   3.226
    1SIL  O04zN28312   3.764   9.426   3.407
    1SIL  O04zO28313   3.717   9.614   3.588
    1SIL  Si2Ui28314   9.469   0.226   3.109
    1SIL  Si2Uj28315   9.223   0.200   3.471
    1SIL  Si2Uk28316   9.569   0.000   3.290
    1SIL  O04zP28317   9.369   0.176   3.535
    1SIL  O04zQ28318   9.416   0.364   3.173
    1SIL  O04zR28319   9.230   0.311   3.354
    1SIL  O04zS28320   9.475   0.115   3.226
    1SIL  O04zT28321   9.662   0.061   3.407
    1SIL  O04zU28322   9.615   0.250   3.588
    1SIL  Si2Ul28323   9.223   0.652   3.109
    1SIL  Si2Um28324   8.977   0.625   3.471
    1SIL  Si2Un28325   9.323   0.426   3.290
    1SIL  O04zV28326   9.123   0.602   3.535
    1SIL  O04zW28327   9.171   0.790   3.173
    1SIL  O04zX28328   8.984   0.737   3.354
    1SIL  O04zY28329   9.230   0.540   3.226
    1SIL  O04zZ28330   9.416   0.487   3.407
    1SIL  O04za28331   9.369   0.675   3.588
    1SIL  Si2Uo28332   8.977   1.077   3.109
    1SIL  Si2Up28333   8.732   1.051   3.471
    1SIL  Si2Uq28334   9.077   0.851   3.290
    1SIL  O04zb28335   8.878   1.027   3.535
    1SIL  O04zc28336   8.925   1.216   3.173
    1SIL  O04zd28337   8.738   1.162   3.354
    1SIL  O04ze28338   8.984   0.966   3.226
    1SIL  O04zf28339   9.171   0.913   3.407
    1SIL  O04zg28340   9.123   1.101   3.588
    1SIL  Si2Ur28341   8.732   1.503   3.109
    1SIL  Si2Us28342   8.486   1.477   3.471
    1SIL  Si2Ut28343   8.832   1.277   3.290
    1SIL  O04zh28344   8.632   1.453   3.535
    1SIL  O04zi28345   8.679   1.641   3.173
    1SIL  O04zj28346   8.492   1.588   3.354
    1SIL  O04zk28347   8.738   1.392   3.226
    1SIL  O04zl28348   8.925   1.338   3.407
    1SIL  O04zm28349   8.878   1.527   3.588
    1SIL  Si2Uu28350   8.486   1.929   3.109
    1SIL  Si2Uv28351   8.240   1.902   3.471
    1SIL  Si2Uw28352   8.586   1.703   3.290
    1SIL  O04zn28353   8.386   1.879   3.535
    1SIL  O04zo28354   8.433   2.067   3.173
    1SIL  O04zp28355   8.247   2.014   3.354
    1SIL  O04zq28356   8.492   1.817   3.226
    1SIL  O04zr28357   8.679   1.764   3.407
    1SIL  O04zs28358   8.632   1.952   3.588
    1SIL  Si2Ux28359   8.240   2.354   3.109
    1SIL  Si2Uy28360   7.994   2.328   3.471
    1SIL  Si2Uz28361   8.340   2.128   3.290
    1SIL  O04zt28362   8.140   2.304   3.535
    1SIL  O04zu28363   8.188   2.493   3.173
    1SIL  O04zv28364   8.001   2.439   3.354
    1SIL  O04zw28365   8.247   2.243   3.226
    1SIL  O04zx28366   8.433   2.190   3.407
    1SIL  O04zy28367   8.386   2.378   3.588
    1SIL  Si2V028368   7.994   2.780   3.109
    1SIL  Si2V128369   7.749   2.753   3.471
    1SIL  Si2V228370   8.094   2.554   3.290
    1SIL  O04zz28371   7.895   2.730   3.535
    1SIL  O050028372   7.942   2.918   3.173
    1SIL  O050128373   7.755   2.865   3.354
    1SIL  O050228374   8.001   2.668   3.226
    1SIL  O050328375   8.188   2.615   3.407
    1SIL  O050428376   8.140   2.804   3.588
    1SIL  Si2V328377   7.749   3.206   3.109
    1SIL  Si2V428378   7.503   3.179   3.471
    1SIL  Si2V528379   7.849   2.980   3.290
    1SIL  O050528380   7.649   3.156   3.535
    1SIL  O050628381   7.696   3.344   3.173
    1SIL  O050728382   7.509   3.291   3.354
    1SIL  O050828383   7.755   3.094   3.226
    1SIL  O050928384   7.942   3.041   3.407
    1SIL  O050A28385   7.895   3.229   3.588
    1SIL  Si2V628386   7.503   3.631   3.109
    1SIL  Si2V728387   7.257   3.605   3.471
    1SIL  Si2V828388   7.603   3.405   3.290
    1SIL  O050B28389   7.403   3.581   3.535
    1SIL  O050C28390   7.450   3.769   3.173
    1SIL  O050D28391   7.264   3.716   3.354
    1SIL  O050E28392   7.509   3.520   3.226
    1SIL  O050F28393   7.696   3.467   3.407
    1SIL  O050G28394   7.649   3.655   3.588
    1SIL  Si2V928395   7.257   4.057   3.109
    1SIL  Si2VA28396   7.011   4.030   3.471
    1SIL  Si2VB28397   7.357   3.831   3.290
    1SIL  O050H28398   7.157   4.007   3.535
    1SIL  O050I28399   7.205   4.195   3.173
    1SIL  O050J28400   7.018   4.142   3.354
    1SIL  O050K28401   7.264   3.945   3.226
    1SIL  O050L28402   7.450   3.892   3.407
    1SIL  O050M28403   7.403   4.081   3.588
    1SIL  Si2VC28404   7.011   4.483   3.109
    1SIL  Si2VD28405   6.766   4.456   3.471
    1SIL  Si2VE28406   7.111   4.256   3.290
    1SIL  O050N28407   6.912   4.432   3.535
    1SIL  O050O28408   6.959   4.621   3.173
    1SIL  O050P28409   6.772   4.568   3.354
    1SIL  O050Q28410   7.018   4.371   3.226
    1SIL  O050R28411   7.205   4.318   3.407
    1SIL  O050S28412   7.157   4.506   3.588
    1SIL  Si2VF28413   6.766   4.908   3.109
    1SIL  Si2VG28414   6.520   4.882   3.471
    1SIL  Si2VH28415   6.866   4.682   3.290
    1SIL  O050T28416   6.666   4.858   3.535
    1SIL  O050U28417   6.713   5.046   3.173
    1SIL  O050V28418   6.526   4.993   3.354
    1SIL  O050W28419   6.772   4.797   3.226
    1SIL  O050X28420   6.959   4.744   3.407
    1SIL  O050Y28421   6.912   4.932   3.588
    1SIL  Si2VI28422   6.520   5.334   3.109
    1SIL  Si2VJ28423   6.274   5.307   3.471
    1SIL  Si2VK28424   6.620   5.108   3.290
    1SIL  O050Z28425   6.420   5.284   3.535
    1SIL  O050a28426   6.467   5.472   3.173
    1SIL  O050b28427   6.281   5.419   3.354
    1SIL  O050c28428   6.526   5.222   3.226
    1SIL  O050d28429   6.713   5.169   3.407
    1SIL  O050e28430   6.666   5.357   3.588
    1SIL  Si2VL28431   6.274   5.759   3.109
    1SIL  Si2VM28432   6.028   5.733   3.471
    1SIL  Si2VN28433   6.374   5.533   3.290
    1SIL  O050f28434   6.174   5.709   3.535
    1SIL  O050g28435   6.222   5.898   3.173
    1SIL  O050h28436   6.035   5.844   3.354
    1SIL  O050i28437   6.281   5.648   3.226
    1SIL  O050j28438   6.467   5.595   3.407
    1SIL  O050k28439   6.420   5.783   3.588
    1SIL  Si2VO28440   6.028   6.185   3.109
    1SIL  Si2VP28441   5.783   6.159   3.471
    1SIL  Si2VQ28442   6.128   5.959   3.290
    1SIL  O050l28443   5.929   6.135   3.535
    1SIL  O050m28444   5.976   6.323   3.173
    1SIL  O050n28445   5.789   6.270   3.354
    1SIL  O050o28446   6.035   6.074   3.226
    1SIL  O050p28447   6.222   6.020   3.407
    1SIL  O050q28448   6.174   6.209   3.588
    1SIL  Si2VR28449   5.783   6.611   3.109
    1SIL  Si2VS28450   5.537   6.584   3.471
    1SIL  Si2VT28451   5.883   6.385   3.290
    1SIL  O050r28452   5.683   6.561   3.535
    1SIL  O050s28453   5.730   6.749   3.173
    1SIL  O050t28454   5.543   6.696   3.354
    1SIL  O050u28455   5.789   6.499   3.226
    1SIL  O050v28456   5.976   6.446   3.407
    1SIL  O050w28457   5.929   6.634   3.588
    1SIL  Si2VU28458   5.537   7.036   3.109
    1SIL  Si2VV28459   5.291   7.010   3.471
    1SIL  Si2VW28460   5.637   6.810   3.290
    1SIL  O050x28461   5.437   6.986   3.535
    1SIL  O050y28462   5.484   7.175   3.173
    1SIL  O050z28463   5.298   7.121   3.354
    1SIL  O051028464   5.543   6.925   3.226
    1SIL  O051128465   5.730   6.872   3.407
    1SIL  O051228466   5.683   7.060   3.588
    1SIL  Si2VX28467   5.291   7.462   3.109
    1SIL  Si2VY28468   5.045   7.436   3.471
    1SIL  Si2VZ28469   5.391   7.236   3.290
    1SIL  O051328470   5.191   7.412   3.535
    1SIL  O051428471   5.239   7.600   3.173
    1SIL  O051528472   5.052   7.547   3.354
    1SIL  O051628473   5.298   7.351   3.226
    1SIL  O051728474   5.484   7.297   3.407
    1SIL  O051828475   5.437   7.486   3.588
    1SIL  Si2Va28476   5.045   7.888   3.109
    1SIL  Si2Vb28477   4.800   7.861   3.471
    1SIL  Si2Vc28478   5.145   7.662   3.290
    1SIL  O051928479   4.946   7.838   3.535
    1SIL  O051A28480   4.993   8.026   3.173
    1SIL  O051B28481   4.806   7.973   3.354
    1SIL  O051C28482   5.052   7.776   3.226
    1SIL  O051D28483   5.239   7.723   3.407
    1SIL  O051E28484   5.191   7.911   3.588
    1SIL  Si2Vd28485   4.800   8.313   3.109
    1SIL  Si2Ve28486   4.554   8.287   3.471
    1SIL  Si2Vf28487   4.900   8.087   3.290
    1SIL  O051F28488   4.700   8.263   3.535
    1SIL  O051G28489   4.747   8.452   3.173
    1SIL  O051H28490   4.560   8.398   3.354
    1SIL  O051I28491   4.806   8.202   3.226
    1SIL  O051J28492   4.993   8.149   3.407
    1SIL  O051K28493   4.946   8.337   3.588
    1SIL  Si2Vg28494   4.554   8.739   3.109
    1SIL  Si2Vh28495   4.308   8.713   3.471
    1SIL  Si2Vi28496   4.654   8.513   3.290
    1SIL  O051L28497   4.454   8.689   3.535
    1SIL  O051M28498   4.501   8.877   3.173
    1SIL  O051N28499   4.315   8.824   3.354
    1SIL  O051O28500   4.560   8.628   3.226
    1SIL  O051P28501   4.747   8.574   3.407
    1SIL  O051Q28502   4.700   8.763   3.588
    1SIL  Si2Vj28503   4.308   9.165   3.109
    1SIL  Si2Vk28504   4.062   9.138   3.471
    1SIL  Si2Vl28505   4.408   8.939   3.290
    1SIL  O051R28506   4.208   9.115   3.535
    1SIL  O051S28507   4.256   9.303   3.173
    1SIL  O051T28508   4.069   9.250   3.354
    1SIL  O051U28509   4.315   9.053   3.226
    1SIL  O051V28510   4.501   9.000   3.407
    1SIL  O051W28511   4.454   9.188   3.588
    1SIL  Si2Vm28512   4.062   9.590   3.109
    1SIL  Si2Vn28513   3.817   9.564   3.471
    1SIL  Si2Vo28514   4.162   9.364   3.290
    1SIL  O051X28515   3.963   9.540   3.535
    1SIL  O051Y28516   4.010   9.729   3.173
    1SIL  O051Z28517   3.823   9.675   3.354
    1SIL  O051a28518   4.069   9.479   3.226
    1SIL  O051b28519   4.256   9.426   3.407
    1SIL  O051c28520   4.208   9.614   3.588
    1SIL  H000028521   3.823   7.351   3.800
    1SIL  H000128522   8.984   0.115   3.800
    1SIL  H000228523   4.806   7.351   3.800
    1SIL  H000328524   1.857   4.797   3.800
    1SIL  H000428525   9.475   0.115   3.800
    1SIL  H000528526   8.492   0.115   3.800
    1SIL  H000628527   0.629   9.479   3.800
    1SIL  H000728528   0.874   3.945   3.800
    1SIL  H000828529   6.526   5.222   3.800
    1SIL  H000928530   3.823   5.648   3.800
    1SIL  H000A28531   6.281   1.392   3.800
    1SIL  H000B28532   6.281   3.094   3.800
    1SIL  H000C28533   9.721   0.540   3.800
    1SIL  H000D28534   1.366   9.053   3.800
    1SIL  H000E28535   2.349   6.499   3.800
    1SIL  H000F28536   5.789   4.797   3.800
    1SIL  H000G28537   9.230   8.202   3.800
    1SIL  H000H28538   2.349   4.797   3.800
    1SIL  H000I28539   3.577   5.222   3.800
    1SIL  H000J28540   5.543   3.520   3.800
    1SIL  H000K28541   4.806   3.094   3.800
    1SIL  H000L28542   4.315   7.351   3.800
    1SIL  H000M28543   9.721   1.392   3.800
    1SIL  H000N28544   0.874   0.540   3.800
    1SIL  H000O28545   3.823   1.392   3.800
    1SIL  H000P28546   5.543   6.925   3.800
    1SIL  H000Q28547   9.721   9.053   3.800
    1SIL  H000R28548   7.509   3.520   3.800
    1SIL  H000S28549   2.840   0.540   3.800
    1SIL  H000T28550   2.595   9.479   3.800
    1SIL  H000U28551   8.738   3.945   3.800
    1SIL  H000V28552   0.383   7.351   3.800
    1SIL  H000W28553   2.595   4.371   3.800
    1SIL  H000X28554   5.052   9.479   3.800
    1SIL  H000Y28555   9.475   6.925   3.800
    1SIL  H000Z28556   0.137   0.115   3.800
    1SIL  H000a28557   4.069   1.817   3.800
    1SIL  H000b28558   0.629   8.628   3.800
    1SIL  H000c28559   0.383   8.202   3.800
    1SIL  H000d28560   1.612   8.628   3.800
    1SIL  H000e28561   6.772   3.094   3.800
    1SIL  H000f28562   6.526   0.115   3.800
    1SIL  H000g28563   9.230   5.648   3.800
    1SIL  H000h28564   5.298   9.053   3.800
    1SIL  H000i28565   1.366   8.202   3.800
    1SIL  H000j28566   4.560   4.371   3.800
    1SIL  H000k28567   3.086   1.817   3.800
    1SIL  H000l28568   0.874   6.499   3.800
    1SIL  H000m28569   1.857   3.094   3.800
    1SIL  H000n28570   7.264   2.243   3.800
    1SIL  H000o28571   3.086   6.925   3.800
    1SIL  H000p28572   8.738   3.094   3.800
    1SIL  H000q28573   6.281   4.797   3.800
    1SIL  H000r28574   8.492   3.520   3.800
    1SIL  H000s28575   8.492   9.479   3.800
    1SIL  H000t28576   4.069   6.925   3.800
    1SIL  H000u28577   5.052   6.074   3.800
    1SIL  H000v28578   8.001   3.520   3.800
    1SIL  H000w28579   5.543   6.074   3.800
    1SIL  H000x28580   5.543   4.371   3.800
    1SIL  H000y28581   5.789   5.648   3.800
    1SIL  H000z28582   0.137   6.925   3.800
    1SIL  H001028583   9.475   7.776   3.800
    1SIL  H001128584   1.366   3.945   3.800
    1SIL  H001228585   4.069   8.628   3.800
    1SIL  H001328586   8.001   1.817   3.800
    1SIL  H001428587   3.332   3.094   3.800
    1SIL  H001528588   1.120   2.668   3.800
    1SIL  H001628589   6.526   1.817   3.800
    1SIL  H001728590   8.492   7.776   3.800
    1SIL  H001828591   5.052   2.668   3.800
    1SIL  H001928592   2.840   4.797   3.800
    1SIL  H001A28593   4.560   2.668   3.800
    1SIL  H001B28594   7.018   6.925   3.800
    1SIL  H001C28595   1.857   8.202   3.800
    1SIL  H001D28596   2.840   7.351   3.800
    1SIL  H001E28597   0.383   3.945   3.800
    1SIL  H001F28598   8.738   1.392   3.800
    1SIL  H001G28599   2.103   9.479   3.800
    1SIL  H001H28600   7.755   3.945   3.800
    1SIL  H001I28601   4.315   4.797   3.800
    1SIL  H001J28602   4.560   0.115   3.800
    1SIL  H001K28603   1.366   4.797   3.800
    1SIL  H001L28604   1.612   6.074   3.800
    1SIL  H001M28605   5.543   8.628   3.800
    1SIL  H001N28606   4.069   0.115   3.800
    1SIL  H001O28607   0.137   8.628   3.800
    1SIL  H001P28608   5.789   2.243   3.800
    1SIL  H001Q28609   7.264   7.351   3.800
    1SIL  H001R28610   3.823   4.797   3.800
    1SIL  H001S28611   3.332   6.499   3.800
    1SIL  H001T28612   3.577   0.966   3.800
    1SIL  H001U28613   6.772   1.392   3.800
    1SIL  H001V28614   3.577   3.520   3.800
    1SIL  H001W28615   1.120   7.776   3.800
    1SIL  H001X28616   9.230   9.053   3.800
    1SIL  H001Y28617   4.315   6.499   3.800
    1SIL  H001Z28618   7.509   6.925   3.800
    1SIL  H001a28619   7.018   9.479   3.800
    1SIL  H001b28620   8.738   8.202   3.800
    1SIL  H001c28621   1.612   5.222   3.800
    1SIL  H001d28622   1.120   9.479   3.800
    1SIL  H001e28623   8.247   4.797   3.800
    1SIL  H001f28624   2.103   0.966   3.800
    1SIL  H001g28625   9.230   7.351   3.800
    1SIL  H001h28626   1.612   0.115   3.800
    1SIL  H001i28627   2.595   3.520   3.800
    1SIL  H001j28628   2.595   8.628   3.800
    1SIL  H001k28629   5.789   7.351   3.800
    1SIL  H001l28630   4.069   5.222   3.800
    1SIL  H001m28631   4.806   8.202   3.800
    1SIL  H001n28632   8.492   8.628   3.800
    1SIL  H001o28633   3.577   7.776   3.800
    1SIL  H001p28634   4.806   9.053   3.800
    1SIL  H001q28635   8.984   0.966   3.800
    1SIL  H001r28636   2.595   0.966   3.800
    1SIL  H001s28637   7.264   0.540   3.800
    1SIL  H001t28638   1.366   6.499   3.800
    1SIL  H001u28639   6.281   7.351   3.800
    1SIL  H001v28640   2.103   6.925   3.800
    1SIL  H001w28641   2.840   9.053   3.800
    1SIL  H001x28642   8.001   4.371   3.800
    1SIL  H001y28643   7.264   3.945   3.800
    1SIL  H001z28644   2.349   3.945   3.800
    1SIL  H002028645   2.349   9.053   3.800
    1SIL  H002128646   6.526   2.668   3.800
    1SIL  H002228647   7.755   2.243   3.800
    1SIL  H002328648   8.738   0.540   3.800
    1SIL  H002428649   2.840   3.945   3.800
    1SIL  H002528650   9.721   8.202   3.800
    1SIL  H002628651   6.281   2.243   3.800
    1SIL  H002728652   0.137   3.520   3.800
    1SIL  H002828653   8.492   6.074   3.800
    1SIL  H002928654   1.857   3.945   3.800
    1SIL  H002A28655   5.543   7.776   3.800
    1SIL  H002B28656   5.298   5.648   3.800
    1SIL  H002C28657   7.755   9.053   3.800
    1SIL  H002D28658   5.298   3.945   3.800
    1SIL  H002E28659   6.035   6.074   3.800
    1SIL  H002F28660   4.315   1.392   3.800
    1SIL  H002G28661   2.840   3.094   3.800
    1SIL  H002H28662   0.137   7.776   3.800
    1SIL  H002I28663   0.874   3.094   3.800
    1SIL  H002J28664   2.840   1.392   3.800
    1SIL  H002K28665   8.492   1.817   3.800
    1SIL  H002L28666   9.721   7.351   3.800
    1SIL  H002M28667   6.526   8.628   3.800
    1SIL  H002N28668   4.315   9.053   3.800
    1SIL  H002O28669   8.001   0.115   3.800
    1SIL  H002P28670   2.349   2.243   3.800
    1SIL  H002Q28671   5.543   0.966   3.800
    1SIL  H002R28672   7.018   4.371   3.800
    1SIL  H002S28673   6.035   9.479   3.800
    1SIL  H002T28674   6.035   4.371   3.800
    1SIL  H002U28675   7.018   7.776   3.800
    1SIL  H002V28676   6.281   8.202   3.800
    1SIL  H002W28677   3.086   5.222   3.800
    1SIL  H002X28678   6.526   6.925   3.800
    1SIL  H002Y28679   9.230   4.797   3.800
    1SIL  H002Z28680   4.560   7.776   3.800
    1SIL  H002a28681   9.230   2.243   3.800
    1SIL  H002b28682   0.137   1.817   3.800
    1SIL  H002c28683   6.281   6.499   3.800
    1SIL  H002d28684   6.035   0.966   3.800
    1SIL  H002e28685   7.509   0.966   3.800
    1SIL  H002f28686   8.247   2.243   3.800
    1SIL  H002g28687   7.755   7.351   3.800
    1SIL  H002h28688   8.001   8.628   3.800
    1SIL  H002i28689   3.577   6.074   3.800
    1SIL  H002j28690   8.001   9.479   3.800
    1SIL  H002k28691   4.560   8.628   3.800
    1SIL  H002l28692   0.383   0.540   3.800
    1SIL  H002m28693   3.086   2.668   3.800
    1SIL  H002n28694   6.526   6.074   3.800
    1SIL  H002o28695   6.772   3.945   3.800
    1SIL  H002p28696   1.857   9.053   3.800
    1SIL  H002q28697   6.281   9.053   3.800
    1SIL  H002r28698   4.560   9.479   3.800
    1SIL  H002s28699   9.721   3.945   3.800
    1SIL  H002t28700   1.857   1.392   3.800
    1SIL  H002u28701   0.874   4.797   3.800
    1SIL  H002v28702   9.475   2.668   3.800
    1SIL  H002w28703   3.332   1.392   3.800
    1SIL  H002x28704   0.629   3.520   3.800
    1SIL  H002y28705   3.086   9.479   3.800
    1SIL  H002z28706   9.721   2.243   3.800
    1SIL  H003028707   4.069   9.479   3.800
    1SIL  H003128708   5.298   4.797   3.800
    1SIL  H003228709   9.475   6.074   3.800
    1SIL  H003328710   6.772   6.499   3.800
    1SIL  H003428711   5.052   5.222   3.800
    1SIL  H003528712   4.806   1.392   3.800
    1SIL  H003628713   1.120   0.115   3.800
    1SIL  H003728714   8.984   7.776   3.800
    1SIL  H003828715   2.595   5.222   3.800
    1SIL  H003928716   4.560   6.074   3.800
    1SIL  H003A28717   3.823   9.053   3.800
    1SIL  H003B28718   5.789   0.540   3.800
    1SIL  H003C28719   9.475   3.520   3.800
    1SIL  H003D28720   6.035   5.222   3.800
    1SIL  H003E28721   9.721   3.094   3.800
    1SIL  H003F28722   8.247   3.094   3.800
    1SIL  H003G28723   2.103   7.776   3.800
    1SIL  H003H28724   0.629   4.371   3.800
    1SIL  H003I28725   1.120   4.371   3.800
    1SIL  H003J28726   7.509   6.074   3.800
    1SIL  H003K28727   6.035   8.628   3.800
    1SIL  H003L28728   6.526   4.371   3.800
    1SIL  H003M28729   5.298   8.202   3.800
    1SIL  H003N28730   3.577   9.479   3.800
    1SIL  H003O28731   7.509   5.222   3.800
    1SIL  H003P28732   4.069   4.371   3.800
    1SIL  H003Q28733   2.349   1.392   3.800
    1SIL  H003R28734   9.475   8.628   3.800
    1SIL  H003S28735   4.560   3.520   3.800
    1SIL  H003T28736   9.475   0.966   3.800
    1SIL  H003U28737   2.103   3.520   3.800
    1SIL  H003V28738   2.349   8.202   3.800
    1SIL  H003W28739   0.383   4.797   3.800
    1SIL  H003X28740   7.755   4.797   3.800
    1SIL  H003Y28741   9.721   4.797   3.800
    1SIL  H003Z28742   1.366   0.540   3.800
    1SIL  H003a28743   1.857   5.648   3.800
    1SIL  H003b28744   8.247   1.392   3.800
    1SIL  H003c28745   7.018   6.074   3.800
    1SIL  H003d28746   9.475   1.817   3.800
    1SIL  H003e28747   6.035   2.668   3.800
    1SIL  H003f28748   1.857   2.243   3.800
    1SIL  H003g28749   2.103   4.371   3.800
    1SIL  H003h28750   3.332   2.243   3.800
    1SIL  H003i28751   3.577   4.371   3.800
    1SIL  H003j28752   4.315   8.202   3.800
    1SIL  H003k28753   6.035   0.115   3.800
    1SIL  H003l28754   7.264   3.094   3.800
    1SIL  H003m28755   8.492   5.222   3.800
    1SIL  H003n28756   3.086   4.371   3.800
    1SIL  H003o28757   1.366   3.094   3.800
    1SIL  H003p28758   0.383   5.648   3.800
    1SIL  H003q28759   1.366   7.351   3.800
    1SIL  H003r28760   7.509   1.817   3.800
    1SIL  H003s28761   7.264   9.053   3.800
    1SIL  H003t28762   6.035   7.776   3.800
    1SIL  H003u28763   8.492   4.371   3.800
    1SIL  H003v28764   9.721   5.648   3.800
    1SIL  H003w28765   7.509   2.668   3.800
    1SIL  H003x28766   0.874   2.243   3.800
    1SIL  H003y28767   1.366   1.392   3.800
    1SIL  H003z28768   0.137   6.074   3.800
    1SIL  H004028769   2.840   2.243   3.800
    1SIL  H004128770   2.103   5.222   3.800
    1SIL  H004228771   1.120   0.966   3.800
    1SIL  H004328772   3.086   0.115   3.800
    1SIL  H004428773   9.230   1.392   3.800
    1SIL  H004528774   2.595   2.668   3.800
    1SIL  H004628775   6.526   3.520   3.800
    1SIL  H004728776   7.509   7.776   3.800
    1SIL  H004828777   4.560   5.222   3.800
    1SIL  H004928778   2.103   8.628   3.800
    1SIL  H004A28779   9.721   6.499   3.800
    1SIL  H004B28780   6.035   6.925   3.800
    1SIL  H004C28781   2.595   6.925   3.800
    1SIL  H004D28782   8.492   6.925   3.800
    1SIL  H004E28783   6.281   3.945   3.800
    1SIL  H004F28784   7.509   0.115   3.800
    1SIL  H004G28785   5.789   3.945   3.800
    1SIL  H004H28786   6.526   0.966   3.800
    1SIL  H004I28787   8.738   6.499   3.800
    1SIL  H004J28788   3.823   3.945   3.800
    1SIL  H004K28789   0.874   7.351   3.800
    1SIL  H004L28790   7.509   9.479   3.800
    1SIL  H004M28791   1.120   6.925   3.800
    1SIL  H004N28792   7.509   4.371   3.800
    1SIL  H004O28793   5.789   3.094   3.800
    1SIL  H004P28794   0.629   5.222   3.800
    1SIL  H004Q28795   0.383   9.053   3.800
    1SIL  H004R28796   8.738   9.053   3.800
    1SIL  H004S28797   8.984   3.520   3.800
    1SIL  H004T28798   1.612   2.668   3.800
    1SIL  H004U28799   3.577   2.668   3.800
    1SIL  H004V28800   5.298   0.540   3.800
    1SIL  H004W28801   8.984   2.668   3.800
    1SIL  H004X28802   8.984   5.222   3.800
    1SIL  H004Y28803   6.035   1.817   3.800
    1SIL  H004Z28804   0.383   2.243   3.800
    1SIL  H004a28805   2.103   0.115   3.800
    1SIL  H004b28806   8.738   7.351   3.800
    1SIL  H004c28807   6.772   8.202   3.800
    1SIL  H004d28808   8.247   9.053   3.800
    1SIL  H004e28809   1.366   5.648   3.800
    1SIL  H004f28810   5.052   6.925   3.800
    1SIL  H004g28811   1.857   7.351   3.800
    1SIL  H004h28812   7.264   4.797   3.800
    1SIL  H004i28813   5.052   7.776   3.800
    1SIL  H004j28814   4.315   0.540   3.800
    1SIL  H004k28815   4.806   5.648   3.800
    1SIL  H004l28816   0.629   7.776   3.800
    1SIL  H004m28817   3.086   6.074   3.800
    1SIL  H004n28818   8.001   2.668   3.800
    1SIL  H004o28819   3.332   9.053   3.800
    1SIL  H004p28820   1.612   1.817   3.800
    1SIL  H004q28821   4.315   5.648   3.800
    1SIL  H004r28822   8.247   8.202   3.800
    1SIL  H004s28823   8.738   5.648   3.800
    1SIL  H004t28824   6.526   7.776   3.800
    1SIL  H004u28825   4.806   3.945   3.800
    1SIL  H004v28826   8.984   4.371   3.800
    1SIL  H004w28827   5.298   3.094   3.800
    1SIL  H004x28828   9.475   4.371   3.800
    1SIL  H004y28829   0.137   9.479   3.800
    1SIL  H004z28830   0.137   2.668   3.800
    1SIL  H005028831   0.629   2.668   3.800
    1SIL  H005128832   4.806   6.499   3.800
    1SIL  H005228833   2.840   6.499   3.800
    1SIL  H005328834   4.069   2.668   3.800
    1SIL  H005428835   2.103   2.668   3.800
    1SIL  H005528836   0.629   6.074   3.800
    1SIL  H005628837   3.086   8.628   3.800
    1SIL  H005728838   4.069   3.520   3.800
    1SIL  H005828839   6.772   5.648   3.800
    1SIL  H005928840   1.612   3.520   3.800
    1SIL  H005A28841   4.315   3.945   3.800
    1SIL  H005B28842   9.230   3.945   3.800
    1SIL  H005C28843   0.874   9.053   3.800
    1SIL  H005D28844   0.629   1.817   3.800
    1SIL  H005E28845   0.874   1.392   3.800
    1SIL  H005F28846   7.755   0.540   3.800
    1SIL  H005G28847   0.137   5.222   3.800
    1SIL  H005H28848   7.018   3.520   3.800
    1SIL  H005I28849   8.247   3.945   3.800
    1SIL  H005J28850   7.018   8.628   3.800
    1SIL  H005K28851   7.018   2.668   3.800
    1SIL  H005L28852   3.086   7.776   3.800
    1SIL  H005M28853   2.349   3.094   3.800
    1SIL  H005N28854   7.509   8.628   3.800
    1SIL  H005O28855   8.001   6.925   3.800
    1SIL  H005P28856   8.492   0.966   3.800
    1SIL  H005Q28857   8.247   0.540   3.800
    1SIL  H005R28858   3.577   1.817   3.800
    1SIL  H005S28859   6.772   9.053   3.800
    1SIL  H005T28860   0.874   5.648   3.800
    1SIL  H005U28861   8.001   6.074   3.800
    1SIL  H005V28862   7.755   6.499   3.800
    1SIL  H005W28863   1.612   4.371   3.800
    1SIL  H005X28864   7.018   5.222   3.800
    1SIL  H005Y28865   1.857   6.499   3.800
    1SIL  H005Z28866   4.315   2.243   3.800
    1SIL  H005a28867   8.247   7.351   3.800
    1SIL  H005b28868   7.018   0.966   3.800
    1SIL  H005c28869   5.298   6.499   3.800
    1SIL  H005d28870   3.823   3.094   3.800
    1SIL  H005e28871   6.772   0.540   3.800
    1SIL  H005f28872   2.349   0.540   3.800
    1SIL  H005g28873   4.806   4.797   3.800
    1SIL  H005h28874   1.612   7.776   3.800
    1SIL  H005i28875   7.264   1.392   3.800
    1SIL  H005j28876   9.475   5.222   3.800
    1SIL  H005k28877   5.543   5.222   3.800
    1SIL  H005l28878   0.383   3.094   3.800
    1SIL  H005m28879   2.349   7.351   3.800
    1SIL  H005n28880   5.298   2.243   3.800
    1SIL  H005o28881   8.984   6.074   3.800
    1SIL  H005p28882   8.984   8.628   3.800
    1SIL  H005q28883   0.383   6.499   3.800
    1SIL  H005r28884   5.052   8.628   3.800
    1SIL  H005s28885   7.018   1.817   3.800
    1SIL  H005t28886   0.383   1.392   3.800
    1SIL  H005u28887   5.543   2.668   3.800
    1SIL  H005v28888   5.543   1.817   3.800
    1SIL  H005w28889   2.595   6.074   3.800
    1SIL  H005x28890   2.595   0.115   3.800
    1SIL  H005y28891   1.120   3.520   3.800
    1SIL  H005z28892   8.984   6.925   3.800
    1SIL  H006028893   7.755   3.094   3.800
    1SIL  H006128894   2.595   7.776   3.800
    1SIL  H006228895   5.789   8.202   3.800
    1SIL  H006328896   8.738   4.797   3.800
    1SIL  H006428897   3.577   8.628   3.800
    1SIL  H006528898   3.086   3.520   3.800
    1SIL  H006628899   3.332   3.945   3.800
    1SIL  H006728900   5.052   3.520   3.800
    1SIL  H006828901   3.332   8.202   3.800
    1SIL  H006928902   9.230   6.499   3.800
    1SIL  H006A28903   6.772   2.243   3.800
    1SIL  H006B28904   1.612   0.966   3.800
    1SIL  H006C28905   4.069   6.074   3.800
    1SIL  H006D28906   5.052   0.115   3.800
    1SIL  H006E28907   1.612   6.925   3.800
    1SIL  H006F28908   4.560   6.925   3.800
    1SIL  H006G28909   5.789   9.053   3.800
    1SIL  H006H28910   8.492   2.668   3.800
    1SIL  H006I28911   3.332   0.540   3.800
    1SIL  H006J28912   4.560   1.817   3.800
    1SIL  H006K28913   0.137   4.371   3.800
    1SIL  H006L28914   6.281   5.648   3.800
    1SIL  H006M28915   3.332   4.797   3.800
    1SIL  H006N28916   7.755   8.202   3.800
    1SIL  H006O28917   1.120   5.222   3.800
    1SIL  H006P28918   4.806   2.243   3.800
    1SIL  H006Q28919   8.001   0.966   3.800
    1SIL  H006R28920   3.332   7.351   3.800
    1SIL  H006S28921   9.230   0.540   3.800
    1SIL  H006T28922   0.629   0.115   3.800
    1SIL  H006U28923   3.823   6.499   3.800
    1SIL  H006V28924   3.332   5.648   3.800
    1SIL  H006W28925   2.840   8.202   3.800
    1SIL  H006X28926   4.069   7.776   3.800
    1SIL  H006Y28927   5.052   4.371   3.800
    1SIL  H006Z28928   3.823   0.540   3.800
    1SIL  H006a28929   0.137   0.966   3.800
    1SIL  H006b28930   8.984   9.479   3.800
    1SIL  H006c28931   5.789   6.499   3.800
    1SIL  H006d28932   5.298   7.351   3.800
    1SIL  H006e28933   2.840   5.648   3.800
    1SIL  H006f28934   1.120   1.817   3.800
    1SIL  H006g28935   4.315   3.094   3.800
    1SIL  H006h28936   1.612   9.479   3.800
    1SIL  H006i28937   5.789   1.392   3.800
    1SIL  H006j28938   7.264   6.499   3.800
    1SIL  H006k28939   6.772   7.351   3.800
    1SIL  H006l28940   4.069   0.966   3.800
    1SIL  H006m28941   7.018   0.115   3.800
    1SIL  H006n28942   2.595   1.817   3.800
    1SIL  H006o28943   8.738   2.243   3.800
    1SIL  H006p28944   8.001   5.222   3.800
    1SIL  H006q28945   5.052   1.817   3.800
    1SIL  H006r28946   3.577   6.925   3.800
    1SIL  H006s28947   8.001   7.776   3.800
    1SIL  H006t28948   1.366   2.243   3.800
    1SIL  H006u28949   5.543   0.115   3.800
    1SIL  H006v28950   6.772   4.797   3.800
    1SIL  H006w28951   2.103   6.074   3.800
    1SIL  H006x28952   7.264   8.202   3.800
    1SIL  H006y28953   4.560   0.966   3.800
    1SIL  H006z28954   5.052   0.966   3.800
    1SIL  H007028955   7.755   1.392   3.800
    1SIL  H007128956   3.823   8.202   3.800
    1SIL  H007228957   9.475   9.479   3.800
    1SIL  H007328958   0.874   8.202   3.800
    1SIL  H007428959   8.247   5.648   3.800
    1SIL  H007528960   1.120   8.628   3.800
    1SIL  H007628961   5.543   9.479   3.800
    1SIL  H007728962   7.755   5.648   3.800
    1SIL  H007828963   5.298   1.392   3.800
    1SIL  H007928964   3.086   0.966   3.800
    1SIL  H007A28965   2.103   1.817   3.800
    1SIL  H007B28966   2.349   5.648   3.800
    1SIL  H007C28967   6.035   3.520   3.800
    1SIL  H007D28968   9.230   3.094   3.800
    1SIL  H007E28969   3.577   0.115   3.800
    1SIL  H007F28970   6.281   0.540   3.800
    1SIL  H007G28971   1.857   0.540   3.800
    1SIL  H007H28972   0.629   0.966   3.800
    1SIL  H007I28973   1.120   6.074   3.800
    1SIL  H007J28974   7.264   5.648   3.800
    1SIL  H007K28975   6.526   9.479   3.800
    1SIL  H007L28976   0.629   6.925   3.800
    1SIL  H007M28977   3.823   2.243   3.800
    1SIL  H007N28978   8.247   6.499   3.800
    1SIL  H007O28979   8.984   1.817   3.800
    1SIL  H007P28980   4.806   0.540   3.800
    1SIL  H007Q28981   9.230   4.568   0.000
    1SIL  H007R28982   3.823   7.973   0.000
    1SIL  H007S28983   9.475   5.844   0.000
    1SIL  H007T28984   9.721   1.162   0.000
    1SIL  H007U28985   3.332   9.675   0.000
    1SIL  H007V28986   5.298   0.311   0.000
    1SIL  H007W28987   4.315   6.270   0.000
    1SIL  H007X28988   2.595   6.696   0.000
    1SIL  H007Y28989   9.721   6.270   0.000
    1SIL  H007Z28990   0.629   7.547   0.000
    1SIL  H007a28991   7.264   8.824   0.000
    1SIL  H007b28992   7.018   2.439   0.000
    1SIL  H007c28993   6.772   5.419   0.000
    1SIL  H007d28994   7.018   3.291   0.000
    1SIL  H007e28995   4.315   4.568   0.000
    1SIL  H007f28996   2.840   7.973   0.000
    1SIL  H007g28997   6.035   8.398   0.000
    1SIL  H007h28998   3.823   4.568   0.000
    1SIL  H007i28999   2.103   9.250   0.000
    1SIL  H007j29000   5.789   3.716   0.000
    1SIL  H007k29001   8.492   1.588   0.000
    1SIL  H007l29002   4.315   2.014   0.000
    1SIL  H007m29003   4.315   0.311   0.000
    1SIL  H007n29004   0.137   1.588   0.000
    1SIL  H007o29005   2.349   6.270   0.000
    1SIL  H007p29006   4.560   3.291   0.000
    1SIL  H007q29007   9.475   4.142   0.000
    1SIL  H007r29008   7.755   9.675   0.000
    1SIL  H007s29009   2.840   9.675   0.000
    1SIL  H007t29010   9.475   1.588   0.000
    1SIL  H007u29011   4.560   4.142   0.000
    1SIL  H007v29012   5.789   9.675   0.000
    1SIL  H007w29013   0.383   2.865   0.000
    1SIL  H007x29014   4.560   7.547   0.000
    1SIL  H007y29015   1.857   5.419   0.000
    1SIL  H007z29016   9.230   2.014   0.000
    1SIL  H008029017   2.840   4.568   0.000
    1SIL  H008129018   1.120   9.250   0.000
    1SIL  H008229019   4.315   8.824   0.000
    1SIL  H008329020   8.984   4.142   0.000
    1SIL  H008429021   8.247   3.716   0.000
    1SIL  H008529022   9.230   7.973   0.000
    1SIL  H008629023   5.298   4.568   0.000
    1SIL  H008729024   4.806   8.824   0.000
    1SIL  H008829025   4.560   0.737   0.000
    1SIL  H008929026   8.492   5.844   0.000
    1SIL  H008A29027   7.018   7.547   0.000
    1SIL  H008B29028   3.823   2.014   0.000
    1SIL  H008C29029   5.543   3.291   0.000
    1SIL  H008D29030   3.577   1.588   0.000
    1SIL  H008E29031   2.349   7.121   0.000
    1SIL  H008F29032   0.383   7.973   0.000
    1SIL  H008G29033   8.738   3.716   0.000
    1SIL  H008H29034   1.366   4.568   0.000
    1SIL  H008I29035   7.509   5.844   0.000
    1SIL  H008J29036   4.069   9.250   0.000
    1SIL  H008K29037   3.577   3.291   0.000
    1SIL  H008L29038   8.492   7.547   0.000
    1SIL  H008M29039   8.001   8.398   0.000
    1SIL  H008N29040   3.332   2.865   0.000
    1SIL  H008O29041   4.806   6.270   0.000
    1SIL  H008P29042   1.612   0.737   0.000
    1SIL  H008Q29043   7.755   1.162   0.000
    1SIL  H008R29044   6.281   4.568   0.000
    1SIL  H008S29045   5.543   5.844   0.000
    1SIL  H008T29046   8.001   3.291   0.000
    1SIL  H008U29047   9.230   1.162   0.000
    1SIL  H008V29048   7.755   7.973   0.000
    1SIL  H008W29049   6.035   4.142   0.000
    1SIL  H008X29050   5.789   0.311   0.000
    1SIL  H008Y29051   1.120   6.696   0.000
    1SIL  H008Z29052   7.264   7.973   0.000
    1SIL  H008a29053   6.035   4.993   0.000
    1SIL  H008b29054   8.738   8.824   0.000
    1SIL  H008c29055   8.984   7.547   0.000
    1SIL  H008d29056   8.001   9.250   0.000
    1SIL  H008e29057   4.069   8.398   0.000
    1SIL  H008f29058   6.035   0.737   0.000
    1SIL  H008g29059   5.543   0.737   0.000
    1SIL  H008h29060   8.001   7.547   0.000
    1SIL  H008i29061   4.560   4.993   0.000
    1SIL  H008j29062   4.069   4.993   0.000
    1SIL  H008k29063   3.823   3.716   0.000
    1SIL  H008l29064   6.035   5.844   0.000
    1SIL  H008m29065   2.349   8.824   0.000
    1SIL  H008n29066   6.035   9.250   0.000
    1SIL  H008o29067   0.874   7.121   0.000
    1SIL  H008p29068   8.738   1.162   0.000
    1SIL  H008q29069   7.755   3.716   0.000
    1SIL  H008r29070   0.137   3.291   0.000
    1SIL  H008s29071   1.612   9.250   0.000
    1SIL  H008t29072   7.755   7.121   0.000
    1SIL  H008u29073   2.840   7.121   0.000
    1SIL  H008v29074   3.577   9.250   0.000
    1SIL  H008w29075   0.137   8.398   0.000
    1SIL  H008x29076   0.874   8.824   0.000
    1SIL  H008y29077   6.281   0.311   0.000
    1SIL  H008z29078   3.823   6.270   0.000
    1SIL  H009029079   6.281   1.162   0.000
    1SIL  H009129080   9.721   4.568   0.000
    1SIL  H009229081   9.475   9.250   0.000
    1SIL  H009329082   0.383   5.419   0.000
    1SIL  H009429083   5.298   3.716   0.000
    1SIL  H009529084   0.874   2.014   0.000
    1SIL  H009629085   2.103   2.439   0.000
    1SIL  H009729086   0.874   3.716   0.000
    1SIL  H009829087   5.298   1.162   0.000
    1SIL  H009929088   4.315   1.162   0.000
    1SIL  H009A29089   0.874   1.162   0.000
    1SIL  H009B29090   3.332   1.162   0.000
    1SIL  H009C29091   0.383   4.568   0.000
    1SIL  H009D29092   3.086   6.696   0.000
    1SIL  H009E29093   7.264   4.568   0.000
    1SIL  H009F29094   7.509   7.547   0.000
    1SIL  H009G29095   0.137   4.142   0.000
    1SIL  H009H29096   0.874   7.973   0.000
    1SIL  H009I29097   7.018   6.696   0.000
    1SIL  H009J29098   8.492   8.398   0.000
    1SIL  H009K29099   0.629   8.398   0.000
    1SIL  H009L29100   4.806   5.419   0.000
    1SIL  H009M29101   6.526   0.737   0.000
    1SIL  H009N29102   0.137   6.696   0.000
    1SIL  H009O29103   2.595   5.844   0.000
    1SIL  H009P29104   3.086   0.737   0.000
    1SIL  H009Q29105   3.823   1.162   0.000
    1SIL  H009R29106   5.789   4.568   0.000
    1SIL  H009S29107   2.840   5.419   0.000
    1SIL  H009T29108   8.247   7.121   0.000
    1SIL  H009U29109   5.298   6.270   0.000
    1SIL  H009V29110   6.526   6.696   0.000
    1SIL  H009W29111   8.247   6.270   0.000
    1SIL  H009X29112   6.281   8.824   0.000
    1SIL  H009Y29113   3.086   8.398   0.000
    1SIL  H009Z29114   8.984   4.993   0.000
    1SIL  H009a29115   1.120   8.398   0.000
    1SIL  H009b29116   3.332   2.014   0.000
    1SIL  H009c29117   5.789   5.419   0.000
    1SIL  H009d29118   7.755   4.568   0.000
    1SIL  H009e29119   2.349   2.014   0.000
    1SIL  H009f29120   9.721   7.973   0.000
    1SIL  H009g29121   0.383   1.162   0.000
    1SIL  H009h29122   4.069   2.439   0.000
    1SIL  H009i29123   7.509   2.439   0.000
    1SIL  H009j29124   5.298   8.824   0.000
    1SIL  H009k29125   4.315   9.675   0.000
    1SIL  H009l29126   8.984   3.291   0.000
    1SIL  H009m29127   7.018   9.250   0.000
    1SIL  H009n29128   2.595   9.250   0.000
    1SIL  H009o29129   3.577   0.737   0.000
    1SIL  H009p29130   1.857   2.865   0.000
    1SIL  H009q29131   6.772   2.865   0.000
    1SIL  H009r29132   5.543   4.142   0.000
    1SIL  H009s29133   2.595   2.439   0.000
    1SIL  H009t29134   7.755   6.270   0.000
    1SIL  H009u29135   8.984   1.588   0.000
    1SIL  H009v29136   4.315   3.716   0.000
    1SIL  H009w29137   7.264   2.865   0.000
    1SIL  H009x29138   4.069   5.844   0.000
    1SIL  H009y29139   3.823   9.675   0.000
    1SIL  H009z29140   7.755   2.014   0.000
    1SIL  H00A029141   0.629   0.737   0.000
    1SIL  H00A129142   9.475   7.547   0.000
    1SIL  H00A229143   6.772   3.716   0.000
    1SIL  H00A329144   5.543   1.588   0.000
    1SIL  H00A429145   5.789   1.162   0.000
    1SIL  H00A529146   0.874   9.675   0.000
    1SIL  H00A629147   6.035   7.547   0.000
    1SIL  H00A729148   2.595   8.398   0.000
    1SIL  H00A829149   1.120   1.588   0.000
    1SIL  H00A929150   3.086   1.588   0.000
    1SIL  H00AA29151   2.349   9.675   0.000
    1SIL  H00AB29152   8.984   0.737   0.000
    1SIL  H00AC29153   6.281   7.973   0.000
    1SIL  H00AD29154   6.772   0.311   0.000
    1SIL  H00AE29155   0.629   9.250   0.000
    1SIL  H00AF29156   4.315   5.419   0.000
    1SIL  H00AG29157   2.595   3.291   0.000
    1SIL  H00AH29158   5.052   1.588   0.000
    1SIL  H00AI29159   4.806   7.973   0.000
    1SIL  H00AJ29160   4.069   4.142   0.000
    1SIL  H00AK29161   1.366   3.716   0.000
    1SIL  H00AL29162   3.823   8.824   0.000
    1SIL  H00AM29163   4.560   6.696   0.000
    1SIL  H00AN29164   8.001   2.439   0.000
    1SIL  H00AO29165   9.721   2.865   0.000
    1SIL  H00AP29166   2.349   1.162   0.000
    1SIL  H00AQ29167   4.806   0.311   0.000
    1SIL  H00AR29168   6.526   3.291   0.000
    1SIL  H00AS29169   1.366   9.675   0.000
    1SIL  H00AT29170   3.577   7.547   0.000
    1SIL  H00AU29171   8.247   8.824   0.000
    1SIL  H00AV29172   6.772   8.824   0.000
    1SIL  H00AW29173   1.366   0.311   0.000
    1SIL  H00AX29174   8.984   9.250   0.000
    1SIL  H00AY29175   1.366   5.419   0.000
    1SIL  H00AZ29176   3.823   0.311   0.000
    1SIL  H00Aa29177   8.247   2.014   0.000
    1SIL  H00Ab29178   0.383   0.311   0.000
    1SIL  H00Ac29179   7.018   5.844   0.000
    1SIL  H00Ad29180   2.595   7.547   0.000
    1SIL  H00Ae29181   8.738   7.121   0.000
    1SIL  H00Af29182   0.874   2.865   0.000
    1SIL  H00Ag29183   2.840   2.865   0.000
    1SIL  H00Ah29184   8.001   4.993   0.000
    1SIL  H00Ai29185   3.086   3.291   0.000
    1SIL  H00Aj29186   5.052   7.547   0.000
    1SIL  H00Ak29187   1.612   3.291   0.000
    1SIL  H00Al29188   8.247   7.973   0.000
    1SIL  H00Am29189   5.052   8.398   0.000
    1SIL  H00An29190   8.001   6.696   0.000
    1SIL  H00Ao29191   0.629   5.844   0.000
    1SIL  H00Ap29192   3.086   9.250   0.000
    1SIL  H00Aq29193   5.543   7.547   0.000
    1SIL  H00Ar29194   1.857   2.014   0.000
    1SIL  H00As29195   0.874   0.311   0.000
    1SIL  H00At29196   4.315   7.121   0.000
    1SIL  H00Au29197   4.560   2.439   0.000
    1SIL  H00Av29198   2.103   3.291   0.000
    1SIL  H00Aw29199   4.560   9.250   0.000
    1SIL  H00Ax29200   9.721   0.311   0.000
    1SIL  H00Ay29201   8.001   1.588   0.000
    1SIL  H00Az29202   0.137   4.993   0.000
    1SIL  H00B029203   0.137   7.547   0.000
    1SIL  H00B129204   2.103   8.398   0.000
    1SIL  H00B229205   2.349   4.568   0.000
    1SIL  H00B329206   7.755   2.865   0.000
    1SIL  H00B429207   1.366   1.162   0.000
    1SIL  H00B529208   2.103   5.844   0.000
    1SIL  H00B629209   6.281   6.270   0.000
    1SIL  H00B729210   6.772   1.162   0.000
    1SIL  H00B829211   5.298   2.014   0.000
    1SIL  H00B929212   2.103   1.588   0.000
    1SIL  H00BA29213   9.721   5.419   0.000
    1SIL  H00BB29214   2.840   3.716   0.000
    1SIL  H00BC29215   3.332   4.568   0.000
    1SIL  H00BD29216   7.264   6.270   0.000
    1SIL  H00BE29217   0.137   2.439   0.000
    1SIL  H00BF29218   6.526   9.250   0.000
    1SIL  H00BG29219   8.738   6.270   0.000
    1SIL  H00BH29220   9.721   9.675   0.000
    1SIL  H00BI29221   9.721   3.716   0.000
    1SIL  H00BJ29222   8.001   4.142   0.000
    1SIL  H00BK29223   4.806   7.121   0.000
    1SIL  H00BL29224   4.069   0.737   0.000
    1SIL  H00BM29225   8.984   8.398   0.000
    1SIL  H00BN29226   3.086   4.993   0.000
    1SIL  H00BO29227   6.035   2.439   0.000
    1SIL  H00BP29228   7.509   0.737   0.000
    1SIL  H00BQ29229   5.789   2.865   0.000
    1SIL  H00BR29230   9.475   8.398   0.000
    1SIL  H00BS29231   1.120   5.844   0.000
    1SIL  H00BT29232   7.264   2.014   0.000
    1SIL  H00BU29233   8.247   5.419   0.000
    1SIL  H00BV29234   1.612   5.844   0.000
    1SIL  H00BW29235   7.018   4.993   0.000
    1SIL  H00BX29236   2.349   5.419   0.000
    1SIL  H00BY29237   6.772   9.675   0.000
    1SIL  H00BZ29238   0.383   9.675   0.000
    1SIL  H00Ba29239   0.383   3.716   0.000
    1SIL  H00Bb29240   6.281   5.419   0.000
    1SIL  H00Bc29241   4.806   2.014   0.000
    1SIL  H00Bd29242   5.298   9.675   0.000
    1SIL  H00Be29243   8.247   2.865   0.000
    1SIL  H00Bf29244   1.120   4.142   0.000
    1SIL  H00Bg29245   5.298   7.121   0.000
    1SIL  H00Bh29246   6.772   7.121   0.000
    1SIL  H00Bi29247   8.984   2.439   0.000
    1SIL  H00Bj29248   2.349   3.716   0.000
    1SIL  H00Bk29249   0.383   6.270   0.000
    1SIL  H00Bl29250   2.840   2.014   0.000
    1SIL  H00Bm29251   7.264   5.419   0.000
    1SIL  H00Bn29252   8.247   4.568   0.000
    1SIL  H00Bo29253   7.264   1.162   0.000
    1SIL  H00Bp29254   1.857   7.973   0.000
    1SIL  H00Bq29255   7.509   1.588   0.000
    1SIL  H00Br29256   4.806   1.162   0.000
    1SIL  H00Bs29257   9.475   2.439   0.000
    1SIL  H00Bt29258   1.857   8.824   0.000
    1SIL  H00Bu29259   2.595   1.588   0.000
    1SIL  H00Bv29260   5.052   3.291   0.000
    1SIL  H00Bw29261   3.577   4.993   0.000
    1SIL  H00Bx29262   5.052   4.993   0.000
    1SIL  H00By29263   6.772   6.270   0.000
    1SIL  H00Bz29264   7.264   9.675   0.000
    1SIL  H00C029265   2.349   7.973   0.000
    1SIL  H00C129266   6.035   6.696   0.000
    1SIL  H00C229267   5.543   9.250   0.000
    1SIL  H00C329268   8.738   2.865   0.000
    1SIL  H00C429269   4.560   1.588   0.000
    1SIL  H00C529270   1.366   6.270   0.000
    1SIL  H00C629271   1.366   2.014   0.000
    1SIL  H00C729272   8.738   4.568   0.000
    1SIL  H00C829273   8.492   0.737   0.000
    1SIL  H00C929274   5.298   7.973   0.000
    1SIL  H00CA29275   3.332   8.824   0.000
    1SIL  H00CB29276   7.264   0.311   0.000
    1SIL  H00CC29277   0.629   1.588   0.000
    1SIL  H00CD29278   2.103   6.696   0.000
    1SIL  H00CE29279   9.230   7.121   0.000
    1SIL  H00CF29280   9.230   2.865   0.000
    1SIL  H00CG29281   8.492   4.993   0.000
    1SIL  H00CH29282   4.069   6.696   0.000
    1SIL  H00CI29283   5.052   4.142   0.000
    1SIL  H00CJ29284   9.230   6.270   0.000
    1SIL  H00CK29285   3.086   7.547   0.000
    1SIL  H00CL29286   3.577   6.696   0.000
    1SIL  H00CM29287   4.069   7.547   0.000
    1SIL  H00CN29288   4.560   8.398   0.000
    1SIL  H00CO29289   3.332   5.419   0.000
    1SIL  H00CP29290   3.332   0.311   0.000
    1SIL  H00CQ29291   0.629   4.993   0.000
    1SIL  H00CR29292   2.595   4.142   0.000
    1SIL  H00CS29293   5.052   6.696   0.000
    1SIL  H00CT29294   9.230   3.716   0.000
    1SIL  H00CU29295   7.018   0.737   0.000
    1SIL  H00CV29296   5.543   6.696   0.000
    1SIL  H00CW29297   1.857   7.121   0.000
    1SIL  H00CX29298   2.840   1.162   0.000
    1SIL  H00CY29299   5.052   2.439   0.000
    1SIL  H00CZ29300   0.874   5.419   0.000
    1SIL  H00Ca29301   0.629   6.696   0.000
    1SIL  H00Cb29302   2.103   4.993   0.000
    1SIL  H00Cc29303   8.738   0.311   0.000
    1SIL  H00Cd29304   6.526   4.142   0.000
    1SIL  H00Ce29305   5.789   8.824   0.000
    1SIL  H00Cf29306   1.120   7.547   0.000
    1SIL  H00Cg29307   5.789   7.973   0.000
    1SIL  H00Ch29308   2.103   0.737   0.000
    1SIL  H00Ci29309   0.874   6.270   0.000
    1SIL  H00Cj29310   6.526   1.588   0.000
    1SIL  H00Ck29311   1.366   7.121   0.000
    1SIL  H00Cl29312   7.018   4.142   0.000
    1SIL  H00Cm29313   7.755   5.419   0.000
    1SIL  H00Cn29314   4.806   4.568   0.000
    1SIL  H00Co29315   2.840   0.311   0.000
    1SIL  H00Cp29316   9.230   0.311   0.000
    1SIL  H00Cq29317   8.984   6.696   0.000
    1SIL  H00Cr29318   6.526   4.993   0.000
    1SIL  H00Cs29319   4.806   9.675   0.000
    1SIL  H00Ct29320   3.332   3.716   0.000
    1SIL  H00Cu29321   1.366   7.973   0.000
    1SIL  H00Cv29322   9.230   8.824   0.000
    1SIL  H00Cw29323   1.612   4.993   0.000
    1SIL  H00Cx29324   8.247   1.162   0.000
    1SIL  H00Cy29325   9.721   8.824   0.000
    1SIL  H00Cz29326   4.069   1.588   0.000
    1SIL  H00D029327   1.366   2.865   0.000
    1SIL  H00D129328   1.120   4.993   0.000
    1SIL  H00D229329   2.840   8.824   0.000
    1SIL  H00D329330   7.018   8.398   0.000
    1SIL  H00D429331   3.086   4.142   0.000
    1SIL  H00D529332   2.840   6.270   0.000
    1SIL  H00D629333   4.806   2.865   0.000
    1SIL  H00D729334   3.086   5.844   0.000
    1SIL  H00D829335   7.509   4.142   0.000
    1SIL  H00D929336   7.264   7.121   0.000
    1SIL  H00DA29337   1.857   1.162   0.000
    1SIL  H00DB29338   0.383   8.824   0.000
    1SIL  H00DC29339   6.281   3.716   0.000
    1SIL  H00DD29340   1.366   8.824   0.000
    1SIL  H00DE29341   1.120   0.737   0.000
    1SIL  H00DF29342   1.612   6.696   0.000
    1SIL  H00DG29343   5.298   2.865   0.000
    1SIL  H00DH29344   3.577   4.142   0.000
    1SIL  H00DI29345   6.526   2.439   0.000
    1SIL  H00DJ29346   7.755   8.824   0.000
    1SIL  H00DK29347   0.137   9.250   0.000
    1SIL  H00DL29348   6.035   3.291   0.000
    1SIL  H00DM29349   8.492   6.696   0.000
    1SIL  H00DN29350   7.509   8.398   0.000
    1SIL  H00DO29351   3.332   7.121   0.000
    1SIL  H00DP29352   8.492   4.142   0.000
    1SIL  H00DQ29353   1.612   4.142   0.000
    1SIL  H00DR29354   8.738   5.419   0.000
    1SIL  H00DS29355   8.492   2.439   0.000
    1SIL  H00DT29356   5.052   0.737   0.000
    1SIL  H00DU29357   6.772   4.568   0.000
    1SIL  H00DV29358   9.230   9.675   0.000
    1SIL  H00DW29359   1.857   9.675   0.000
    1SIL  H00DX29360   7.509   6.696   0.000
    1SIL  H00DY29361   1.120   2.439   0.000
    1SIL  H00DZ29362   9.475   6.696   0.000
    1SIL  H00Da29363   5.052   5.844   0.000
    1SIL  H00Db29364   2.103   7.547   0.000
    1SIL  H00Dc29365   8.738   2.014   0.000
    1SIL  H00Dd29366   9.721   2.014   0.000
    1SIL  H00De29367   9.230   5.419   0.000
    1SIL  H00Df29368   3.086   2.439   0.000
    1SIL  H00Dg29369   0.629   4.142   0.000
    1SIL  H00Dh29370   1.857   6.270   0.000
    1SIL  H00Di29371   4.315   2.865   0.000
    1SIL  H00Dj29372   3.577   8.398   0.000
    1SIL  H00Dk29373   6.281   7.121   0.000
    1SIL  H00Dl29374   1.857   3.716   0.000
    1SIL  H00Dm29375   6.035   1.588   0.000
    1SIL  H00Dn29376   1.857   4.568   0.000
    1SIL  H00Do29377   3.332   6.270   0.000
    1SIL  H00Dp29378   4.806   3.716   0.000
    1SIL  H00Dq29379   0.629   2.439   0.000
    1SIL  H00Dr29380   6.772   7.973   0.000
    1SIL  H00Ds29381   8.492   9.250   0.000
    1SIL  H00Dt29382   4.069   3.291   0.000
    1SIL  H00Du29383   8.738   9.675   0.000
    1SIL  H00Dv29384   9.475   4.993   0.000
    1SIL  H00Dw29385   7.509   4.993   0.000
    1SIL  H00Dx29386   9.475   0.737   0.000
    1SIL  H00Dy29387   2.103   4.142   0.000
    1SIL  H00Dz29388   3.823   2.865   0.000
    1SIL  H00E029389   1.612   1.588   0.000
    1SIL  H00E129390   8.247   0.311   0.000
    1SIL  H00E229391   6.526   5.844   0.000
    1SIL  H00E329392   6.281   9.675   0.000
    1SIL  H00E429393   6.772   2.014   0.000
    1SIL  H00E529394   8.738   7.973   0.000
    1SIL  H00E629395   3.332   7.973   0.000
    1SIL  H00E729396   9.721   7.121   0.000
    1SIL  H00E829397   6.526   7.547   0.000
    1SIL  H00E929398   6.526   8.398   0.000
    1SIL  H00EA29399   1.120   3.291   0.000
    1SIL  H00EB29400   2.595   4.993   0.000
    1SIL  H00EC29401   5.298   5.419   0.000
    1SIL  H00ED29402   2.595   0.737   0.000
    1SIL  H00EE29403   8.984   5.844   0.000
    1SIL  H00EF29404   1.612   8.398   0.000
    1SIL  H00EG29405   8.001   5.844   0.000
    1SIL  H00EH29406   3.823   5.419   0.000
    1SIL  H00EI29407   4.315   7.973   0.000
    1SIL  H00EJ29408   2.349   2.865   0.000
    1SIL  H00EK29409   4.560   5.844   0.000
    1SIL  H00EL29410   5.543   8.398   0.000
    1SIL  H00EM29411   7.755   0.311   0.000
    1SIL  H00EN29412   8.001   0.737   0.000
    1SIL  H00EO29413   2.349   0.311   0.000
    1SIL  H00EP29414   1.612   2.439   0.000
    1SIL  H00EQ29415   5.789   2.014   0.000
    1SIL  H00ER29416   7.018   1.588   0.000
    1SIL  H00ES29417   3.577   5.844   0.000
    1SIL  H00ET29418   8.492   3.291   0.000
    1SIL  H00EU29419   0.137   5.844   0.000
    1SIL  H00EV29420   1.857   0.311   0.000
    1SIL  H00EW29421   7.509   9.250   0.000
    1SIL  H00EX29422   9.475   3.291   0.000
    1SIL  H00EY29423   7.509   3.291   0.000
    1SIL  H00EZ29424   5.052   9.250   0.000
    1SIL  H00Ea29425   0.629   3.291   0.000
    1SIL  H00Eb29426   7.264   3.716   0.000
    1SIL  H00Ec29427   8.247   9.675   0.000
    1SIL  H00Ed29428   0.383   2.014   0.000
    1SIL  H00Ee29429   5.789   6.270   0.000
    1SIL  H00Ef29430   3.823   7.121   0.000
    1SIL  H00Eg29431   3.577   2.439   0.000
    1SIL  H00Eh29432   0.383   7.121   0.000
    1SIL  H00Ei29433   5.789   7.121   0.000
    1SIL  H00Ej29434   5.543   2.439   0.000
    1SIL  H00Ek29435   5.543   4.993   0.000
    1SIL  H00El29436   1.612   7.547   0.000
    1SIL  H00Em29437   0.137   0.737   0.000
    1SIL  H00En29438   0.874   4.568   0.000
    1SIL  H00Eo29439   6.281   2.014   0.000
    1SIL  H00Ep29440   6.281   2.865   0.000
   9.82993   9.78992   3.80270   0.00000   0.00000   0.00000   0.00000   0.00000   0.00000
