[moleculetype]
; molname nrexcl
  SIL    1

[atoms]
;     nr    type   resnr residue    atom    cgnr    charge      mass
       1       K       1    MUSC   K0001       1       1.0    39.098
       2       K       1    MUSC   K0002       1       1.0    39.098
       3      ao       1    MUSC   Al001       1     1.575    26.982
       4      ao       1    MUSC   Al002       1     1.575    26.982
       5      ao       1    MUSC   Al003       1     1.575    26.982
       6      ao       1    MUSC   Al004       1     1.575    26.982
       7      ao       1    MUSC   Al005       1     1.575    26.982
       8      ao       1    MUSC   Al006       1     1.575    26.982
       9      ao       1    MUSC   Al007       1     1.575    26.982
      10      ao       1    MUSC   Al008       1     1.575    26.982
      11      st       1    MUSC   Si001       1       2.1    28.086
      12      st       1    MUSC   Si002       1       2.1    28.086
      13      st       1    MUSC   Si003       1       2.1    28.086
      14      st       1    MUSC   Si004       1       2.1    28.086
      15      st       1    MUSC   Si005       1       2.1    28.086
      16      st       1    MUSC   Si006       1       2.1    28.086
      17      st       1    MUSC   Si007       1       2.1    28.086
      18      st       1    MUSC   Si008       1       2.1    28.086
      19      st       1    MUSC   Si009       1       2.1    28.086
      20      st       1    MUSC   Si00A       1       2.1    28.086
      21      st       1    MUSC   Si00B       1       2.1    28.086
      22      st       1    MUSC   Si00C       1       2.1    28.086
      23      st       1    MUSC   Si00D       1       2.1    28.086
      24      st       1    MUSC   Si00E       1       2.1    28.086
      25      st       1    MUSC   Si00F       1       2.1    28.086
      26      st       1    MUSC   Si00G       1       2.1    28.086
      27      ob       1    MUSC   O0001       1     -1.05    15.999
      28      ob       1    MUSC   O0002       1     -1.05    15.999
      29      ob       1    MUSC   O0003       1     -1.05    15.999
      30      ob       1    MUSC   O0004       1     -1.05    15.999
      31      oh       1    MUSC   O0005       1     -0.95    15.999
      32      oh       1    MUSC   O0006       1     -0.95    15.999
      33      oh       1    MUSC   O0007       1     -0.95    15.999
      34      oh       1    MUSC   O0008       1     -0.95    15.999
      35      ob       1    MUSC   O0009       1     -1.05    15.999
      36      ob       1    MUSC   O000A       1     -1.05    15.999
      37      ob       1    MUSC   O000B       1     -1.05    15.999
      38      ob       1    MUSC   O000C       1     -1.05    15.999
      39      ob       1    MUSC   O000D       1     -1.05    15.999
      40      ob       1    MUSC   O000E       1     -1.05    15.999
      41      ob       1    MUSC   O000F       1     -1.05    15.999
      42      ob       1    MUSC   O000G       1     -1.05    15.999
      43      ob       1    MUSC   O000H       1     -1.05    15.999
      44      ob       1    MUSC   O000I       1     -1.05    15.999
      45      ob       1    MUSC   O000J       1     -1.05    15.999
      46      ob       1    MUSC   O000K       1     -1.05    15.999
      47      ob       1    MUSC   O000L       1     -1.05    15.999
      48      ob       1    MUSC   O000M       1     -1.05    15.999
      49      ob       1    MUSC   O000N       1     -1.05    15.999
      50      ob       1    MUSC   O000O       1     -1.05    15.999
      51      ob       1    MUSC   O000P       1     -1.05    15.999
      52      ob       1    MUSC   O000Q       1     -1.05    15.999
      53      ob       1    MUSC   O000R       1     -1.05    15.999
      54      ob       1    MUSC   O000S       1     -1.05    15.999
      55      oh       1    MUSC   O000T       1     -0.95    15.999
      56      oh       1    MUSC   O000U       1     -0.95    15.999
      57      oh       1    MUSC   O000V       1     -0.95    15.999
      58      oh       1    MUSC   O000W       1     -0.95    15.999
      59      ob       1    MUSC   O000X       1     -1.05    15.999
      60      ob       1    MUSC   O000Y       1     -1.05    15.999
      61      ob       1    MUSC   O000Z       1     -1.05    15.999
      62      ob       1    MUSC   O000a       1     -1.05    15.999
      63      ob       1    MUSC   O000b       1     -1.05    15.999
      64      ob       1    MUSC   O000c       1     -1.05    15.999
      65      ob       1    MUSC   O000d       1     -1.05    15.999
      66      ob       1    MUSC   O000e       1     -1.05    15.999
      67      ob       1    MUSC   O000f       1     -1.05    15.999
      68      ob       1    MUSC   O000g       1     -1.05    15.999
      69      ob       1    MUSC   O000h       1     -1.05    15.999
      70      ob       1    MUSC   O000i       1     -1.05    15.999
      71      ob       1    MUSC   O000j       1     -1.05    15.999
      72      ob       1    MUSC   O000k       1     -1.05    15.999
      73      ob       1    MUSC   O000l       1     -1.05    15.999
      74      ob       1    MUSC   O000m       1     -1.05    15.999
      75       K       1    MUSC   K0003       1       1.0    39.098
      76       K       1    MUSC   K0004       1       1.0    39.098
      77       K       1    MUSC   K0005       1       1.0    39.098
      78       K       1    MUSC   K0006       1       1.0    39.098
      79      ao       1    MUSC   Al009       1     1.575    26.982
      80      ao       1    MUSC   Al00A       1     1.575    26.982
      81      ao       1    MUSC   Al00B       1     1.575    26.982
      82      ao       1    MUSC   Al00C       1     1.575    26.982
      83      ao       1    MUSC   Al00D       1     1.575    26.982
      84      ao       1    MUSC   Al00E       1     1.575    26.982
      85      ao       1    MUSC   Al00F       1     1.575    26.982
      86      ao       1    MUSC   Al00G       1     1.575    26.982
      87      st       1    MUSC   Si00H       1       2.1    28.086
      88      st       1    MUSC   Si00I       1       2.1    28.086
      89      st       1    MUSC   Si00J       1       2.1    28.086
      90      st       1    MUSC   Si00K       1       2.1    28.086
      91      st       1    MUSC   Si00L       1       2.1    28.086
      92      st       1    MUSC   Si00M       1       2.1    28.086
      93      st       1    MUSC   Si00N       1       2.1    28.086
      94      st       1    MUSC   Si00O       1       2.1    28.086
      95      st       1    MUSC   Si00P       1       2.1    28.086
      96      st       1    MUSC   Si00Q       1       2.1    28.086
      97      st       1    MUSC   Si00R       1       2.1    28.086
      98      st       1    MUSC   Si00S       1       2.1    28.086
      99      st       1    MUSC   Si00T       1       2.1    28.086
     100      st       1    MUSC   Si00U       1       2.1    28.086
     101      st       1    MUSC   Si00V       1       2.1    28.086
     102      st       1    MUSC   Si00W       1       2.1    28.086
     103      ob       1    MUSC   O000n       1     -1.05    15.999
     104      ob       1    MUSC   O000o       1     -1.05    15.999
     105      ob       1    MUSC   O000p       1     -1.05    15.999
     106      ob       1    MUSC   O000q       1     -1.05    15.999
     107      oh       1    MUSC   O000r       1     -0.95    15.999
     108      oh       1    MUSC   O000s       1     -0.95    15.999
     109      oh       1    MUSC   O000t       1     -0.95    15.999
     110      oh       1    MUSC   O000u       1     -0.95    15.999
     111      ob       1    MUSC   O000v       1     -1.05    15.999
     112      ob       1    MUSC   O000w       1     -1.05    15.999
     113      ob       1    MUSC   O000x       1     -1.05    15.999
     114      ob       1    MUSC   O000y       1     -1.05    15.999
     115      ob       1    MUSC   O000z       1     -1.05    15.999
     116      ob       1    MUSC   O0010       1     -1.05    15.999
     117      ob       1    MUSC   O0011       1     -1.05    15.999
     118      ob       1    MUSC   O0012       1     -1.05    15.999
     119      ob       1    MUSC   O0013       1     -1.05    15.999
     120      ob       1    MUSC   O0014       1     -1.05    15.999
     121      ob       1    MUSC   O0015       1     -1.05    15.999
     122      ob       1    MUSC   O0016       1     -1.05    15.999
     123      ob       1    MUSC   O0017       1     -1.05    15.999
     124      ob       1    MUSC   O0018       1     -1.05    15.999
     125      ob       1    MUSC   O0019       1     -1.05    15.999
     126      ob       1    MUSC   O001A       1     -1.05    15.999
     127      ob       1    MUSC   O001B       1     -1.05    15.999
     128      ob       1    MUSC   O001C       1     -1.05    15.999
     129      ob       1    MUSC   O001D       1     -1.05    15.999
     130      ob       1    MUSC   O001E       1     -1.05    15.999
     131      oh       1    MUSC   O001F       1     -0.95    15.999
     132      oh       1    MUSC   O001G       1     -0.95    15.999
     133      oh       1    MUSC   O001H       1     -0.95    15.999
     134      oh       1    MUSC   O001I       1     -0.95    15.999
     135      ob       1    MUSC   O001J       1     -1.05    15.999
     136      ob       1    MUSC   O001K       1     -1.05    15.999
     137      ob       1    MUSC   O001L       1     -1.05    15.999
     138      ob       1    MUSC   O001M       1     -1.05    15.999
     139      ob       1    MUSC   O001N       1     -1.05    15.999
     140      ob       1    MUSC   O001O       1     -1.05    15.999
     141      ob       1    MUSC   O001P       1     -1.05    15.999
     142      ob       1    MUSC   O001Q       1     -1.05    15.999
     143      ob       1    MUSC   O001R       1     -1.05    15.999
     144      ob       1    MUSC   O001S       1     -1.05    15.999
     145      ob       1    MUSC   O001T       1     -1.05    15.999
     146      ob       1    MUSC   O001U       1     -1.05    15.999
     147      ob       1    MUSC   O001V       1     -1.05    15.999
     148      ob       1    MUSC   O001W       1     -1.05    15.999
     149      ob       1    MUSC   O001X       1     -1.05    15.999
     150      ob       1    MUSC   O001Y       1     -1.05    15.999
     151       K       1    MUSC   K0007       1       1.0    39.098
     152       K       1    MUSC   K0008       1       1.0    39.098
     153      ao       1    MUSC   Al00H       1     1.575    26.982
     154      ao       1    MUSC   Al00I       1     1.575    26.982
     155      ao       1    MUSC   Al00J       1     1.575    26.982
     156      ao       1    MUSC   Al00K       1     1.575    26.982
     157      ao       1    MUSC   Al00L       1     1.575    26.982
     158      ao       1    MUSC   Al00M       1     1.575    26.982
     159      ao       1    MUSC   Al00N       1     1.575    26.982
     160      ao       1    MUSC   Al00O       1     1.575    26.982
     161      st       1    MUSC   Si00X       1       2.1    28.086
     162      st       1    MUSC   Si00Y       1       2.1    28.086
     163      st       1    MUSC   Si00Z       1       2.1    28.086
     164      st       1    MUSC   Si00a       1       2.1    28.086
     165      st       1    MUSC   Si00b       1       2.1    28.086
     166      st       1    MUSC   Si00c       1       2.1    28.086
     167      st       1    MUSC   Si00d       1       2.1    28.086
     168      st       1    MUSC   Si00e       1       2.1    28.086
     169      st       1    MUSC   Si00f       1       2.1    28.086
     170      st       1    MUSC   Si00g       1       2.1    28.086
     171      st       1    MUSC   Si00h       1       2.1    28.086
     172      st       1    MUSC   Si00i       1       2.1    28.086
     173      st       1    MUSC   Si00j       1       2.1    28.086
     174      st       1    MUSC   Si00k       1       2.1    28.086
     175      st       1    MUSC   Si00l       1       2.1    28.086
     176      st       1    MUSC   Si00m       1       2.1    28.086
     177      ob       1    MUSC   O001Z       1     -1.05    15.999
     178      ob       1    MUSC   O001a       1     -1.05    15.999
     179      ob       1    MUSC   O001b       1     -1.05    15.999
     180      ob       1    MUSC   O001c       1     -1.05    15.999
     181      oh       1    MUSC   O001d       1     -0.95    15.999
     182      oh       1    MUSC   O001e       1     -0.95    15.999
     183      oh       1    MUSC   O001f       1     -0.95    15.999
     184      oh       1    MUSC   O001g       1     -0.95    15.999
     185      ob       1    MUSC   O001h       1     -1.05    15.999
     186      ob       1    MUSC   O001i       1     -1.05    15.999
     187      ob       1    MUSC   O001j       1     -1.05    15.999
     188      ob       1    MUSC   O001k       1     -1.05    15.999
     189      ob       1    MUSC   O001l       1     -1.05    15.999
     190      ob       1    MUSC   O001m       1     -1.05    15.999
     191      ob       1    MUSC   O001n       1     -1.05    15.999
     192      ob       1    MUSC   O001o       1     -1.05    15.999
     193      ob       1    MUSC   O001p       1     -1.05    15.999
     194      ob       1    MUSC   O001q       1     -1.05    15.999
     195      ob       1    MUSC   O001r       1     -1.05    15.999
     196      ob       1    MUSC   O001s       1     -1.05    15.999
     197      ob       1    MUSC   O001t       1     -1.05    15.999
     198      ob       1    MUSC   O001u       1     -1.05    15.999
     199      ob       1    MUSC   O001v       1     -1.05    15.999
     200      ob       1    MUSC   O001w       1     -1.05    15.999
     201      ob       1    MUSC   O001x       1     -1.05    15.999
     202      ob       1    MUSC   O001y       1     -1.05    15.999
     203      ob       1    MUSC   O001z       1     -1.05    15.999
     204      ob       1    MUSC   O0020       1     -1.05    15.999
     205      oh       1    MUSC   O0021       1     -0.95    15.999
     206      oh       1    MUSC   O0022       1     -0.95    15.999
     207      oh       1    MUSC   O0023       1     -0.95    15.999
     208      oh       1    MUSC   O0024       1     -0.95    15.999
     209      ob       1    MUSC   O0025       1     -1.05    15.999
     210      ob       1    MUSC   O0026       1     -1.05    15.999
     211      ob       1    MUSC   O0027       1     -1.05    15.999
     212      ob       1    MUSC   O0028       1     -1.05    15.999
     213      ob       1    MUSC   O0029       1     -1.05    15.999
     214      ob       1    MUSC   O002A       1     -1.05    15.999
     215      ob       1    MUSC   O002B       1     -1.05    15.999
     216      ob       1    MUSC   O002C       1     -1.05    15.999
     217      ob       1    MUSC   O002D       1     -1.05    15.999
     218      ob       1    MUSC   O002E       1     -1.05    15.999
     219      ob       1    MUSC   O002F       1     -1.05    15.999
     220      ob       1    MUSC   O002G       1     -1.05    15.999
     221      ob       1    MUSC   O002H       1     -1.05    15.999
     222      ob       1    MUSC   O002I       1     -1.05    15.999
     223      ob       1    MUSC   O002J       1     -1.05    15.999
     224      ob       1    MUSC   O002K       1     -1.05    15.999
     225       K       1    MUSC   K0009       1       1.0    39.098
     226       K       1    MUSC   K000A       1       1.0    39.098
     227       K       1    MUSC   K000B       1       1.0    39.098
     228       K       1    MUSC   K000C       1       1.0    39.098
     229      ao       1    MUSC   Al00P       1     1.575    26.982
     230      ao       1    MUSC   Al00Q       1     1.575    26.982
     231      ao       1    MUSC   Al00R       1     1.575    26.982
     232      ao       1    MUSC   Al00S       1     1.575    26.982
     233      ao       1    MUSC   Al00T       1     1.575    26.982
     234      ao       1    MUSC   Al00U       1     1.575    26.982
     235      ao       1    MUSC   Al00V       1     1.575    26.982
     236      ao       1    MUSC   Al00W       1     1.575    26.982
     237      st       1    MUSC   Si00n       1       2.1    28.086
     238      st       1    MUSC   Si00o       1       2.1    28.086
     239      st       1    MUSC   Si00p       1       2.1    28.086
     240      st       1    MUSC   Si00q       1       2.1    28.086
     241      st       1    MUSC   Si00r       1       2.1    28.086
     242      st       1    MUSC   Si00s       1       2.1    28.086
     243      st       1    MUSC   Si00t       1       2.1    28.086
     244      st       1    MUSC   Si00u       1       2.1    28.086
     245      st       1    MUSC   Si00v       1       2.1    28.086
     246      st       1    MUSC   Si00w       1       2.1    28.086
     247      st       1    MUSC   Si00x       1       2.1    28.086
     248      st       1    MUSC   Si00y       1       2.1    28.086
     249      st       1    MUSC   Si00z       1       2.1    28.086
     250      st       1    MUSC   Si010       1       2.1    28.086
     251      st       1    MUSC   Si011       1       2.1    28.086
     252      st       1    MUSC   Si012       1       2.1    28.086
     253      ob       1    MUSC   O002L       1     -1.05    15.999
     254      ob       1    MUSC   O002M       1     -1.05    15.999
     255      ob       1    MUSC   O002N       1     -1.05    15.999
     256      ob       1    MUSC   O002O       1     -1.05    15.999
     257      oh       1    MUSC   O002P       1     -0.95    15.999
     258      oh       1    MUSC   O002Q       1     -0.95    15.999
     259      oh       1    MUSC   O002R       1     -0.95    15.999
     260      oh       1    MUSC   O002S       1     -0.95    15.999
     261      ob       1    MUSC   O002T       1     -1.05    15.999
     262      ob       1    MUSC   O002U       1     -1.05    15.999
     263      ob       1    MUSC   O002V       1     -1.05    15.999
     264      ob       1    MUSC   O002W       1     -1.05    15.999
     265      ob       1    MUSC   O002X       1     -1.05    15.999
     266      ob       1    MUSC   O002Y       1     -1.05    15.999
     267      ob       1    MUSC   O002Z       1     -1.05    15.999
     268      ob       1    MUSC   O002a       1     -1.05    15.999
     269      ob       1    MUSC   O002b       1     -1.05    15.999
     270      ob       1    MUSC   O002c       1     -1.05    15.999
     271      ob       1    MUSC   O002d       1     -1.05    15.999
     272      ob       1    MUSC   O002e       1     -1.05    15.999
     273      ob       1    MUSC   O002f       1     -1.05    15.999
     274      ob       1    MUSC   O002g       1     -1.05    15.999
     275      ob       1    MUSC   O002h       1     -1.05    15.999
     276      ob       1    MUSC   O002i       1     -1.05    15.999
     277      ob       1    MUSC   O002j       1     -1.05    15.999
     278      ob       1    MUSC   O002k       1     -1.05    15.999
     279      ob       1    MUSC   O002l       1     -1.05    15.999
     280      ob       1    MUSC   O002m       1     -1.05    15.999
     281      oh       1    MUSC   O002n       1     -0.95    15.999
     282      oh       1    MUSC   O002o       1     -0.95    15.999
     283      oh       1    MUSC   O002p       1     -0.95    15.999
     284      oh       1    MUSC   O002q       1     -0.95    15.999
     285      ob       1    MUSC   O002r       1     -1.05    15.999
     286      ob       1    MUSC   O002s       1     -1.05    15.999
     287      ob       1    MUSC   O002t       1     -1.05    15.999
     288      ob       1    MUSC   O002u       1     -1.05    15.999
     289      ob       1    MUSC   O002v       1     -1.05    15.999
     290      ob       1    MUSC   O002w       1     -1.05    15.999
     291      ob       1    MUSC   O002x       1     -1.05    15.999
     292      ob       1    MUSC   O002y       1     -1.05    15.999
     293      ob       1    MUSC   O002z       1     -1.05    15.999
     294      ob       1    MUSC   O0030       1     -1.05    15.999
     295      ob       1    MUSC   O0031       1     -1.05    15.999
     296      ob       1    MUSC   O0032       1     -1.05    15.999
     297      ob       1    MUSC   O0033       1     -1.05    15.999
     298      ob       1    MUSC   O0034       1     -1.05    15.999
     299      ob       1    MUSC   O0035       1     -1.05    15.999
     300      ob       1    MUSC   O0036       1     -1.05    15.999
     301       K       1    MUSC   K000D       1       1.0    39.098
     302       K       1    MUSC   K000E       1       1.0    39.098
     303      ao       1    MUSC   Al00X       1     1.575    26.982
     304      ao       1    MUSC   Al00Y       1     1.575    26.982
     305      ao       1    MUSC   Al00Z       1     1.575    26.982
     306      ao       1    MUSC   Al00a       1     1.575    26.982
     307      ao       1    MUSC   Al00b       1     1.575    26.982
     308      ao       1    MUSC   Al00c       1     1.575    26.982
     309      ao       1    MUSC   Al00d       1     1.575    26.982
     310      ao       1    MUSC   Al00e       1     1.575    26.982
     311      st       1    MUSC   Si013       1       2.1    28.086
     312      st       1    MUSC   Si014       1       2.1    28.086
     313      st       1    MUSC   Si015       1       2.1    28.086
     314      st       1    MUSC   Si016       1       2.1    28.086
     315      st       1    MUSC   Si017       1       2.1    28.086
     316      st       1    MUSC   Si018       1       2.1    28.086
     317      st       1    MUSC   Si019       1       2.1    28.086
     318      st       1    MUSC   Si01A       1       2.1    28.086
     319      st       1    MUSC   Si01B       1       2.1    28.086
     320      st       1    MUSC   Si01C       1       2.1    28.086
     321      st       1    MUSC   Si01D       1       2.1    28.086
     322      st       1    MUSC   Si01E       1       2.1    28.086
     323      st       1    MUSC   Si01F       1       2.1    28.086
     324      st       1    MUSC   Si01G       1       2.1    28.086
     325      st       1    MUSC   Si01H       1       2.1    28.086
     326      st       1    MUSC   Si01I       1       2.1    28.086
     327      ob       1    MUSC   O0037       1     -1.05    15.999
     328      ob       1    MUSC   O0038       1     -1.05    15.999
     329      ob       1    MUSC   O0039       1     -1.05    15.999
     330      ob       1    MUSC   O003A       1     -1.05    15.999
     331      oh       1    MUSC   O003B       1     -0.95    15.999
     332      oh       1    MUSC   O003C       1     -0.95    15.999
     333      oh       1    MUSC   O003D       1     -0.95    15.999
     334      oh       1    MUSC   O003E       1     -0.95    15.999
     335      ob       1    MUSC   O003F       1     -1.05    15.999
     336      ob       1    MUSC   O003G       1     -1.05    15.999
     337      ob       1    MUSC   O003H       1     -1.05    15.999
     338      ob       1    MUSC   O003I       1     -1.05    15.999
     339      ob       1    MUSC   O003J       1     -1.05    15.999
     340      ob       1    MUSC   O003K       1     -1.05    15.999
     341      ob       1    MUSC   O003L       1     -1.05    15.999
     342      ob       1    MUSC   O003M       1     -1.05    15.999
     343      ob       1    MUSC   O003N       1     -1.05    15.999
     344      ob       1    MUSC   O003O       1     -1.05    15.999
     345      ob       1    MUSC   O003P       1     -1.05    15.999
     346      ob       1    MUSC   O003Q       1     -1.05    15.999
     347      ob       1    MUSC   O003R       1     -1.05    15.999
     348      ob       1    MUSC   O003S       1     -1.05    15.999
     349      ob       1    MUSC   O003T       1     -1.05    15.999
     350      ob       1    MUSC   O003U       1     -1.05    15.999
     351      ob       1    MUSC   O003V       1     -1.05    15.999
     352      ob       1    MUSC   O003W       1     -1.05    15.999
     353      ob       1    MUSC   O003X       1     -1.05    15.999
     354      ob       1    MUSC   O003Y       1     -1.05    15.999
     355      oh       1    MUSC   O003Z       1     -0.95    15.999
     356      oh       1    MUSC   O003a       1     -0.95    15.999
     357      oh       1    MUSC   O003b       1     -0.95    15.999
     358      oh       1    MUSC   O003c       1     -0.95    15.999
     359      ob       1    MUSC   O003d       1     -1.05    15.999
     360      ob       1    MUSC   O003e       1     -1.05    15.999
     361      ob       1    MUSC   O003f       1     -1.05    15.999
     362      ob       1    MUSC   O003g       1     -1.05    15.999
     363      ob       1    MUSC   O003h       1     -1.05    15.999
     364      ob       1    MUSC   O003i       1     -1.05    15.999
     365      ob       1    MUSC   O003j       1     -1.05    15.999
     366      ob       1    MUSC   O003k       1     -1.05    15.999
     367      ob       1    MUSC   O003l       1     -1.05    15.999
     368      ob       1    MUSC   O003m       1     -1.05    15.999
     369      ob       1    MUSC   O003n       1     -1.05    15.999
     370      ob       1    MUSC   O003o       1     -1.05    15.999
     371      ob       1    MUSC   O003p       1     -1.05    15.999
     372      ob       1    MUSC   O003q       1     -1.05    15.999
     373      ob       1    MUSC   O003r       1     -1.05    15.999
     374      ob       1    MUSC   O003s       1     -1.05    15.999
     375       K       1    MUSC   K000F       1       1.0    39.098
     376       K       1    MUSC   K000G       1       1.0    39.098
     377       K       1    MUSC   K000H       1       1.0    39.098
     378       K       1    MUSC   K000I       1       1.0    39.098
     379      ao       1    MUSC   Al00f       1     1.575    26.982
     380      ao       1    MUSC   Al00g       1     1.575    26.982
     381      ao       1    MUSC   Al00h       1     1.575    26.982
     382      ao       1    MUSC   Al00i       1     1.575    26.982
     383      ao       1    MUSC   Al00j       1     1.575    26.982
     384      ao       1    MUSC   Al00k       1     1.575    26.982
     385      ao       1    MUSC   Al00l       1     1.575    26.982
     386      ao       1    MUSC   Al00m       1     1.575    26.982
     387      st       1    MUSC   Si01J       1       2.1    28.086
     388      st       1    MUSC   Si01K       1       2.1    28.086
     389      st       1    MUSC   Si01L       1       2.1    28.086
     390      st       1    MUSC   Si01M       1       2.1    28.086
     391      st       1    MUSC   Si01N       1       2.1    28.086
     392      st       1    MUSC   Si01O       1       2.1    28.086
     393      st       1    MUSC   Si01P       1       2.1    28.086
     394      st       1    MUSC   Si01Q       1       2.1    28.086
     395      st       1    MUSC   Si01R       1       2.1    28.086
     396      st       1    MUSC   Si01S       1       2.1    28.086
     397      st       1    MUSC   Si01T       1       2.1    28.086
     398      st       1    MUSC   Si01U       1       2.1    28.086
     399      st       1    MUSC   Si01V       1       2.1    28.086
     400      st       1    MUSC   Si01W       1       2.1    28.086
     401      st       1    MUSC   Si01X       1       2.1    28.086
     402      st       1    MUSC   Si01Y       1       2.1    28.086
     403      ob       1    MUSC   O003t       1     -1.05    15.999
     404      ob       1    MUSC   O003u       1     -1.05    15.999
     405      ob       1    MUSC   O003v       1     -1.05    15.999
     406      ob       1    MUSC   O003w       1     -1.05    15.999
     407      oh       1    MUSC   O003x       1     -0.95    15.999
     408      oh       1    MUSC   O003y       1     -0.95    15.999
     409      oh       1    MUSC   O003z       1     -0.95    15.999
     410      oh       1    MUSC   O0040       1     -0.95    15.999
     411      ob       1    MUSC   O0041       1     -1.05    15.999
     412      ob       1    MUSC   O0042       1     -1.05    15.999
     413      ob       1    MUSC   O0043       1     -1.05    15.999
     414      ob       1    MUSC   O0044       1     -1.05    15.999
     415      ob       1    MUSC   O0045       1     -1.05    15.999
     416      ob       1    MUSC   O0046       1     -1.05    15.999
     417      ob       1    MUSC   O0047       1     -1.05    15.999
     418      ob       1    MUSC   O0048       1     -1.05    15.999
     419      ob       1    MUSC   O0049       1     -1.05    15.999
     420      ob       1    MUSC   O004A       1     -1.05    15.999
     421      ob       1    MUSC   O004B       1     -1.05    15.999
     422      ob       1    MUSC   O004C       1     -1.05    15.999
     423      ob       1    MUSC   O004D       1     -1.05    15.999
     424      ob       1    MUSC   O004E       1     -1.05    15.999
     425      ob       1    MUSC   O004F       1     -1.05    15.999
     426      ob       1    MUSC   O004G       1     -1.05    15.999
     427      ob       1    MUSC   O004H       1     -1.05    15.999
     428      ob       1    MUSC   O004I       1     -1.05    15.999
     429      ob       1    MUSC   O004J       1     -1.05    15.999
     430      ob       1    MUSC   O004K       1     -1.05    15.999
     431      oh       1    MUSC   O004L       1     -0.95    15.999
     432      oh       1    MUSC   O004M       1     -0.95    15.999
     433      oh       1    MUSC   O004N       1     -0.95    15.999
     434      oh       1    MUSC   O004O       1     -0.95    15.999
     435      ob       1    MUSC   O004P       1     -1.05    15.999
     436      ob       1    MUSC   O004Q       1     -1.05    15.999
     437      ob       1    MUSC   O004R       1     -1.05    15.999
     438      ob       1    MUSC   O004S       1     -1.05    15.999
     439      ob       1    MUSC   O004T       1     -1.05    15.999
     440      ob       1    MUSC   O004U       1     -1.05    15.999
     441      ob       1    MUSC   O004V       1     -1.05    15.999
     442      ob       1    MUSC   O004W       1     -1.05    15.999
     443      ob       1    MUSC   O004X       1     -1.05    15.999
     444      ob       1    MUSC   O004Y       1     -1.05    15.999
     445      ob       1    MUSC   O004Z       1     -1.05    15.999
     446      ob       1    MUSC   O004a       1     -1.05    15.999
     447      ob       1    MUSC   O004b       1     -1.05    15.999
     448      ob       1    MUSC   O004c       1     -1.05    15.999
     449      ob       1    MUSC   O004d       1     -1.05    15.999
     450      ob       1    MUSC   O004e       1     -1.05    15.999
     451       K       1    MUSC   K000J       1       1.0    39.098
     452       K       1    MUSC   K000K       1       1.0    39.098
     453      ao       1    MUSC   Al00n       1     1.575    26.982
     454      ao       1    MUSC   Al00o       1     1.575    26.982
     455      ao       1    MUSC   Al00p       1     1.575    26.982
     456      ao       1    MUSC   Al00q       1     1.575    26.982
     457      ao       1    MUSC   Al00r       1     1.575    26.982
     458      ao       1    MUSC   Al00s       1     1.575    26.982
     459      ao       1    MUSC   Al00t       1     1.575    26.982
     460      ao       1    MUSC   Al00u       1     1.575    26.982
     461      st       1    MUSC   Si01Z       1       2.1    28.086
     462      st       1    MUSC   Si01a       1       2.1    28.086
     463      st       1    MUSC   Si01b       1       2.1    28.086
     464      st       1    MUSC   Si01c       1       2.1    28.086
     465      st       1    MUSC   Si01d       1       2.1    28.086
     466      st       1    MUSC   Si01e       1       2.1    28.086
     467      st       1    MUSC   Si01f       1       2.1    28.086
     468      st       1    MUSC   Si01g       1       2.1    28.086
     469      st       1    MUSC   Si01h       1       2.1    28.086
     470      st       1    MUSC   Si01i       1       2.1    28.086
     471      st       1    MUSC   Si01j       1       2.1    28.086
     472      st       1    MUSC   Si01k       1       2.1    28.086
     473      st       1    MUSC   Si01l       1       2.1    28.086
     474      st       1    MUSC   Si01m       1       2.1    28.086
     475      st       1    MUSC   Si01n       1       2.1    28.086
     476      st       1    MUSC   Si01o       1       2.1    28.086
     477      ob       1    MUSC   O004f       1     -1.05    15.999
     478      ob       1    MUSC   O004g       1     -1.05    15.999
     479      ob       1    MUSC   O004h       1     -1.05    15.999
     480      ob       1    MUSC   O004i       1     -1.05    15.999
     481      oh       1    MUSC   O004j       1     -0.95    15.999
     482      oh       1    MUSC   O004k       1     -0.95    15.999
     483      oh       1    MUSC   O004l       1     -0.95    15.999
     484      oh       1    MUSC   O004m       1     -0.95    15.999
     485      ob       1    MUSC   O004n       1     -1.05    15.999
     486      ob       1    MUSC   O004o       1     -1.05    15.999
     487      ob       1    MUSC   O004p       1     -1.05    15.999
     488      ob       1    MUSC   O004q       1     -1.05    15.999
     489      ob       1    MUSC   O004r       1     -1.05    15.999
     490      ob       1    MUSC   O004s       1     -1.05    15.999
     491      ob       1    MUSC   O004t       1     -1.05    15.999
     492      ob       1    MUSC   O004u       1     -1.05    15.999
     493      ob       1    MUSC   O004v       1     -1.05    15.999
     494      ob       1    MUSC   O004w       1     -1.05    15.999
     495      ob       1    MUSC   O004x       1     -1.05    15.999
     496      ob       1    MUSC   O004y       1     -1.05    15.999
     497      ob       1    MUSC   O004z       1     -1.05    15.999
     498      ob       1    MUSC   O0050       1     -1.05    15.999
     499      ob       1    MUSC   O0051       1     -1.05    15.999
     500      ob       1    MUSC   O0052       1     -1.05    15.999
     501      ob       1    MUSC   O0053       1     -1.05    15.999
     502      ob       1    MUSC   O0054       1     -1.05    15.999
     503      ob       1    MUSC   O0055       1     -1.05    15.999
     504      ob       1    MUSC   O0056       1     -1.05    15.999
     505      oh       1    MUSC   O0057       1     -0.95    15.999
     506      oh       1    MUSC   O0058       1     -0.95    15.999
     507      oh       1    MUSC   O0059       1     -0.95    15.999
     508      oh       1    MUSC   O005A       1     -0.95    15.999
     509      ob       1    MUSC   O005B       1     -1.05    15.999
     510      ob       1    MUSC   O005C       1     -1.05    15.999
     511      ob       1    MUSC   O005D       1     -1.05    15.999
     512      ob       1    MUSC   O005E       1     -1.05    15.999
     513      ob       1    MUSC   O005F       1     -1.05    15.999
     514      ob       1    MUSC   O005G       1     -1.05    15.999
     515      ob       1    MUSC   O005H       1     -1.05    15.999
     516      ob       1    MUSC   O005I       1     -1.05    15.999
     517      ob       1    MUSC   O005J       1     -1.05    15.999
     518      ob       1    MUSC   O005K       1     -1.05    15.999
     519      ob       1    MUSC   O005L       1     -1.05    15.999
     520      ob       1    MUSC   O005M       1     -1.05    15.999
     521      ob       1    MUSC   O005N       1     -1.05    15.999
     522      ob       1    MUSC   O005O       1     -1.05    15.999
     523      ob       1    MUSC   O005P       1     -1.05    15.999
     524      ob       1    MUSC   O005Q       1     -1.05    15.999
     525       K       1    MUSC   K000L       1       1.0    39.098
     526       K       1    MUSC   K000M       1       1.0    39.098
     527       K       1    MUSC   K000N       1       1.0    39.098
     528       K       1    MUSC   K000O       1       1.0    39.098
     529      ao       1    MUSC   Al00v       1     1.575    26.982
     530      ao       1    MUSC   Al00w       1     1.575    26.982
     531      ao       1    MUSC   Al00x       1     1.575    26.982
     532      ao       1    MUSC   Al00y       1     1.575    26.982
     533      ao       1    MUSC   Al00z       1     1.575    26.982
     534      ao       1    MUSC   Al010       1     1.575    26.982
     535      ao       1    MUSC   Al011       1     1.575    26.982
     536      ao       1    MUSC   Al012       1     1.575    26.982
     537      st       1    MUSC   Si01p       1       2.1    28.086
     538      st       1    MUSC   Si01q       1       2.1    28.086
     539      st       1    MUSC   Si01r       1       2.1    28.086
     540      st       1    MUSC   Si01s       1       2.1    28.086
     541      st       1    MUSC   Si01t       1       2.1    28.086
     542      st       1    MUSC   Si01u       1       2.1    28.086
     543      st       1    MUSC   Si01v       1       2.1    28.086
     544      st       1    MUSC   Si01w       1       2.1    28.086
     545      st       1    MUSC   Si01x       1       2.1    28.086
     546      st       1    MUSC   Si01y       1       2.1    28.086
     547      st       1    MUSC   Si01z       1       2.1    28.086
     548      st       1    MUSC   Si020       1       2.1    28.086
     549      st       1    MUSC   Si021       1       2.1    28.086
     550      st       1    MUSC   Si022       1       2.1    28.086
     551      st       1    MUSC   Si023       1       2.1    28.086
     552      st       1    MUSC   Si024       1       2.1    28.086
     553      ob       1    MUSC   O005R       1     -1.05    15.999
     554      ob       1    MUSC   O005S       1     -1.05    15.999
     555      ob       1    MUSC   O005T       1     -1.05    15.999
     556      ob       1    MUSC   O005U       1     -1.05    15.999
     557      oh       1    MUSC   O005V       1     -0.95    15.999
     558      oh       1    MUSC   O005W       1     -0.95    15.999
     559      oh       1    MUSC   O005X       1     -0.95    15.999
     560      oh       1    MUSC   O005Y       1     -0.95    15.999
     561      ob       1    MUSC   O005Z       1     -1.05    15.999
     562      ob       1    MUSC   O005a       1     -1.05    15.999
     563      ob       1    MUSC   O005b       1     -1.05    15.999
     564      ob       1    MUSC   O005c       1     -1.05    15.999
     565      ob       1    MUSC   O005d       1     -1.05    15.999
     566      ob       1    MUSC   O005e       1     -1.05    15.999
     567      ob       1    MUSC   O005f       1     -1.05    15.999
     568      ob       1    MUSC   O005g       1     -1.05    15.999
     569      ob       1    MUSC   O005h       1     -1.05    15.999
     570      ob       1    MUSC   O005i       1     -1.05    15.999
     571      ob       1    MUSC   O005j       1     -1.05    15.999
     572      ob       1    MUSC   O005k       1     -1.05    15.999
     573      ob       1    MUSC   O005l       1     -1.05    15.999
     574      ob       1    MUSC   O005m       1     -1.05    15.999
     575      ob       1    MUSC   O005n       1     -1.05    15.999
     576      ob       1    MUSC   O005o       1     -1.05    15.999
     577      ob       1    MUSC   O005p       1     -1.05    15.999
     578      ob       1    MUSC   O005q       1     -1.05    15.999
     579      ob       1    MUSC   O005r       1     -1.05    15.999
     580      ob       1    MUSC   O005s       1     -1.05    15.999
     581      oh       1    MUSC   O005t       1     -0.95    15.999
     582      oh       1    MUSC   O005u       1     -0.95    15.999
     583      oh       1    MUSC   O005v       1     -0.95    15.999
     584      oh       1    MUSC   O005w       1     -0.95    15.999
     585      ob       1    MUSC   O005x       1     -1.05    15.999
     586      ob       1    MUSC   O005y       1     -1.05    15.999
     587      ob       1    MUSC   O005z       1     -1.05    15.999
     588      ob       1    MUSC   O0060       1     -1.05    15.999
     589      ob       1    MUSC   O0061       1     -1.05    15.999
     590      ob       1    MUSC   O0062       1     -1.05    15.999
     591      ob       1    MUSC   O0063       1     -1.05    15.999
     592      ob       1    MUSC   O0064       1     -1.05    15.999
     593      ob       1    MUSC   O0065       1     -1.05    15.999
     594      ob       1    MUSC   O0066       1     -1.05    15.999
     595      ob       1    MUSC   O0067       1     -1.05    15.999
     596      ob       1    MUSC   O0068       1     -1.05    15.999
     597      ob       1    MUSC   O0069       1     -1.05    15.999
     598      ob       1    MUSC   O006A       1     -1.05    15.999
     599      ob       1    MUSC   O006B       1     -1.05    15.999
     600      ob       1    MUSC   O006C       1     -1.05    15.999
     601       K       1    MUSC   K000P       1       1.0    39.098
     602       K       1    MUSC   K000Q       1       1.0    39.098
     603      ao       1    MUSC   Al013       1     1.575    26.982
     604      ao       1    MUSC   Al014       1     1.575    26.982
     605      ao       1    MUSC   Al015       1     1.575    26.982
     606      ao       1    MUSC   Al016       1     1.575    26.982
     607      ao       1    MUSC   Al017       1     1.575    26.982
     608      ao       1    MUSC   Al018       1     1.575    26.982
     609      ao       1    MUSC   Al019       1     1.575    26.982
     610      ao       1    MUSC   Al01A       1     1.575    26.982
     611      st       1    MUSC   Si025       1       2.1    28.086
     612      st       1    MUSC   Si026       1       2.1    28.086
     613      st       1    MUSC   Si027       1       2.1    28.086
     614      st       1    MUSC   Si028       1       2.1    28.086
     615      st       1    MUSC   Si029       1       2.1    28.086
     616      st       1    MUSC   Si02A       1       2.1    28.086
     617      st       1    MUSC   Si02B       1       2.1    28.086
     618      st       1    MUSC   Si02C       1       2.1    28.086
     619      st       1    MUSC   Si02D       1       2.1    28.086
     620      st       1    MUSC   Si02E       1       2.1    28.086
     621      st       1    MUSC   Si02F       1       2.1    28.086
     622      st       1    MUSC   Si02G       1       2.1    28.086
     623      st       1    MUSC   Si02H       1       2.1    28.086
     624      st       1    MUSC   Si02I       1       2.1    28.086
     625      st       1    MUSC   Si02J       1       2.1    28.086
     626      st       1    MUSC   Si02K       1       2.1    28.086
     627      ob       1    MUSC   O006D       1     -1.05    15.999
     628      ob       1    MUSC   O006E       1     -1.05    15.999
     629      ob       1    MUSC   O006F       1     -1.05    15.999
     630      ob       1    MUSC   O006G       1     -1.05    15.999
     631      oh       1    MUSC   O006H       1     -0.95    15.999
     632      oh       1    MUSC   O006I       1     -0.95    15.999
     633      oh       1    MUSC   O006J       1     -0.95    15.999
     634      oh       1    MUSC   O006K       1     -0.95    15.999
     635      ob       1    MUSC   O006L       1     -1.05    15.999
     636      ob       1    MUSC   O006M       1     -1.05    15.999
     637      ob       1    MUSC   O006N       1     -1.05    15.999
     638      ob       1    MUSC   O006O       1     -1.05    15.999
     639      ob       1    MUSC   O006P       1     -1.05    15.999
     640      ob       1    MUSC   O006Q       1     -1.05    15.999
     641      ob       1    MUSC   O006R       1     -1.05    15.999
     642      ob       1    MUSC   O006S       1     -1.05    15.999
     643      ob       1    MUSC   O006T       1     -1.05    15.999
     644      ob       1    MUSC   O006U       1     -1.05    15.999
     645      ob       1    MUSC   O006V       1     -1.05    15.999
     646      ob       1    MUSC   O006W       1     -1.05    15.999
     647      ob       1    MUSC   O006X       1     -1.05    15.999
     648      ob       1    MUSC   O006Y       1     -1.05    15.999
     649      ob       1    MUSC   O006Z       1     -1.05    15.999
     650      ob       1    MUSC   O006a       1     -1.05    15.999
     651      ob       1    MUSC   O006b       1     -1.05    15.999
     652      ob       1    MUSC   O006c       1     -1.05    15.999
     653      ob       1    MUSC   O006d       1     -1.05    15.999
     654      ob       1    MUSC   O006e       1     -1.05    15.999
     655      oh       1    MUSC   O006f       1     -0.95    15.999
     656      oh       1    MUSC   O006g       1     -0.95    15.999
     657      oh       1    MUSC   O006h       1     -0.95    15.999
     658      oh       1    MUSC   O006i       1     -0.95    15.999
     659      ob       1    MUSC   O006j       1     -1.05    15.999
     660      ob       1    MUSC   O006k       1     -1.05    15.999
     661      ob       1    MUSC   O006l       1     -1.05    15.999
     662      ob       1    MUSC   O006m       1     -1.05    15.999
     663      ob       1    MUSC   O006n       1     -1.05    15.999
     664      ob       1    MUSC   O006o       1     -1.05    15.999
     665      ob       1    MUSC   O006p       1     -1.05    15.999
     666      ob       1    MUSC   O006q       1     -1.05    15.999
     667      ob       1    MUSC   O006r       1     -1.05    15.999
     668      ob       1    MUSC   O006s       1     -1.05    15.999
     669      ob       1    MUSC   O006t       1     -1.05    15.999
     670      ob       1    MUSC   O006u       1     -1.05    15.999
     671      ob       1    MUSC   O006v       1     -1.05    15.999
     672      ob       1    MUSC   O006w       1     -1.05    15.999
     673      ob       1    MUSC   O006x       1     -1.05    15.999
     674      ob       1    MUSC   O006y       1     -1.05    15.999
     675       K       1    MUSC   K000R       1       1.0    39.098
     676       K       1    MUSC   K000S       1       1.0    39.098
     677       K       1    MUSC   K000T       1       1.0    39.098
     678       K       1    MUSC   K000U       1       1.0    39.098
     679      ao       1    MUSC   Al01B       1     1.575    26.982
     680      ao       1    MUSC   Al01C       1     1.575    26.982
     681      ao       1    MUSC   Al01D       1     1.575    26.982
     682      ao       1    MUSC   Al01E       1     1.575    26.982
     683      ao       1    MUSC   Al01F       1     1.575    26.982
     684      ao       1    MUSC   Al01G       1     1.575    26.982
     685      ao       1    MUSC   Al01H       1     1.575    26.982
     686      ao       1    MUSC   Al01I       1     1.575    26.982
     687      st       1    MUSC   Si02L       1       2.1    28.086
     688      st       1    MUSC   Si02M       1       2.1    28.086
     689      st       1    MUSC   Si02N       1       2.1    28.086
     690      st       1    MUSC   Si02O       1       2.1    28.086
     691      st       1    MUSC   Si02P       1       2.1    28.086
     692      st       1    MUSC   Si02Q       1       2.1    28.086
     693      st       1    MUSC   Si02R       1       2.1    28.086
     694      st       1    MUSC   Si02S       1       2.1    28.086
     695      st       1    MUSC   Si02T       1       2.1    28.086
     696      st       1    MUSC   Si02U       1       2.1    28.086
     697      st       1    MUSC   Si02V       1       2.1    28.086
     698      st       1    MUSC   Si02W       1       2.1    28.086
     699      st       1    MUSC   Si02X       1       2.1    28.086
     700      st       1    MUSC   Si02Y       1       2.1    28.086
     701      st       1    MUSC   Si02Z       1       2.1    28.086
     702      st       1    MUSC   Si02a       1       2.1    28.086
     703      ob       1    MUSC   O006z       1     -1.05    15.999
     704      ob       1    MUSC   O0070       1     -1.05    15.999
     705      ob       1    MUSC   O0071       1     -1.05    15.999
     706      ob       1    MUSC   O0072       1     -1.05    15.999
     707      oh       1    MUSC   O0073       1     -0.95    15.999
     708      oh       1    MUSC   O0074       1     -0.95    15.999
     709      oh       1    MUSC   O0075       1     -0.95    15.999
     710      oh       1    MUSC   O0076       1     -0.95    15.999
     711      ob       1    MUSC   O0077       1     -1.05    15.999
     712      ob       1    MUSC   O0078       1     -1.05    15.999
     713      ob       1    MUSC   O0079       1     -1.05    15.999
     714      ob       1    MUSC   O007A       1     -1.05    15.999
     715      ob       1    MUSC   O007B       1     -1.05    15.999
     716      ob       1    MUSC   O007C       1     -1.05    15.999
     717      ob       1    MUSC   O007D       1     -1.05    15.999
     718      ob       1    MUSC   O007E       1     -1.05    15.999
     719      ob       1    MUSC   O007F       1     -1.05    15.999
     720      ob       1    MUSC   O007G       1     -1.05    15.999
     721      ob       1    MUSC   O007H       1     -1.05    15.999
     722      ob       1    MUSC   O007I       1     -1.05    15.999
     723      ob       1    MUSC   O007J       1     -1.05    15.999
     724      ob       1    MUSC   O007K       1     -1.05    15.999
     725      ob       1    MUSC   O007L       1     -1.05    15.999
     726      ob       1    MUSC   O007M       1     -1.05    15.999
     727      ob       1    MUSC   O007N       1     -1.05    15.999
     728      ob       1    MUSC   O007O       1     -1.05    15.999
     729      ob       1    MUSC   O007P       1     -1.05    15.999
     730      ob       1    MUSC   O007Q       1     -1.05    15.999
     731      oh       1    MUSC   O007R       1     -0.95    15.999
     732      oh       1    MUSC   O007S       1     -0.95    15.999
     733      oh       1    MUSC   O007T       1     -0.95    15.999
     734      oh       1    MUSC   O007U       1     -0.95    15.999
     735      ob       1    MUSC   O007V       1     -1.05    15.999
     736      ob       1    MUSC   O007W       1     -1.05    15.999
     737      ob       1    MUSC   O007X       1     -1.05    15.999
     738      ob       1    MUSC   O007Y       1     -1.05    15.999
     739      ob       1    MUSC   O007Z       1     -1.05    15.999
     740      ob       1    MUSC   O007a       1     -1.05    15.999
     741      ob       1    MUSC   O007b       1     -1.05    15.999
     742      ob       1    MUSC   O007c       1     -1.05    15.999
     743      ob       1    MUSC   O007d       1     -1.05    15.999
     744      ob       1    MUSC   O007e       1     -1.05    15.999
     745      ob       1    MUSC   O007f       1     -1.05    15.999
     746      ob       1    MUSC   O007g       1     -1.05    15.999
     747      ob       1    MUSC   O007h       1     -1.05    15.999
     748      ob       1    MUSC   O007i       1     -1.05    15.999
     749      ob       1    MUSC   O007j       1     -1.05    15.999
     750      ob       1    MUSC   O007k       1     -1.05    15.999
     751       K       1    MUSC   K000V       1       1.0    39.098
     752       K       1    MUSC   K000W       1       1.0    39.098
     753      ao       1    MUSC   Al01J       1     1.575    26.982
     754      ao       1    MUSC   Al01K       1     1.575    26.982
     755      ao       1    MUSC   Al01L       1     1.575    26.982
     756      ao       1    MUSC   Al01M       1     1.575    26.982
     757      ao       1    MUSC   Al01N       1     1.575    26.982
     758      ao       1    MUSC   Al01O       1     1.575    26.982
     759      ao       1    MUSC   Al01P       1     1.575    26.982
     760      ao       1    MUSC   Al01Q       1     1.575    26.982
     761      st       1    MUSC   Si02b       1       2.1    28.086
     762      st       1    MUSC   Si02c       1       2.1    28.086
     763      st       1    MUSC   Si02d       1       2.1    28.086
     764      st       1    MUSC   Si02e       1       2.1    28.086
     765      st       1    MUSC   Si02f       1       2.1    28.086
     766      st       1    MUSC   Si02g       1       2.1    28.086
     767      st       1    MUSC   Si02h       1       2.1    28.086
     768      st       1    MUSC   Si02i       1       2.1    28.086
     769      st       1    MUSC   Si02j       1       2.1    28.086
     770      st       1    MUSC   Si02k       1       2.1    28.086
     771      st       1    MUSC   Si02l       1       2.1    28.086
     772      st       1    MUSC   Si02m       1       2.1    28.086
     773      st       1    MUSC   Si02n       1       2.1    28.086
     774      st       1    MUSC   Si02o       1       2.1    28.086
     775      st       1    MUSC   Si02p       1       2.1    28.086
     776      st       1    MUSC   Si02q       1       2.1    28.086
     777      ob       1    MUSC   O007l       1     -1.05    15.999
     778      ob       1    MUSC   O007m       1     -1.05    15.999
     779      ob       1    MUSC   O007n       1     -1.05    15.999
     780      ob       1    MUSC   O007o       1     -1.05    15.999
     781      oh       1    MUSC   O007p       1     -0.95    15.999
     782      oh       1    MUSC   O007q       1     -0.95    15.999
     783      oh       1    MUSC   O007r       1     -0.95    15.999
     784      oh       1    MUSC   O007s       1     -0.95    15.999
     785      ob       1    MUSC   O007t       1     -1.05    15.999
     786      ob       1    MUSC   O007u       1     -1.05    15.999
     787      ob       1    MUSC   O007v       1     -1.05    15.999
     788      ob       1    MUSC   O007w       1     -1.05    15.999
     789      ob       1    MUSC   O007x       1     -1.05    15.999
     790      ob       1    MUSC   O007y       1     -1.05    15.999
     791      ob       1    MUSC   O007z       1     -1.05    15.999
     792      ob       1    MUSC   O0080       1     -1.05    15.999
     793      ob       1    MUSC   O0081       1     -1.05    15.999
     794      ob       1    MUSC   O0082       1     -1.05    15.999
     795      ob       1    MUSC   O0083       1     -1.05    15.999
     796      ob       1    MUSC   O0084       1     -1.05    15.999
     797      ob       1    MUSC   O0085       1     -1.05    15.999
     798      ob       1    MUSC   O0086       1     -1.05    15.999
     799      ob       1    MUSC   O0087       1     -1.05    15.999
     800      ob       1    MUSC   O0088       1     -1.05    15.999
     801      ob       1    MUSC   O0089       1     -1.05    15.999
     802      ob       1    MUSC   O008A       1     -1.05    15.999
     803      ob       1    MUSC   O008B       1     -1.05    15.999
     804      ob       1    MUSC   O008C       1     -1.05    15.999
     805      oh       1    MUSC   O008D       1     -0.95    15.999
     806      oh       1    MUSC   O008E       1     -0.95    15.999
     807      oh       1    MUSC   O008F       1     -0.95    15.999
     808      oh       1    MUSC   O008G       1     -0.95    15.999
     809      ob       1    MUSC   O008H       1     -1.05    15.999
     810      ob       1    MUSC   O008I       1     -1.05    15.999
     811      ob       1    MUSC   O008J       1     -1.05    15.999
     812      ob       1    MUSC   O008K       1     -1.05    15.999
     813      ob       1    MUSC   O008L       1     -1.05    15.999
     814      ob       1    MUSC   O008M       1     -1.05    15.999
     815      ob       1    MUSC   O008N       1     -1.05    15.999
     816      ob       1    MUSC   O008O       1     -1.05    15.999
     817      ob       1    MUSC   O008P       1     -1.05    15.999
     818      ob       1    MUSC   O008Q       1     -1.05    15.999
     819      ob       1    MUSC   O008R       1     -1.05    15.999
     820      ob       1    MUSC   O008S       1     -1.05    15.999
     821      ob       1    MUSC   O008T       1     -1.05    15.999
     822      ob       1    MUSC   O008U       1     -1.05    15.999
     823      ob       1    MUSC   O008V       1     -1.05    15.999
     824      ob       1    MUSC   O008W       1     -1.05    15.999
     825       K       1    MUSC   K000X       1       1.0    39.098
     826       K       1    MUSC   K000Y       1       1.0    39.098
     827       K       1    MUSC   K000Z       1       1.0    39.098
     828       K       1    MUSC   K000a       1       1.0    39.098
     829      ao       1    MUSC   Al01R       1     1.575    26.982
     830      ao       1    MUSC   Al01S       1     1.575    26.982
     831      ao       1    MUSC   Al01T       1     1.575    26.982
     832      ao       1    MUSC   Al01U       1     1.575    26.982
     833      ao       1    MUSC   Al01V       1     1.575    26.982
     834      ao       1    MUSC   Al01W       1     1.575    26.982
     835      ao       1    MUSC   Al01X       1     1.575    26.982
     836      ao       1    MUSC   Al01Y       1     1.575    26.982
     837      st       1    MUSC   Si02r       1       2.1    28.086
     838      st       1    MUSC   Si02s       1       2.1    28.086
     839      st       1    MUSC   Si02t       1       2.1    28.086
     840      st       1    MUSC   Si02u       1       2.1    28.086
     841      st       1    MUSC   Si02v       1       2.1    28.086
     842      st       1    MUSC   Si02w       1       2.1    28.086
     843      st       1    MUSC   Si02x       1       2.1    28.086
     844      st       1    MUSC   Si02y       1       2.1    28.086
     845      st       1    MUSC   Si02z       1       2.1    28.086
     846      st       1    MUSC   Si030       1       2.1    28.086
     847      st       1    MUSC   Si031       1       2.1    28.086
     848      st       1    MUSC   Si032       1       2.1    28.086
     849      st       1    MUSC   Si033       1       2.1    28.086
     850      st       1    MUSC   Si034       1       2.1    28.086
     851      st       1    MUSC   Si035       1       2.1    28.086
     852      st       1    MUSC   Si036       1       2.1    28.086
     853      ob       1    MUSC   O008X       1     -1.05    15.999
     854      ob       1    MUSC   O008Y       1     -1.05    15.999
     855      ob       1    MUSC   O008Z       1     -1.05    15.999
     856      ob       1    MUSC   O008a       1     -1.05    15.999
     857      oh       1    MUSC   O008b       1     -0.95    15.999
     858      oh       1    MUSC   O008c       1     -0.95    15.999
     859      oh       1    MUSC   O008d       1     -0.95    15.999
     860      oh       1    MUSC   O008e       1     -0.95    15.999
     861      ob       1    MUSC   O008f       1     -1.05    15.999
     862      ob       1    MUSC   O008g       1     -1.05    15.999
     863      ob       1    MUSC   O008h       1     -1.05    15.999
     864      ob       1    MUSC   O008i       1     -1.05    15.999
     865      ob       1    MUSC   O008j       1     -1.05    15.999
     866      ob       1    MUSC   O008k       1     -1.05    15.999
     867      ob       1    MUSC   O008l       1     -1.05    15.999
     868      ob       1    MUSC   O008m       1     -1.05    15.999
     869      ob       1    MUSC   O008n       1     -1.05    15.999
     870      ob       1    MUSC   O008o       1     -1.05    15.999
     871      ob       1    MUSC   O008p       1     -1.05    15.999
     872      ob       1    MUSC   O008q       1     -1.05    15.999
     873      ob       1    MUSC   O008r       1     -1.05    15.999
     874      ob       1    MUSC   O008s       1     -1.05    15.999
     875      ob       1    MUSC   O008t       1     -1.05    15.999
     876      ob       1    MUSC   O008u       1     -1.05    15.999
     877      ob       1    MUSC   O008v       1     -1.05    15.999
     878      ob       1    MUSC   O008w       1     -1.05    15.999
     879      ob       1    MUSC   O008x       1     -1.05    15.999
     880      ob       1    MUSC   O008y       1     -1.05    15.999
     881      oh       1    MUSC   O008z       1     -0.95    15.999
     882      oh       1    MUSC   O0090       1     -0.95    15.999
     883      oh       1    MUSC   O0091       1     -0.95    15.999
     884      oh       1    MUSC   O0092       1     -0.95    15.999
     885      ob       1    MUSC   O0093       1     -1.05    15.999
     886      ob       1    MUSC   O0094       1     -1.05    15.999
     887      ob       1    MUSC   O0095       1     -1.05    15.999
     888      ob       1    MUSC   O0096       1     -1.05    15.999
     889      ob       1    MUSC   O0097       1     -1.05    15.999
     890      ob       1    MUSC   O0098       1     -1.05    15.999
     891      ob       1    MUSC   O0099       1     -1.05    15.999
     892      ob       1    MUSC   O009A       1     -1.05    15.999
     893      ob       1    MUSC   O009B       1     -1.05    15.999
     894      ob       1    MUSC   O009C       1     -1.05    15.999
     895      ob       1    MUSC   O009D       1     -1.05    15.999
     896      ob       1    MUSC   O009E       1     -1.05    15.999
     897      ob       1    MUSC   O009F       1     -1.05    15.999
     898      ob       1    MUSC   O009G       1     -1.05    15.999
     899      ob       1    MUSC   O009H       1     -1.05    15.999
     900      ob       1    MUSC   O009I       1     -1.05    15.999
     901       K       1    MUSC   K000b       1       1.0    39.098
     902       K       1    MUSC   K000c       1       1.0    39.098
     903      ao       1    MUSC   Al01Z       1     1.575    26.982
     904      ao       1    MUSC   Al01a       1     1.575    26.982
     905      ao       1    MUSC   Al01b       1     1.575    26.982
     906      ao       1    MUSC   Al01c       1     1.575    26.982
     907      ao       1    MUSC   Al01d       1     1.575    26.982
     908      ao       1    MUSC   Al01e       1     1.575    26.982
     909      ao       1    MUSC   Al01f       1     1.575    26.982
     910      ao       1    MUSC   Al01g       1     1.575    26.982
     911      st       1    MUSC   Si037       1       2.1    28.086
     912      st       1    MUSC   Si038       1       2.1    28.086
     913      st       1    MUSC   Si039       1       2.1    28.086
     914      st       1    MUSC   Si03A       1       2.1    28.086
     915      st       1    MUSC   Si03B       1       2.1    28.086
     916      st       1    MUSC   Si03C       1       2.1    28.086
     917      st       1    MUSC   Si03D       1       2.1    28.086
     918      st       1    MUSC   Si03E       1       2.1    28.086
     919      st       1    MUSC   Si03F       1       2.1    28.086
     920      st       1    MUSC   Si03G       1       2.1    28.086
     921      st       1    MUSC   Si03H       1       2.1    28.086
     922      st       1    MUSC   Si03I       1       2.1    28.086
     923      st       1    MUSC   Si03J       1       2.1    28.086
     924      st       1    MUSC   Si03K       1       2.1    28.086
     925      st       1    MUSC   Si03L       1       2.1    28.086
     926      st       1    MUSC   Si03M       1       2.1    28.086
     927      ob       1    MUSC   O009J       1     -1.05    15.999
     928      ob       1    MUSC   O009K       1     -1.05    15.999
     929      ob       1    MUSC   O009L       1     -1.05    15.999
     930      ob       1    MUSC   O009M       1     -1.05    15.999
     931      oh       1    MUSC   O009N       1     -0.95    15.999
     932      oh       1    MUSC   O009O       1     -0.95    15.999
     933      oh       1    MUSC   O009P       1     -0.95    15.999
     934      oh       1    MUSC   O009Q       1     -0.95    15.999
     935      ob       1    MUSC   O009R       1     -1.05    15.999
     936      ob       1    MUSC   O009S       1     -1.05    15.999
     937      ob       1    MUSC   O009T       1     -1.05    15.999
     938      ob       1    MUSC   O009U       1     -1.05    15.999
     939      ob       1    MUSC   O009V       1     -1.05    15.999
     940      ob       1    MUSC   O009W       1     -1.05    15.999
     941      ob       1    MUSC   O009X       1     -1.05    15.999
     942      ob       1    MUSC   O009Y       1     -1.05    15.999
     943      ob       1    MUSC   O009Z       1     -1.05    15.999
     944      ob       1    MUSC   O009a       1     -1.05    15.999
     945      ob       1    MUSC   O009b       1     -1.05    15.999
     946      ob       1    MUSC   O009c       1     -1.05    15.999
     947      ob       1    MUSC   O009d       1     -1.05    15.999
     948      ob       1    MUSC   O009e       1     -1.05    15.999
     949      ob       1    MUSC   O009f       1     -1.05    15.999
     950      ob       1    MUSC   O009g       1     -1.05    15.999
     951      ob       1    MUSC   O009h       1     -1.05    15.999
     952      ob       1    MUSC   O009i       1     -1.05    15.999
     953      ob       1    MUSC   O009j       1     -1.05    15.999
     954      ob       1    MUSC   O009k       1     -1.05    15.999
     955      oh       1    MUSC   O009l       1     -0.95    15.999
     956      oh       1    MUSC   O009m       1     -0.95    15.999
     957      oh       1    MUSC   O009n       1     -0.95    15.999
     958      oh       1    MUSC   O009o       1     -0.95    15.999
     959      ob       1    MUSC   O009p       1     -1.05    15.999
     960      ob       1    MUSC   O009q       1     -1.05    15.999
     961      ob       1    MUSC   O009r       1     -1.05    15.999
     962      ob       1    MUSC   O009s       1     -1.05    15.999
     963      ob       1    MUSC   O009t       1     -1.05    15.999
     964      ob       1    MUSC   O009u       1     -1.05    15.999
     965      ob       1    MUSC   O009v       1     -1.05    15.999
     966      ob       1    MUSC   O009w       1     -1.05    15.999
     967      ob       1    MUSC   O009x       1     -1.05    15.999
     968      ob       1    MUSC   O009y       1     -1.05    15.999
     969      ob       1    MUSC   O009z       1     -1.05    15.999
     970      ob       1    MUSC   O00A0       1     -1.05    15.999
     971      ob       1    MUSC   O00A1       1     -1.05    15.999
     972      ob       1    MUSC   O00A2       1     -1.05    15.999
     973      ob       1    MUSC   O00A3       1     -1.05    15.999
     974      ob       1    MUSC   O00A4       1     -1.05    15.999
     975       K       1    MUSC   K000d       1       1.0    39.098
     976       K       1    MUSC   K000e       1       1.0    39.098
     977       K       1    MUSC   K000f       1       1.0    39.098
     978       K       1    MUSC   K000g       1       1.0    39.098
     979      ao       1    MUSC   Al01h       1     1.575    26.982
     980      ao       1    MUSC   Al01i       1     1.575    26.982
     981      ao       1    MUSC   Al01j       1     1.575    26.982
     982      ao       1    MUSC   Al01k       1     1.575    26.982
     983      ao       1    MUSC   Al01l       1     1.575    26.982
     984      ao       1    MUSC   Al01m       1     1.575    26.982
     985      ao       1    MUSC   Al01n       1     1.575    26.982
     986      ao       1    MUSC   Al01o       1     1.575    26.982
     987      st       1    MUSC   Si03N       1       2.1    28.086
     988      st       1    MUSC   Si03O       1       2.1    28.086
     989      st       1    MUSC   Si03P       1       2.1    28.086
     990      st       1    MUSC   Si03Q       1       2.1    28.086
     991      st       1    MUSC   Si03R       1       2.1    28.086
     992      st       1    MUSC   Si03S       1       2.1    28.086
     993      st       1    MUSC   Si03T       1       2.1    28.086
     994      st       1    MUSC   Si03U       1       2.1    28.086
     995      st       1    MUSC   Si03V       1       2.1    28.086
     996      st       1    MUSC   Si03W       1       2.1    28.086
     997      st       1    MUSC   Si03X       1       2.1    28.086
     998      st       1    MUSC   Si03Y       1       2.1    28.086
     999      st       1    MUSC   Si03Z       1       2.1    28.086
    1000      st       1    MUSC   Si03a       1       2.1    28.086
    1001      st       1    MUSC   Si03b       1       2.1    28.086
    1002      st       1    MUSC   Si03c       1       2.1    28.086
    1003      ob       1    MUSC   O00A5       1     -1.05    15.999
    1004      ob       1    MUSC   O00A6       1     -1.05    15.999
    1005      ob       1    MUSC   O00A7       1     -1.05    15.999
    1006      ob       1    MUSC   O00A8       1     -1.05    15.999
    1007      oh       1    MUSC   O00A9       1     -0.95    15.999
    1008      oh       1    MUSC   O00AA       1     -0.95    15.999
    1009      oh       1    MUSC   O00AB       1     -0.95    15.999
    1010      oh       1    MUSC   O00AC       1     -0.95    15.999
    1011      ob       1    MUSC   O00AD       1     -1.05    15.999
    1012      ob       1    MUSC   O00AE       1     -1.05    15.999
    1013      ob       1    MUSC   O00AF       1     -1.05    15.999
    1014      ob       1    MUSC   O00AG       1     -1.05    15.999
    1015      ob       1    MUSC   O00AH       1     -1.05    15.999
    1016      ob       1    MUSC   O00AI       1     -1.05    15.999
    1017      ob       1    MUSC   O00AJ       1     -1.05    15.999
    1018      ob       1    MUSC   O00AK       1     -1.05    15.999
    1019      ob       1    MUSC   O00AL       1     -1.05    15.999
    1020      ob       1    MUSC   O00AM       1     -1.05    15.999
    1021      ob       1    MUSC   O00AN       1     -1.05    15.999
    1022      ob       1    MUSC   O00AO       1     -1.05    15.999
    1023      ob       1    MUSC   O00AP       1     -1.05    15.999
    1024      ob       1    MUSC   O00AQ       1     -1.05    15.999
    1025      ob       1    MUSC   O00AR       1     -1.05    15.999
    1026      ob       1    MUSC   O00AS       1     -1.05    15.999
    1027      ob       1    MUSC   O00AT       1     -1.05    15.999
    1028      ob       1    MUSC   O00AU       1     -1.05    15.999
    1029      ob       1    MUSC   O00AV       1     -1.05    15.999
    1030      ob       1    MUSC   O00AW       1     -1.05    15.999
    1031      oh       1    MUSC   O00AX       1     -0.95    15.999
    1032      oh       1    MUSC   O00AY       1     -0.95    15.999
    1033      oh       1    MUSC   O00AZ       1     -0.95    15.999
    1034      oh       1    MUSC   O00Aa       1     -0.95    15.999
    1035      ob       1    MUSC   O00Ab       1     -1.05    15.999
    1036      ob       1    MUSC   O00Ac       1     -1.05    15.999
    1037      ob       1    MUSC   O00Ad       1     -1.05    15.999
    1038      ob       1    MUSC   O00Ae       1     -1.05    15.999
    1039      ob       1    MUSC   O00Af       1     -1.05    15.999
    1040      ob       1    MUSC   O00Ag       1     -1.05    15.999
    1041      ob       1    MUSC   O00Ah       1     -1.05    15.999
    1042      ob       1    MUSC   O00Ai       1     -1.05    15.999
    1043      ob       1    MUSC   O00Aj       1     -1.05    15.999
    1044      ob       1    MUSC   O00Ak       1     -1.05    15.999
    1045      ob       1    MUSC   O00Al       1     -1.05    15.999
    1046      ob       1    MUSC   O00Am       1     -1.05    15.999
    1047      ob       1    MUSC   O00An       1     -1.05    15.999
    1048      ob       1    MUSC   O00Ao       1     -1.05    15.999
    1049      ob       1    MUSC   O00Ap       1     -1.05    15.999
    1050      ob       1    MUSC   O00Aq       1     -1.05    15.999
    1051       K       1    MUSC   K000h       1       1.0    39.098
    1052       K       1    MUSC   K000i       1       1.0    39.098
    1053      ao       1    MUSC   Al01p       1     1.575    26.982
    1054      ao       1    MUSC   Al01q       1     1.575    26.982
    1055      ao       1    MUSC   Al01r       1     1.575    26.982
    1056      ao       1    MUSC   Al01s       1     1.575    26.982
    1057      ao       1    MUSC   Al01t       1     1.575    26.982
    1058      ao       1    MUSC   Al01u       1     1.575    26.982
    1059      ao       1    MUSC   Al01v       1     1.575    26.982
    1060      ao       1    MUSC   Al01w       1     1.575    26.982
    1061      st       1    MUSC   Si03d       1       2.1    28.086
    1062      st       1    MUSC   Si03e       1       2.1    28.086
    1063      st       1    MUSC   Si03f       1       2.1    28.086
    1064      st       1    MUSC   Si03g       1       2.1    28.086
    1065      st       1    MUSC   Si03h       1       2.1    28.086
    1066      st       1    MUSC   Si03i       1       2.1    28.086
    1067      st       1    MUSC   Si03j       1       2.1    28.086
    1068      st       1    MUSC   Si03k       1       2.1    28.086
    1069      st       1    MUSC   Si03l       1       2.1    28.086
    1070      st       1    MUSC   Si03m       1       2.1    28.086
    1071      st       1    MUSC   Si03n       1       2.1    28.086
    1072      st       1    MUSC   Si03o       1       2.1    28.086
    1073      st       1    MUSC   Si03p       1       2.1    28.086
    1074      st       1    MUSC   Si03q       1       2.1    28.086
    1075      st       1    MUSC   Si03r       1       2.1    28.086
    1076      st       1    MUSC   Si03s       1       2.1    28.086
    1077      ob       1    MUSC   O00Ar       1     -1.05    15.999
    1078      ob       1    MUSC   O00As       1     -1.05    15.999
    1079      ob       1    MUSC   O00At       1     -1.05    15.999
    1080      ob       1    MUSC   O00Au       1     -1.05    15.999
    1081      oh       1    MUSC   O00Av       1     -0.95    15.999
    1082      oh       1    MUSC   O00Aw       1     -0.95    15.999
    1083      oh       1    MUSC   O00Ax       1     -0.95    15.999
    1084      oh       1    MUSC   O00Ay       1     -0.95    15.999
    1085      ob       1    MUSC   O00Az       1     -1.05    15.999
    1086      ob       1    MUSC   O00B0       1     -1.05    15.999
    1087      ob       1    MUSC   O00B1       1     -1.05    15.999
    1088      ob       1    MUSC   O00B2       1     -1.05    15.999
    1089      ob       1    MUSC   O00B3       1     -1.05    15.999
    1090      ob       1    MUSC   O00B4       1     -1.05    15.999
    1091      ob       1    MUSC   O00B5       1     -1.05    15.999
    1092      ob       1    MUSC   O00B6       1     -1.05    15.999
    1093      ob       1    MUSC   O00B7       1     -1.05    15.999
    1094      ob       1    MUSC   O00B8       1     -1.05    15.999
    1095      ob       1    MUSC   O00B9       1     -1.05    15.999
    1096      ob       1    MUSC   O00BA       1     -1.05    15.999
    1097      ob       1    MUSC   O00BB       1     -1.05    15.999
    1098      ob       1    MUSC   O00BC       1     -1.05    15.999
    1099      ob       1    MUSC   O00BD       1     -1.05    15.999
    1100      ob       1    MUSC   O00BE       1     -1.05    15.999
    1101      ob       1    MUSC   O00BF       1     -1.05    15.999
    1102      ob       1    MUSC   O00BG       1     -1.05    15.999
    1103      ob       1    MUSC   O00BH       1     -1.05    15.999
    1104      ob       1    MUSC   O00BI       1     -1.05    15.999
    1105      oh       1    MUSC   O00BJ       1     -0.95    15.999
    1106      oh       1    MUSC   O00BK       1     -0.95    15.999
    1107      oh       1    MUSC   O00BL       1     -0.95    15.999
    1108      oh       1    MUSC   O00BM       1     -0.95    15.999
    1109      ob       1    MUSC   O00BN       1     -1.05    15.999
    1110      ob       1    MUSC   O00BO       1     -1.05    15.999
    1111      ob       1    MUSC   O00BP       1     -1.05    15.999
    1112      ob       1    MUSC   O00BQ       1     -1.05    15.999
    1113      ob       1    MUSC   O00BR       1     -1.05    15.999
    1114      ob       1    MUSC   O00BS       1     -1.05    15.999
    1115      ob       1    MUSC   O00BT       1     -1.05    15.999
    1116      ob       1    MUSC   O00BU       1     -1.05    15.999
    1117      ob       1    MUSC   O00BV       1     -1.05    15.999
    1118      ob       1    MUSC   O00BW       1     -1.05    15.999
    1119      ob       1    MUSC   O00BX       1     -1.05    15.999
    1120      ob       1    MUSC   O00BY       1     -1.05    15.999
    1121      ob       1    MUSC   O00BZ       1     -1.05    15.999
    1122      ob       1    MUSC   O00Ba       1     -1.05    15.999
    1123      ob       1    MUSC   O00Bb       1     -1.05    15.999
    1124      ob       1    MUSC   O00Bc       1     -1.05    15.999
    1125       K       1    MUSC   K000j       1       1.0    39.098
    1126       K       1    MUSC   K000k       1       1.0    39.098
    1127       K       1    MUSC   K000l       1       1.0    39.098
    1128       K       1    MUSC   K000m       1       1.0    39.098
    1129      ao       1    MUSC   Al01x       1     1.575    26.982
    1130      ao       1    MUSC   Al01y       1     1.575    26.982
    1131      ao       1    MUSC   Al01z       1     1.575    26.982
    1132      ao       1    MUSC   Al020       1     1.575    26.982
    1133      ao       1    MUSC   Al021       1     1.575    26.982
    1134      ao       1    MUSC   Al022       1     1.575    26.982
    1135      ao       1    MUSC   Al023       1     1.575    26.982
    1136      ao       1    MUSC   Al024       1     1.575    26.982
    1137      st       1    MUSC   Si03t       1       2.1    28.086
    1138      st       1    MUSC   Si03u       1       2.1    28.086
    1139      st       1    MUSC   Si03v       1       2.1    28.086
    1140      st       1    MUSC   Si03w       1       2.1    28.086
    1141      st       1    MUSC   Si03x       1       2.1    28.086
    1142      st       1    MUSC   Si03y       1       2.1    28.086
    1143      st       1    MUSC   Si03z       1       2.1    28.086
    1144      st       1    MUSC   Si040       1       2.1    28.086
    1145      st       1    MUSC   Si041       1       2.1    28.086
    1146      st       1    MUSC   Si042       1       2.1    28.086
    1147      st       1    MUSC   Si043       1       2.1    28.086
    1148      st       1    MUSC   Si044       1       2.1    28.086
    1149      st       1    MUSC   Si045       1       2.1    28.086
    1150      st       1    MUSC   Si046       1       2.1    28.086
    1151      st       1    MUSC   Si047       1       2.1    28.086
    1152      st       1    MUSC   Si048       1       2.1    28.086
    1153      ob       1    MUSC   O00Bd       1     -1.05    15.999
    1154      ob       1    MUSC   O00Be       1     -1.05    15.999
    1155      ob       1    MUSC   O00Bf       1     -1.05    15.999
    1156      ob       1    MUSC   O00Bg       1     -1.05    15.999
    1157      oh       1    MUSC   O00Bh       1     -0.95    15.999
    1158      oh       1    MUSC   O00Bi       1     -0.95    15.999
    1159      oh       1    MUSC   O00Bj       1     -0.95    15.999
    1160      oh       1    MUSC   O00Bk       1     -0.95    15.999
    1161      ob       1    MUSC   O00Bl       1     -1.05    15.999
    1162      ob       1    MUSC   O00Bm       1     -1.05    15.999
    1163      ob       1    MUSC   O00Bn       1     -1.05    15.999
    1164      ob       1    MUSC   O00Bo       1     -1.05    15.999
    1165      ob       1    MUSC   O00Bp       1     -1.05    15.999
    1166      ob       1    MUSC   O00Bq       1     -1.05    15.999
    1167      ob       1    MUSC   O00Br       1     -1.05    15.999
    1168      ob       1    MUSC   O00Bs       1     -1.05    15.999
    1169      ob       1    MUSC   O00Bt       1     -1.05    15.999
    1170      ob       1    MUSC   O00Bu       1     -1.05    15.999
    1171      ob       1    MUSC   O00Bv       1     -1.05    15.999
    1172      ob       1    MUSC   O00Bw       1     -1.05    15.999
    1173      ob       1    MUSC   O00Bx       1     -1.05    15.999
    1174      ob       1    MUSC   O00By       1     -1.05    15.999
    1175      ob       1    MUSC   O00Bz       1     -1.05    15.999
    1176      ob       1    MUSC   O00C0       1     -1.05    15.999
    1177      ob       1    MUSC   O00C1       1     -1.05    15.999
    1178      ob       1    MUSC   O00C2       1     -1.05    15.999
    1179      ob       1    MUSC   O00C3       1     -1.05    15.999
    1180      ob       1    MUSC   O00C4       1     -1.05    15.999
    1181      oh       1    MUSC   O00C5       1     -0.95    15.999
    1182      oh       1    MUSC   O00C6       1     -0.95    15.999
    1183      oh       1    MUSC   O00C7       1     -0.95    15.999
    1184      oh       1    MUSC   O00C8       1     -0.95    15.999
    1185      ob       1    MUSC   O00C9       1     -1.05    15.999
    1186      ob       1    MUSC   O00CA       1     -1.05    15.999
    1187      ob       1    MUSC   O00CB       1     -1.05    15.999
    1188      ob       1    MUSC   O00CC       1     -1.05    15.999
    1189      ob       1    MUSC   O00CD       1     -1.05    15.999
    1190      ob       1    MUSC   O00CE       1     -1.05    15.999
    1191      ob       1    MUSC   O00CF       1     -1.05    15.999
    1192      ob       1    MUSC   O00CG       1     -1.05    15.999
    1193      ob       1    MUSC   O00CH       1     -1.05    15.999
    1194      ob       1    MUSC   O00CI       1     -1.05    15.999
    1195      ob       1    MUSC   O00CJ       1     -1.05    15.999
    1196      ob       1    MUSC   O00CK       1     -1.05    15.999
    1197      ob       1    MUSC   O00CL       1     -1.05    15.999
    1198      ob       1    MUSC   O00CM       1     -1.05    15.999
    1199      ob       1    MUSC   O00CN       1     -1.05    15.999
    1200      ob       1    MUSC   O00CO       1     -1.05    15.999
    1201       K       1    MUSC   K000n       1       1.0    39.098
    1202       K       1    MUSC   K000o       1       1.0    39.098
    1203      ao       1    MUSC   Al025       1     1.575    26.982
    1204      ao       1    MUSC   Al026       1     1.575    26.982
    1205      ao       1    MUSC   Al027       1     1.575    26.982
    1206      ao       1    MUSC   Al028       1     1.575    26.982
    1207      ao       1    MUSC   Al029       1     1.575    26.982
    1208      ao       1    MUSC   Al02A       1     1.575    26.982
    1209      ao       1    MUSC   Al02B       1     1.575    26.982
    1210      ao       1    MUSC   Al02C       1     1.575    26.982
    1211      st       1    MUSC   Si049       1       2.1    28.086
    1212      st       1    MUSC   Si04A       1       2.1    28.086
    1213      st       1    MUSC   Si04B       1       2.1    28.086
    1214      st       1    MUSC   Si04C       1       2.1    28.086
    1215      st       1    MUSC   Si04D       1       2.1    28.086
    1216      st       1    MUSC   Si04E       1       2.1    28.086
    1217      st       1    MUSC   Si04F       1       2.1    28.086
    1218      st       1    MUSC   Si04G       1       2.1    28.086
    1219      st       1    MUSC   Si04H       1       2.1    28.086
    1220      st       1    MUSC   Si04I       1       2.1    28.086
    1221      st       1    MUSC   Si04J       1       2.1    28.086
    1222      st       1    MUSC   Si04K       1       2.1    28.086
    1223      st       1    MUSC   Si04L       1       2.1    28.086
    1224      st       1    MUSC   Si04M       1       2.1    28.086
    1225      st       1    MUSC   Si04N       1       2.1    28.086
    1226      st       1    MUSC   Si04O       1       2.1    28.086
    1227      ob       1    MUSC   O00CP       1     -1.05    15.999
    1228      ob       1    MUSC   O00CQ       1     -1.05    15.999
    1229      ob       1    MUSC   O00CR       1     -1.05    15.999
    1230      ob       1    MUSC   O00CS       1     -1.05    15.999
    1231      oh       1    MUSC   O00CT       1     -0.95    15.999
    1232      oh       1    MUSC   O00CU       1     -0.95    15.999
    1233      oh       1    MUSC   O00CV       1     -0.95    15.999
    1234      oh       1    MUSC   O00CW       1     -0.95    15.999
    1235      ob       1    MUSC   O00CX       1     -1.05    15.999
    1236      ob       1    MUSC   O00CY       1     -1.05    15.999
    1237      ob       1    MUSC   O00CZ       1     -1.05    15.999
    1238      ob       1    MUSC   O00Ca       1     -1.05    15.999
    1239      ob       1    MUSC   O00Cb       1     -1.05    15.999
    1240      ob       1    MUSC   O00Cc       1     -1.05    15.999
    1241      ob       1    MUSC   O00Cd       1     -1.05    15.999
    1242      ob       1    MUSC   O00Ce       1     -1.05    15.999
    1243      ob       1    MUSC   O00Cf       1     -1.05    15.999
    1244      ob       1    MUSC   O00Cg       1     -1.05    15.999
    1245      ob       1    MUSC   O00Ch       1     -1.05    15.999
    1246      ob       1    MUSC   O00Ci       1     -1.05    15.999
    1247      ob       1    MUSC   O00Cj       1     -1.05    15.999
    1248      ob       1    MUSC   O00Ck       1     -1.05    15.999
    1249      ob       1    MUSC   O00Cl       1     -1.05    15.999
    1250      ob       1    MUSC   O00Cm       1     -1.05    15.999
    1251      ob       1    MUSC   O00Cn       1     -1.05    15.999
    1252      ob       1    MUSC   O00Co       1     -1.05    15.999
    1253      ob       1    MUSC   O00Cp       1     -1.05    15.999
    1254      ob       1    MUSC   O00Cq       1     -1.05    15.999
    1255      oh       1    MUSC   O00Cr       1     -0.95    15.999
    1256      oh       1    MUSC   O00Cs       1     -0.95    15.999
    1257      oh       1    MUSC   O00Ct       1     -0.95    15.999
    1258      oh       1    MUSC   O00Cu       1     -0.95    15.999
    1259      ob       1    MUSC   O00Cv       1     -1.05    15.999
    1260      ob       1    MUSC   O00Cw       1     -1.05    15.999
    1261      ob       1    MUSC   O00Cx       1     -1.05    15.999
    1262      ob       1    MUSC   O00Cy       1     -1.05    15.999
    1263      ob       1    MUSC   O00Cz       1     -1.05    15.999
    1264      ob       1    MUSC   O00D0       1     -1.05    15.999
    1265      ob       1    MUSC   O00D1       1     -1.05    15.999
    1266      ob       1    MUSC   O00D2       1     -1.05    15.999
    1267      ob       1    MUSC   O00D3       1     -1.05    15.999
    1268      ob       1    MUSC   O00D4       1     -1.05    15.999
    1269      ob       1    MUSC   O00D5       1     -1.05    15.999
    1270      ob       1    MUSC   O00D6       1     -1.05    15.999
    1271      ob       1    MUSC   O00D7       1     -1.05    15.999
    1272      ob       1    MUSC   O00D8       1     -1.05    15.999
    1273      ob       1    MUSC   O00D9       1     -1.05    15.999
    1274      ob       1    MUSC   O00DA       1     -1.05    15.999
    1275       K       1    MUSC   K000p       1       1.0    39.098
    1276       K       1    MUSC   K000q       1       1.0    39.098
    1277       K       1    MUSC   K000r       1       1.0    39.098
    1278       K       1    MUSC   K000s       1       1.0    39.098
    1279      ao       1    MUSC   Al02D       1     1.575    26.982
    1280      ao       1    MUSC   Al02E       1     1.575    26.982
    1281      ao       1    MUSC   Al02F       1     1.575    26.982
    1282      ao       1    MUSC   Al02G       1     1.575    26.982
    1283      ao       1    MUSC   Al02H       1     1.575    26.982
    1284      ao       1    MUSC   Al02I       1     1.575    26.982
    1285      ao       1    MUSC   Al02J       1     1.575    26.982
    1286      ao       1    MUSC   Al02K       1     1.575    26.982
    1287      st       1    MUSC   Si04P       1       2.1    28.086
    1288      st       1    MUSC   Si04Q       1       2.1    28.086
    1289      st       1    MUSC   Si04R       1       2.1    28.086
    1290      st       1    MUSC   Si04S       1       2.1    28.086
    1291      st       1    MUSC   Si04T       1       2.1    28.086
    1292      st       1    MUSC   Si04U       1       2.1    28.086
    1293      st       1    MUSC   Si04V       1       2.1    28.086
    1294      st       1    MUSC   Si04W       1       2.1    28.086
    1295      st       1    MUSC   Si04X       1       2.1    28.086
    1296      st       1    MUSC   Si04Y       1       2.1    28.086
    1297      st       1    MUSC   Si04Z       1       2.1    28.086
    1298      st       1    MUSC   Si04a       1       2.1    28.086
    1299      st       1    MUSC   Si04b       1       2.1    28.086
    1300      st       1    MUSC   Si04c       1       2.1    28.086
    1301      st       1    MUSC   Si04d       1       2.1    28.086
    1302      st       1    MUSC   Si04e       1       2.1    28.086
    1303      ob       1    MUSC   O00DB       1     -1.05    15.999
    1304      ob       1    MUSC   O00DC       1     -1.05    15.999
    1305      ob       1    MUSC   O00DD       1     -1.05    15.999
    1306      ob       1    MUSC   O00DE       1     -1.05    15.999
    1307      oh       1    MUSC   O00DF       1     -0.95    15.999
    1308      oh       1    MUSC   O00DG       1     -0.95    15.999
    1309      oh       1    MUSC   O00DH       1     -0.95    15.999
    1310      oh       1    MUSC   O00DI       1     -0.95    15.999
    1311      ob       1    MUSC   O00DJ       1     -1.05    15.999
    1312      ob       1    MUSC   O00DK       1     -1.05    15.999
    1313      ob       1    MUSC   O00DL       1     -1.05    15.999
    1314      ob       1    MUSC   O00DM       1     -1.05    15.999
    1315      ob       1    MUSC   O00DN       1     -1.05    15.999
    1316      ob       1    MUSC   O00DO       1     -1.05    15.999
    1317      ob       1    MUSC   O00DP       1     -1.05    15.999
    1318      ob       1    MUSC   O00DQ       1     -1.05    15.999
    1319      ob       1    MUSC   O00DR       1     -1.05    15.999
    1320      ob       1    MUSC   O00DS       1     -1.05    15.999
    1321      ob       1    MUSC   O00DT       1     -1.05    15.999
    1322      ob       1    MUSC   O00DU       1     -1.05    15.999
    1323      ob       1    MUSC   O00DV       1     -1.05    15.999
    1324      ob       1    MUSC   O00DW       1     -1.05    15.999
    1325      ob       1    MUSC   O00DX       1     -1.05    15.999
    1326      ob       1    MUSC   O00DY       1     -1.05    15.999
    1327      ob       1    MUSC   O00DZ       1     -1.05    15.999
    1328      ob       1    MUSC   O00Da       1     -1.05    15.999
    1329      ob       1    MUSC   O00Db       1     -1.05    15.999
    1330      ob       1    MUSC   O00Dc       1     -1.05    15.999
    1331      oh       1    MUSC   O00Dd       1     -0.95    15.999
    1332      oh       1    MUSC   O00De       1     -0.95    15.999
    1333      oh       1    MUSC   O00Df       1     -0.95    15.999
    1334      oh       1    MUSC   O00Dg       1     -0.95    15.999
    1335      ob       1    MUSC   O00Dh       1     -1.05    15.999
    1336      ob       1    MUSC   O00Di       1     -1.05    15.999
    1337      ob       1    MUSC   O00Dj       1     -1.05    15.999
    1338      ob       1    MUSC   O00Dk       1     -1.05    15.999
    1339      ob       1    MUSC   O00Dl       1     -1.05    15.999
    1340      ob       1    MUSC   O00Dm       1     -1.05    15.999
    1341      ob       1    MUSC   O00Dn       1     -1.05    15.999
    1342      ob       1    MUSC   O00Do       1     -1.05    15.999
    1343      ob       1    MUSC   O00Dp       1     -1.05    15.999
    1344      ob       1    MUSC   O00Dq       1     -1.05    15.999
    1345      ob       1    MUSC   O00Dr       1     -1.05    15.999
    1346      ob       1    MUSC   O00Ds       1     -1.05    15.999
    1347      ob       1    MUSC   O00Dt       1     -1.05    15.999
    1348      ob       1    MUSC   O00Du       1     -1.05    15.999
    1349      ob       1    MUSC   O00Dv       1     -1.05    15.999
    1350      ob       1    MUSC   O00Dw       1     -1.05    15.999
    1351       K       1    MUSC   K000t       1       1.0    39.098
    1352       K       1    MUSC   K000u       1       1.0    39.098
    1353      ao       1    MUSC   Al02L       1     1.575    26.982
    1354      ao       1    MUSC   Al02M       1     1.575    26.982
    1355      ao       1    MUSC   Al02N       1     1.575    26.982
    1356      ao       1    MUSC   Al02O       1     1.575    26.982
    1357      ao       1    MUSC   Al02P       1     1.575    26.982
    1358      ao       1    MUSC   Al02Q       1     1.575    26.982
    1359      ao       1    MUSC   Al02R       1     1.575    26.982
    1360      ao       1    MUSC   Al02S       1     1.575    26.982
    1361      st       1    MUSC   Si04f       1       2.1    28.086
    1362      st       1    MUSC   Si04g       1       2.1    28.086
    1363      st       1    MUSC   Si04h       1       2.1    28.086
    1364      st       1    MUSC   Si04i       1       2.1    28.086
    1365      st       1    MUSC   Si04j       1       2.1    28.086
    1366      st       1    MUSC   Si04k       1       2.1    28.086
    1367      st       1    MUSC   Si04l       1       2.1    28.086
    1368      st       1    MUSC   Si04m       1       2.1    28.086
    1369      st       1    MUSC   Si04n       1       2.1    28.086
    1370      st       1    MUSC   Si04o       1       2.1    28.086
    1371      st       1    MUSC   Si04p       1       2.1    28.086
    1372      st       1    MUSC   Si04q       1       2.1    28.086
    1373      st       1    MUSC   Si04r       1       2.1    28.086
    1374      st       1    MUSC   Si04s       1       2.1    28.086
    1375      st       1    MUSC   Si04t       1       2.1    28.086
    1376      st       1    MUSC   Si04u       1       2.1    28.086
    1377      ob       1    MUSC   O00Dx       1     -1.05    15.999
    1378      ob       1    MUSC   O00Dy       1     -1.05    15.999
    1379      ob       1    MUSC   O00Dz       1     -1.05    15.999
    1380      ob       1    MUSC   O00E0       1     -1.05    15.999
    1381      oh       1    MUSC   O00E1       1     -0.95    15.999
    1382      oh       1    MUSC   O00E2       1     -0.95    15.999
    1383      oh       1    MUSC   O00E3       1     -0.95    15.999
    1384      oh       1    MUSC   O00E4       1     -0.95    15.999
    1385      ob       1    MUSC   O00E5       1     -1.05    15.999
    1386      ob       1    MUSC   O00E6       1     -1.05    15.999
    1387      ob       1    MUSC   O00E7       1     -1.05    15.999
    1388      ob       1    MUSC   O00E8       1     -1.05    15.999
    1389      ob       1    MUSC   O00E9       1     -1.05    15.999
    1390      ob       1    MUSC   O00EA       1     -1.05    15.999
    1391      ob       1    MUSC   O00EB       1     -1.05    15.999
    1392      ob       1    MUSC   O00EC       1     -1.05    15.999
    1393      ob       1    MUSC   O00ED       1     -1.05    15.999
    1394      ob       1    MUSC   O00EE       1     -1.05    15.999
    1395      ob       1    MUSC   O00EF       1     -1.05    15.999
    1396      ob       1    MUSC   O00EG       1     -1.05    15.999
    1397      ob       1    MUSC   O00EH       1     -1.05    15.999
    1398      ob       1    MUSC   O00EI       1     -1.05    15.999
    1399      ob       1    MUSC   O00EJ       1     -1.05    15.999
    1400      ob       1    MUSC   O00EK       1     -1.05    15.999
    1401      ob       1    MUSC   O00EL       1     -1.05    15.999
    1402      ob       1    MUSC   O00EM       1     -1.05    15.999
    1403      ob       1    MUSC   O00EN       1     -1.05    15.999
    1404      ob       1    MUSC   O00EO       1     -1.05    15.999
    1405      oh       1    MUSC   O00EP       1     -0.95    15.999
    1406      oh       1    MUSC   O00EQ       1     -0.95    15.999
    1407      oh       1    MUSC   O00ER       1     -0.95    15.999
    1408      oh       1    MUSC   O00ES       1     -0.95    15.999
    1409      ob       1    MUSC   O00ET       1     -1.05    15.999
    1410      ob       1    MUSC   O00EU       1     -1.05    15.999
    1411      ob       1    MUSC   O00EV       1     -1.05    15.999
    1412      ob       1    MUSC   O00EW       1     -1.05    15.999
    1413      ob       1    MUSC   O00EX       1     -1.05    15.999
    1414      ob       1    MUSC   O00EY       1     -1.05    15.999
    1415      ob       1    MUSC   O00EZ       1     -1.05    15.999
    1416      ob       1    MUSC   O00Ea       1     -1.05    15.999
    1417      ob       1    MUSC   O00Eb       1     -1.05    15.999
    1418      ob       1    MUSC   O00Ec       1     -1.05    15.999
    1419      ob       1    MUSC   O00Ed       1     -1.05    15.999
    1420      ob       1    MUSC   O00Ee       1     -1.05    15.999
    1421      ob       1    MUSC   O00Ef       1     -1.05    15.999
    1422      ob       1    MUSC   O00Eg       1     -1.05    15.999
    1423      ob       1    MUSC   O00Eh       1     -1.05    15.999
    1424      ob       1    MUSC   O00Ei       1     -1.05    15.999
    1425       K       1    MUSC   K000v       1       1.0    39.098
    1426       K       1    MUSC   K000w       1       1.0    39.098
    1427       K       1    MUSC   K000x       1       1.0    39.098
    1428       K       1    MUSC   K000y       1       1.0    39.098
    1429      ao       1    MUSC   Al02T       1     1.575    26.982
    1430      ao       1    MUSC   Al02U       1     1.575    26.982
    1431      ao       1    MUSC   Al02V       1     1.575    26.982
    1432      ao       1    MUSC   Al02W       1     1.575    26.982
    1433      ao       1    MUSC   Al02X       1     1.575    26.982
    1434      ao       1    MUSC   Al02Y       1     1.575    26.982
    1435      ao       1    MUSC   Al02Z       1     1.575    26.982
    1436      ao       1    MUSC   Al02a       1     1.575    26.982
    1437      st       1    MUSC   Si04v       1       2.1    28.086
    1438      st       1    MUSC   Si04w       1       2.1    28.086
    1439      st       1    MUSC   Si04x       1       2.1    28.086
    1440      st       1    MUSC   Si04y       1       2.1    28.086
    1441      st       1    MUSC   Si04z       1       2.1    28.086
    1442      st       1    MUSC   Si050       1       2.1    28.086
    1443      st       1    MUSC   Si051       1       2.1    28.086
    1444      st       1    MUSC   Si052       1       2.1    28.086
    1445      st       1    MUSC   Si053       1       2.1    28.086
    1446      st       1    MUSC   Si054       1       2.1    28.086
    1447      st       1    MUSC   Si055       1       2.1    28.086
    1448      st       1    MUSC   Si056       1       2.1    28.086
    1449      st       1    MUSC   Si057       1       2.1    28.086
    1450      st       1    MUSC   Si058       1       2.1    28.086
    1451      st       1    MUSC   Si059       1       2.1    28.086
    1452      st       1    MUSC   Si05A       1       2.1    28.086
    1453      ob       1    MUSC   O00Ej       1     -1.05    15.999
    1454      ob       1    MUSC   O00Ek       1     -1.05    15.999
    1455      ob       1    MUSC   O00El       1     -1.05    15.999
    1456      ob       1    MUSC   O00Em       1     -1.05    15.999
    1457      oh       1    MUSC   O00En       1     -0.95    15.999
    1458      oh       1    MUSC   O00Eo       1     -0.95    15.999
    1459      oh       1    MUSC   O00Ep       1     -0.95    15.999
    1460      oh       1    MUSC   O00Eq       1     -0.95    15.999
    1461      ob       1    MUSC   O00Er       1     -1.05    15.999
    1462      ob       1    MUSC   O00Es       1     -1.05    15.999
    1463      ob       1    MUSC   O00Et       1     -1.05    15.999
    1464      ob       1    MUSC   O00Eu       1     -1.05    15.999
    1465      ob       1    MUSC   O00Ev       1     -1.05    15.999
    1466      ob       1    MUSC   O00Ew       1     -1.05    15.999
    1467      ob       1    MUSC   O00Ex       1     -1.05    15.999
    1468      ob       1    MUSC   O00Ey       1     -1.05    15.999
    1469      ob       1    MUSC   O00Ez       1     -1.05    15.999
    1470      ob       1    MUSC   O00F0       1     -1.05    15.999
    1471      ob       1    MUSC   O00F1       1     -1.05    15.999
    1472      ob       1    MUSC   O00F2       1     -1.05    15.999
    1473      ob       1    MUSC   O00F3       1     -1.05    15.999
    1474      ob       1    MUSC   O00F4       1     -1.05    15.999
    1475      ob       1    MUSC   O00F5       1     -1.05    15.999
    1476      ob       1    MUSC   O00F6       1     -1.05    15.999
    1477      ob       1    MUSC   O00F7       1     -1.05    15.999
    1478      ob       1    MUSC   O00F8       1     -1.05    15.999
    1479      ob       1    MUSC   O00F9       1     -1.05    15.999
    1480      ob       1    MUSC   O00FA       1     -1.05    15.999
    1481      oh       1    MUSC   O00FB       1     -0.95    15.999
    1482      oh       1    MUSC   O00FC       1     -0.95    15.999
    1483      oh       1    MUSC   O00FD       1     -0.95    15.999
    1484      oh       1    MUSC   O00FE       1     -0.95    15.999
    1485      ob       1    MUSC   O00FF       1     -1.05    15.999
    1486      ob       1    MUSC   O00FG       1     -1.05    15.999
    1487      ob       1    MUSC   O00FH       1     -1.05    15.999
    1488      ob       1    MUSC   O00FI       1     -1.05    15.999
    1489      ob       1    MUSC   O00FJ       1     -1.05    15.999
    1490      ob       1    MUSC   O00FK       1     -1.05    15.999
    1491      ob       1    MUSC   O00FL       1     -1.05    15.999
    1492      ob       1    MUSC   O00FM       1     -1.05    15.999
    1493      ob       1    MUSC   O00FN       1     -1.05    15.999
    1494      ob       1    MUSC   O00FO       1     -1.05    15.999
    1495      ob       1    MUSC   O00FP       1     -1.05    15.999
    1496      ob       1    MUSC   O00FQ       1     -1.05    15.999
    1497      ob       1    MUSC   O00FR       1     -1.05    15.999
    1498      ob       1    MUSC   O00FS       1     -1.05    15.999
    1499      ob       1    MUSC   O00FT       1     -1.05    15.999
    1500      ob       1    MUSC   O00FU       1     -1.05    15.999
    1501       K       1    MUSC   K000z       1       1.0    39.098
    1502       K       1    MUSC   K0010       1       1.0    39.098
    1503      ao       1    MUSC   Al02b       1     1.575    26.982
    1504      ao       1    MUSC   Al02c       1     1.575    26.982
    1505      ao       1    MUSC   Al02d       1     1.575    26.982
    1506      ao       1    MUSC   Al02e       1     1.575    26.982
    1507      ao       1    MUSC   Al02f       1     1.575    26.982
    1508      ao       1    MUSC   Al02g       1     1.575    26.982
    1509      ao       1    MUSC   Al02h       1     1.575    26.982
    1510      ao       1    MUSC   Al02i       1     1.575    26.982
    1511      st       1    MUSC   Si05B       1       2.1    28.086
    1512      st       1    MUSC   Si05C       1       2.1    28.086
    1513      st       1    MUSC   Si05D       1       2.1    28.086
    1514      st       1    MUSC   Si05E       1       2.1    28.086
    1515      st       1    MUSC   Si05F       1       2.1    28.086
    1516      st       1    MUSC   Si05G       1       2.1    28.086
    1517      st       1    MUSC   Si05H       1       2.1    28.086
    1518      st       1    MUSC   Si05I       1       2.1    28.086
    1519      st       1    MUSC   Si05J       1       2.1    28.086
    1520      st       1    MUSC   Si05K       1       2.1    28.086
    1521      st       1    MUSC   Si05L       1       2.1    28.086
    1522      st       1    MUSC   Si05M       1       2.1    28.086
    1523      st       1    MUSC   Si05N       1       2.1    28.086
    1524      st       1    MUSC   Si05O       1       2.1    28.086
    1525      st       1    MUSC   Si05P       1       2.1    28.086
    1526      st       1    MUSC   Si05Q       1       2.1    28.086
    1527      ob       1    MUSC   O00FV       1     -1.05    15.999
    1528      ob       1    MUSC   O00FW       1     -1.05    15.999
    1529      ob       1    MUSC   O00FX       1     -1.05    15.999
    1530      ob       1    MUSC   O00FY       1     -1.05    15.999
    1531      oh       1    MUSC   O00FZ       1     -0.95    15.999
    1532      oh       1    MUSC   O00Fa       1     -0.95    15.999
    1533      oh       1    MUSC   O00Fb       1     -0.95    15.999
    1534      oh       1    MUSC   O00Fc       1     -0.95    15.999
    1535      ob       1    MUSC   O00Fd       1     -1.05    15.999
    1536      ob       1    MUSC   O00Fe       1     -1.05    15.999
    1537      ob       1    MUSC   O00Ff       1     -1.05    15.999
    1538      ob       1    MUSC   O00Fg       1     -1.05    15.999
    1539      ob       1    MUSC   O00Fh       1     -1.05    15.999
    1540      ob       1    MUSC   O00Fi       1     -1.05    15.999
    1541      ob       1    MUSC   O00Fj       1     -1.05    15.999
    1542      ob       1    MUSC   O00Fk       1     -1.05    15.999
    1543      ob       1    MUSC   O00Fl       1     -1.05    15.999
    1544      ob       1    MUSC   O00Fm       1     -1.05    15.999
    1545      ob       1    MUSC   O00Fn       1     -1.05    15.999
    1546      ob       1    MUSC   O00Fo       1     -1.05    15.999
    1547      ob       1    MUSC   O00Fp       1     -1.05    15.999
    1548      ob       1    MUSC   O00Fq       1     -1.05    15.999
    1549      ob       1    MUSC   O00Fr       1     -1.05    15.999
    1550      ob       1    MUSC   O00Fs       1     -1.05    15.999
    1551      ob       1    MUSC   O00Ft       1     -1.05    15.999
    1552      ob       1    MUSC   O00Fu       1     -1.05    15.999
    1553      ob       1    MUSC   O00Fv       1     -1.05    15.999
    1554      ob       1    MUSC   O00Fw       1     -1.05    15.999
    1555      oh       1    MUSC   O00Fx       1     -0.95    15.999
    1556      oh       1    MUSC   O00Fy       1     -0.95    15.999
    1557      oh       1    MUSC   O00Fz       1     -0.95    15.999
    1558      oh       1    MUSC   O00G0       1     -0.95    15.999
    1559      ob       1    MUSC   O00G1       1     -1.05    15.999
    1560      ob       1    MUSC   O00G2       1     -1.05    15.999
    1561      ob       1    MUSC   O00G3       1     -1.05    15.999
    1562      ob       1    MUSC   O00G4       1     -1.05    15.999
    1563      ob       1    MUSC   O00G5       1     -1.05    15.999
    1564      ob       1    MUSC   O00G6       1     -1.05    15.999
    1565      ob       1    MUSC   O00G7       1     -1.05    15.999
    1566      ob       1    MUSC   O00G8       1     -1.05    15.999
    1567      ob       1    MUSC   O00G9       1     -1.05    15.999
    1568      ob       1    MUSC   O00GA       1     -1.05    15.999
    1569      ob       1    MUSC   O00GB       1     -1.05    15.999
    1570      ob       1    MUSC   O00GC       1     -1.05    15.999
    1571      ob       1    MUSC   O00GD       1     -1.05    15.999
    1572      ob       1    MUSC   O00GE       1     -1.05    15.999
    1573      ob       1    MUSC   O00GF       1     -1.05    15.999
    1574      ob       1    MUSC   O00GG       1     -1.05    15.999
    1575       K       1    MUSC   K0011       1       1.0    39.098
    1576       K       1    MUSC   K0012       1       1.0    39.098
    1577       K       1    MUSC   K0013       1       1.0    39.098
    1578       K       1    MUSC   K0014       1       1.0    39.098
    1579      ao       1    MUSC   Al02j       1     1.575    26.982
    1580      ao       1    MUSC   Al02k       1     1.575    26.982
    1581      ao       1    MUSC   Al02l       1     1.575    26.982
    1582      ao       1    MUSC   Al02m       1     1.575    26.982
    1583      ao       1    MUSC   Al02n       1     1.575    26.982
    1584      ao       1    MUSC   Al02o       1     1.575    26.982
    1585      ao       1    MUSC   Al02p       1     1.575    26.982
    1586      ao       1    MUSC   Al02q       1     1.575    26.982
    1587      st       1    MUSC   Si05R       1       2.1    28.086
    1588      st       1    MUSC   Si05S       1       2.1    28.086
    1589      st       1    MUSC   Si05T       1       2.1    28.086
    1590      st       1    MUSC   Si05U       1       2.1    28.086
    1591      st       1    MUSC   Si05V       1       2.1    28.086
    1592      st       1    MUSC   Si05W       1       2.1    28.086
    1593      st       1    MUSC   Si05X       1       2.1    28.086
    1594      st       1    MUSC   Si05Y       1       2.1    28.086
    1595      st       1    MUSC   Si05Z       1       2.1    28.086
    1596      st       1    MUSC   Si05a       1       2.1    28.086
    1597      st       1    MUSC   Si05b       1       2.1    28.086
    1598      st       1    MUSC   Si05c       1       2.1    28.086
    1599      st       1    MUSC   Si05d       1       2.1    28.086
    1600      st       1    MUSC   Si05e       1       2.1    28.086
    1601      st       1    MUSC   Si05f       1       2.1    28.086
    1602      st       1    MUSC   Si05g       1       2.1    28.086
    1603      ob       1    MUSC   O00GH       1     -1.05    15.999
    1604      ob       1    MUSC   O00GI       1     -1.05    15.999
    1605      ob       1    MUSC   O00GJ       1     -1.05    15.999
    1606      ob       1    MUSC   O00GK       1     -1.05    15.999
    1607      oh       1    MUSC   O00GL       1     -0.95    15.999
    1608      oh       1    MUSC   O00GM       1     -0.95    15.999
    1609      oh       1    MUSC   O00GN       1     -0.95    15.999
    1610      oh       1    MUSC   O00GO       1     -0.95    15.999
    1611      ob       1    MUSC   O00GP       1     -1.05    15.999
    1612      ob       1    MUSC   O00GQ       1     -1.05    15.999
    1613      ob       1    MUSC   O00GR       1     -1.05    15.999
    1614      ob       1    MUSC   O00GS       1     -1.05    15.999
    1615      ob       1    MUSC   O00GT       1     -1.05    15.999
    1616      ob       1    MUSC   O00GU       1     -1.05    15.999
    1617      ob       1    MUSC   O00GV       1     -1.05    15.999
    1618      ob       1    MUSC   O00GW       1     -1.05    15.999
    1619      ob       1    MUSC   O00GX       1     -1.05    15.999
    1620      ob       1    MUSC   O00GY       1     -1.05    15.999
    1621      ob       1    MUSC   O00GZ       1     -1.05    15.999
    1622      ob       1    MUSC   O00Ga       1     -1.05    15.999
    1623      ob       1    MUSC   O00Gb       1     -1.05    15.999
    1624      ob       1    MUSC   O00Gc       1     -1.05    15.999
    1625      ob       1    MUSC   O00Gd       1     -1.05    15.999
    1626      ob       1    MUSC   O00Ge       1     -1.05    15.999
    1627      ob       1    MUSC   O00Gf       1     -1.05    15.999
    1628      ob       1    MUSC   O00Gg       1     -1.05    15.999
    1629      ob       1    MUSC   O00Gh       1     -1.05    15.999
    1630      ob       1    MUSC   O00Gi       1     -1.05    15.999
    1631      oh       1    MUSC   O00Gj       1     -0.95    15.999
    1632      oh       1    MUSC   O00Gk       1     -0.95    15.999
    1633      oh       1    MUSC   O00Gl       1     -0.95    15.999
    1634      oh       1    MUSC   O00Gm       1     -0.95    15.999
    1635      ob       1    MUSC   O00Gn       1     -1.05    15.999
    1636      ob       1    MUSC   O00Go       1     -1.05    15.999
    1637      ob       1    MUSC   O00Gp       1     -1.05    15.999
    1638      ob       1    MUSC   O00Gq       1     -1.05    15.999
    1639      ob       1    MUSC   O00Gr       1     -1.05    15.999
    1640      ob       1    MUSC   O00Gs       1     -1.05    15.999
    1641      ob       1    MUSC   O00Gt       1     -1.05    15.999
    1642      ob       1    MUSC   O00Gu       1     -1.05    15.999
    1643      ob       1    MUSC   O00Gv       1     -1.05    15.999
    1644      ob       1    MUSC   O00Gw       1     -1.05    15.999
    1645      ob       1    MUSC   O00Gx       1     -1.05    15.999
    1646      ob       1    MUSC   O00Gy       1     -1.05    15.999
    1647      ob       1    MUSC   O00Gz       1     -1.05    15.999
    1648      ob       1    MUSC   O00H0       1     -1.05    15.999
    1649      ob       1    MUSC   O00H1       1     -1.05    15.999
    1650      ob       1    MUSC   O00H2       1     -1.05    15.999
    1651       K       1    MUSC   K0015       1       1.0    39.098
    1652       K       1    MUSC   K0016       1       1.0    39.098
    1653      ao       1    MUSC   Al02r       1     1.575    26.982
    1654      ao       1    MUSC   Al02s       1     1.575    26.982
    1655      ao       1    MUSC   Al02t       1     1.575    26.982
    1656      ao       1    MUSC   Al02u       1     1.575    26.982
    1657      ao       1    MUSC   Al02v       1     1.575    26.982
    1658      ao       1    MUSC   Al02w       1     1.575    26.982
    1659      ao       1    MUSC   Al02x       1     1.575    26.982
    1660      ao       1    MUSC   Al02y       1     1.575    26.982
    1661      st       1    MUSC   Si05h       1       2.1    28.086
    1662      st       1    MUSC   Si05i       1       2.1    28.086
    1663      st       1    MUSC   Si05j       1       2.1    28.086
    1664      st       1    MUSC   Si05k       1       2.1    28.086
    1665      st       1    MUSC   Si05l       1       2.1    28.086
    1666      st       1    MUSC   Si05m       1       2.1    28.086
    1667      st       1    MUSC   Si05n       1       2.1    28.086
    1668      st       1    MUSC   Si05o       1       2.1    28.086
    1669      st       1    MUSC   Si05p       1       2.1    28.086
    1670      st       1    MUSC   Si05q       1       2.1    28.086
    1671      st       1    MUSC   Si05r       1       2.1    28.086
    1672      st       1    MUSC   Si05s       1       2.1    28.086
    1673      st       1    MUSC   Si05t       1       2.1    28.086
    1674      st       1    MUSC   Si05u       1       2.1    28.086
    1675      st       1    MUSC   Si05v       1       2.1    28.086
    1676      st       1    MUSC   Si05w       1       2.1    28.086
    1677      ob       1    MUSC   O00H3       1     -1.05    15.999
    1678      ob       1    MUSC   O00H4       1     -1.05    15.999
    1679      ob       1    MUSC   O00H5       1     -1.05    15.999
    1680      ob       1    MUSC   O00H6       1     -1.05    15.999
    1681      oh       1    MUSC   O00H7       1     -0.95    15.999
    1682      oh       1    MUSC   O00H8       1     -0.95    15.999
    1683      oh       1    MUSC   O00H9       1     -0.95    15.999
    1684      oh       1    MUSC   O00HA       1     -0.95    15.999
    1685      ob       1    MUSC   O00HB       1     -1.05    15.999
    1686      ob       1    MUSC   O00HC       1     -1.05    15.999
    1687      ob       1    MUSC   O00HD       1     -1.05    15.999
    1688      ob       1    MUSC   O00HE       1     -1.05    15.999
    1689      ob       1    MUSC   O00HF       1     -1.05    15.999
    1690      ob       1    MUSC   O00HG       1     -1.05    15.999
    1691      ob       1    MUSC   O00HH       1     -1.05    15.999
    1692      ob       1    MUSC   O00HI       1     -1.05    15.999
    1693      ob       1    MUSC   O00HJ       1     -1.05    15.999
    1694      ob       1    MUSC   O00HK       1     -1.05    15.999
    1695      ob       1    MUSC   O00HL       1     -1.05    15.999
    1696      ob       1    MUSC   O00HM       1     -1.05    15.999
    1697      ob       1    MUSC   O00HN       1     -1.05    15.999
    1698      ob       1    MUSC   O00HO       1     -1.05    15.999
    1699      ob       1    MUSC   O00HP       1     -1.05    15.999
    1700      ob       1    MUSC   O00HQ       1     -1.05    15.999
    1701      ob       1    MUSC   O00HR       1     -1.05    15.999
    1702      ob       1    MUSC   O00HS       1     -1.05    15.999
    1703      ob       1    MUSC   O00HT       1     -1.05    15.999
    1704      ob       1    MUSC   O00HU       1     -1.05    15.999
    1705      oh       1    MUSC   O00HV       1     -0.95    15.999
    1706      oh       1    MUSC   O00HW       1     -0.95    15.999
    1707      oh       1    MUSC   O00HX       1     -0.95    15.999
    1708      oh       1    MUSC   O00HY       1     -0.95    15.999
    1709      ob       1    MUSC   O00HZ       1     -1.05    15.999
    1710      ob       1    MUSC   O00Ha       1     -1.05    15.999
    1711      ob       1    MUSC   O00Hb       1     -1.05    15.999
    1712      ob       1    MUSC   O00Hc       1     -1.05    15.999
    1713      ob       1    MUSC   O00Hd       1     -1.05    15.999
    1714      ob       1    MUSC   O00He       1     -1.05    15.999
    1715      ob       1    MUSC   O00Hf       1     -1.05    15.999
    1716      ob       1    MUSC   O00Hg       1     -1.05    15.999
    1717      ob       1    MUSC   O00Hh       1     -1.05    15.999
    1718      ob       1    MUSC   O00Hi       1     -1.05    15.999
    1719      ob       1    MUSC   O00Hj       1     -1.05    15.999
    1720      ob       1    MUSC   O00Hk       1     -1.05    15.999
    1721      ob       1    MUSC   O00Hl       1     -1.05    15.999
    1722      ob       1    MUSC   O00Hm       1     -1.05    15.999
    1723      ob       1    MUSC   O00Hn       1     -1.05    15.999
    1724      ob       1    MUSC   O00Ho       1     -1.05    15.999
    1725       K       1    MUSC   K0017       1       1.0    39.098
    1726       K       1    MUSC   K0018       1       1.0    39.098
    1727       K       1    MUSC   K0019       1       1.0    39.098
    1728       K       1    MUSC   K001A       1       1.0    39.098
    1729      ao       1    MUSC   Al02z       1     1.575    26.982
    1730      ao       1    MUSC   Al030       1     1.575    26.982
    1731      ao       1    MUSC   Al031       1     1.575    26.982
    1732      ao       1    MUSC   Al032       1     1.575    26.982
    1733      ao       1    MUSC   Al033       1     1.575    26.982
    1734      ao       1    MUSC   Al034       1     1.575    26.982
    1735      ao       1    MUSC   Al035       1     1.575    26.982
    1736      ao       1    MUSC   Al036       1     1.575    26.982
    1737      st       1    MUSC   Si05x       1       2.1    28.086
    1738      st       1    MUSC   Si05y       1       2.1    28.086
    1739      st       1    MUSC   Si05z       1       2.1    28.086
    1740      st       1    MUSC   Si060       1       2.1    28.086
    1741      st       1    MUSC   Si061       1       2.1    28.086
    1742      st       1    MUSC   Si062       1       2.1    28.086
    1743      st       1    MUSC   Si063       1       2.1    28.086
    1744      st       1    MUSC   Si064       1       2.1    28.086
    1745      st       1    MUSC   Si065       1       2.1    28.086
    1746      st       1    MUSC   Si066       1       2.1    28.086
    1747      st       1    MUSC   Si067       1       2.1    28.086
    1748      st       1    MUSC   Si068       1       2.1    28.086
    1749      st       1    MUSC   Si069       1       2.1    28.086
    1750      st       1    MUSC   Si06A       1       2.1    28.086
    1751      st       1    MUSC   Si06B       1       2.1    28.086
    1752      st       1    MUSC   Si06C       1       2.1    28.086
    1753      ob       1    MUSC   O00Hp       1     -1.05    15.999
    1754      ob       1    MUSC   O00Hq       1     -1.05    15.999
    1755      ob       1    MUSC   O00Hr       1     -1.05    15.999
    1756      ob       1    MUSC   O00Hs       1     -1.05    15.999
    1757      oh       1    MUSC   O00Ht       1     -0.95    15.999
    1758      oh       1    MUSC   O00Hu       1     -0.95    15.999
    1759      oh       1    MUSC   O00Hv       1     -0.95    15.999
    1760      oh       1    MUSC   O00Hw       1     -0.95    15.999
    1761      ob       1    MUSC   O00Hx       1     -1.05    15.999
    1762      ob       1    MUSC   O00Hy       1     -1.05    15.999
    1763      ob       1    MUSC   O00Hz       1     -1.05    15.999
    1764      ob       1    MUSC   O00I0       1     -1.05    15.999
    1765      ob       1    MUSC   O00I1       1     -1.05    15.999
    1766      ob       1    MUSC   O00I2       1     -1.05    15.999
    1767      ob       1    MUSC   O00I3       1     -1.05    15.999
    1768      ob       1    MUSC   O00I4       1     -1.05    15.999
    1769      ob       1    MUSC   O00I5       1     -1.05    15.999
    1770      ob       1    MUSC   O00I6       1     -1.05    15.999
    1771      ob       1    MUSC   O00I7       1     -1.05    15.999
    1772      ob       1    MUSC   O00I8       1     -1.05    15.999
    1773      ob       1    MUSC   O00I9       1     -1.05    15.999
    1774      ob       1    MUSC   O00IA       1     -1.05    15.999
    1775      ob       1    MUSC   O00IB       1     -1.05    15.999
    1776      ob       1    MUSC   O00IC       1     -1.05    15.999
    1777      ob       1    MUSC   O00ID       1     -1.05    15.999
    1778      ob       1    MUSC   O00IE       1     -1.05    15.999
    1779      ob       1    MUSC   O00IF       1     -1.05    15.999
    1780      ob       1    MUSC   O00IG       1     -1.05    15.999
    1781      oh       1    MUSC   O00IH       1     -0.95    15.999
    1782      oh       1    MUSC   O00II       1     -0.95    15.999
    1783      oh       1    MUSC   O00IJ       1     -0.95    15.999
    1784      oh       1    MUSC   O00IK       1     -0.95    15.999
    1785      ob       1    MUSC   O00IL       1     -1.05    15.999
    1786      ob       1    MUSC   O00IM       1     -1.05    15.999
    1787      ob       1    MUSC   O00IN       1     -1.05    15.999
    1788      ob       1    MUSC   O00IO       1     -1.05    15.999
    1789      ob       1    MUSC   O00IP       1     -1.05    15.999
    1790      ob       1    MUSC   O00IQ       1     -1.05    15.999
    1791      ob       1    MUSC   O00IR       1     -1.05    15.999
    1792      ob       1    MUSC   O00IS       1     -1.05    15.999
    1793      ob       1    MUSC   O00IT       1     -1.05    15.999
    1794      ob       1    MUSC   O00IU       1     -1.05    15.999
    1795      ob       1    MUSC   O00IV       1     -1.05    15.999
    1796      ob       1    MUSC   O00IW       1     -1.05    15.999
    1797      ob       1    MUSC   O00IX       1     -1.05    15.999
    1798      ob       1    MUSC   O00IY       1     -1.05    15.999
    1799      ob       1    MUSC   O00IZ       1     -1.05    15.999
    1800      ob       1    MUSC   O00Ia       1     -1.05    15.999
    1801       K       1    MUSC   K001B       1       1.0    39.098
    1802       K       1    MUSC   K001C       1       1.0    39.098
    1803      ao       1    MUSC   Al037       1     1.575    26.982
    1804      ao       1    MUSC   Al038       1     1.575    26.982
    1805      ao       1    MUSC   Al039       1     1.575    26.982
    1806      ao       1    MUSC   Al03A       1     1.575    26.982
    1807      ao       1    MUSC   Al03B       1     1.575    26.982
    1808      ao       1    MUSC   Al03C       1     1.575    26.982
    1809      ao       1    MUSC   Al03D       1     1.575    26.982
    1810      ao       1    MUSC   Al03E       1     1.575    26.982
    1811      st       1    MUSC   Si06D       1       2.1    28.086
    1812      st       1    MUSC   Si06E       1       2.1    28.086
    1813      st       1    MUSC   Si06F       1       2.1    28.086
    1814      st       1    MUSC   Si06G       1       2.1    28.086
    1815      st       1    MUSC   Si06H       1       2.1    28.086
    1816      st       1    MUSC   Si06I       1       2.1    28.086
    1817      st       1    MUSC   Si06J       1       2.1    28.086
    1818      st       1    MUSC   Si06K       1       2.1    28.086
    1819      st       1    MUSC   Si06L       1       2.1    28.086
    1820      st       1    MUSC   Si06M       1       2.1    28.086
    1821      st       1    MUSC   Si06N       1       2.1    28.086
    1822      st       1    MUSC   Si06O       1       2.1    28.086
    1823      st       1    MUSC   Si06P       1       2.1    28.086
    1824      st       1    MUSC   Si06Q       1       2.1    28.086
    1825      st       1    MUSC   Si06R       1       2.1    28.086
    1826      st       1    MUSC   Si06S       1       2.1    28.086
    1827      ob       1    MUSC   O00Ib       1     -1.05    15.999
    1828      ob       1    MUSC   O00Ic       1     -1.05    15.999
    1829      ob       1    MUSC   O00Id       1     -1.05    15.999
    1830      ob       1    MUSC   O00Ie       1     -1.05    15.999
    1831      oh       1    MUSC   O00If       1     -0.95    15.999
    1832      oh       1    MUSC   O00Ig       1     -0.95    15.999
    1833      oh       1    MUSC   O00Ih       1     -0.95    15.999
    1834      oh       1    MUSC   O00Ii       1     -0.95    15.999
    1835      ob       1    MUSC   O00Ij       1     -1.05    15.999
    1836      ob       1    MUSC   O00Ik       1     -1.05    15.999
    1837      ob       1    MUSC   O00Il       1     -1.05    15.999
    1838      ob       1    MUSC   O00Im       1     -1.05    15.999
    1839      ob       1    MUSC   O00In       1     -1.05    15.999
    1840      ob       1    MUSC   O00Io       1     -1.05    15.999
    1841      ob       1    MUSC   O00Ip       1     -1.05    15.999
    1842      ob       1    MUSC   O00Iq       1     -1.05    15.999
    1843      ob       1    MUSC   O00Ir       1     -1.05    15.999
    1844      ob       1    MUSC   O00Is       1     -1.05    15.999
    1845      ob       1    MUSC   O00It       1     -1.05    15.999
    1846      ob       1    MUSC   O00Iu       1     -1.05    15.999
    1847      ob       1    MUSC   O00Iv       1     -1.05    15.999
    1848      ob       1    MUSC   O00Iw       1     -1.05    15.999
    1849      ob       1    MUSC   O00Ix       1     -1.05    15.999
    1850      ob       1    MUSC   O00Iy       1     -1.05    15.999
    1851      ob       1    MUSC   O00Iz       1     -1.05    15.999
    1852      ob       1    MUSC   O00J0       1     -1.05    15.999
    1853      ob       1    MUSC   O00J1       1     -1.05    15.999
    1854      ob       1    MUSC   O00J2       1     -1.05    15.999
    1855      oh       1    MUSC   O00J3       1     -0.95    15.999
    1856      oh       1    MUSC   O00J4       1     -0.95    15.999
    1857      oh       1    MUSC   O00J5       1     -0.95    15.999
    1858      oh       1    MUSC   O00J6       1     -0.95    15.999
    1859      ob       1    MUSC   O00J7       1     -1.05    15.999
    1860      ob       1    MUSC   O00J8       1     -1.05    15.999
    1861      ob       1    MUSC   O00J9       1     -1.05    15.999
    1862      ob       1    MUSC   O00JA       1     -1.05    15.999
    1863      ob       1    MUSC   O00JB       1     -1.05    15.999
    1864      ob       1    MUSC   O00JC       1     -1.05    15.999
    1865      ob       1    MUSC   O00JD       1     -1.05    15.999
    1866      ob       1    MUSC   O00JE       1     -1.05    15.999
    1867      ob       1    MUSC   O00JF       1     -1.05    15.999
    1868      ob       1    MUSC   O00JG       1     -1.05    15.999
    1869      ob       1    MUSC   O00JH       1     -1.05    15.999
    1870      ob       1    MUSC   O00JI       1     -1.05    15.999
    1871      ob       1    MUSC   O00JJ       1     -1.05    15.999
    1872      ob       1    MUSC   O00JK       1     -1.05    15.999
    1873      ob       1    MUSC   O00JL       1     -1.05    15.999
    1874      ob       1    MUSC   O00JM       1     -1.05    15.999
    1875       K       1    MUSC   K001D       1       1.0    39.098
    1876       K       1    MUSC   K001E       1       1.0    39.098
    1877       K       1    MUSC   K001F       1       1.0    39.098
    1878       K       1    MUSC   K001G       1       1.0    39.098
    1879      ao       1    MUSC   Al03F       1     1.575    26.982
    1880      ao       1    MUSC   Al03G       1     1.575    26.982
    1881      ao       1    MUSC   Al03H       1     1.575    26.982
    1882      ao       1    MUSC   Al03I       1     1.575    26.982
    1883      ao       1    MUSC   Al03J       1     1.575    26.982
    1884      ao       1    MUSC   Al03K       1     1.575    26.982
    1885      ao       1    MUSC   Al03L       1     1.575    26.982
    1886      ao       1    MUSC   Al03M       1     1.575    26.982
    1887      st       1    MUSC   Si06T       1       2.1    28.086
    1888      st       1    MUSC   Si06U       1       2.1    28.086
    1889      st       1    MUSC   Si06V       1       2.1    28.086
    1890      st       1    MUSC   Si06W       1       2.1    28.086
    1891      st       1    MUSC   Si06X       1       2.1    28.086
    1892      st       1    MUSC   Si06Y       1       2.1    28.086
    1893      st       1    MUSC   Si06Z       1       2.1    28.086
    1894      st       1    MUSC   Si06a       1       2.1    28.086
    1895      st       1    MUSC   Si06b       1       2.1    28.086
    1896      st       1    MUSC   Si06c       1       2.1    28.086
    1897      st       1    MUSC   Si06d       1       2.1    28.086
    1898      st       1    MUSC   Si06e       1       2.1    28.086
    1899      st       1    MUSC   Si06f       1       2.1    28.086
    1900      st       1    MUSC   Si06g       1       2.1    28.086
    1901      st       1    MUSC   Si06h       1       2.1    28.086
    1902      st       1    MUSC   Si06i       1       2.1    28.086
    1903      ob       1    MUSC   O00JN       1     -1.05    15.999
    1904      ob       1    MUSC   O00JO       1     -1.05    15.999
    1905      ob       1    MUSC   O00JP       1     -1.05    15.999
    1906      ob       1    MUSC   O00JQ       1     -1.05    15.999
    1907      oh       1    MUSC   O00JR       1     -0.95    15.999
    1908      oh       1    MUSC   O00JS       1     -0.95    15.999
    1909      oh       1    MUSC   O00JT       1     -0.95    15.999
    1910      oh       1    MUSC   O00JU       1     -0.95    15.999
    1911      ob       1    MUSC   O00JV       1     -1.05    15.999
    1912      ob       1    MUSC   O00JW       1     -1.05    15.999
    1913      ob       1    MUSC   O00JX       1     -1.05    15.999
    1914      ob       1    MUSC   O00JY       1     -1.05    15.999
    1915      ob       1    MUSC   O00JZ       1     -1.05    15.999
    1916      ob       1    MUSC   O00Ja       1     -1.05    15.999
    1917      ob       1    MUSC   O00Jb       1     -1.05    15.999
    1918      ob       1    MUSC   O00Jc       1     -1.05    15.999
    1919      ob       1    MUSC   O00Jd       1     -1.05    15.999
    1920      ob       1    MUSC   O00Je       1     -1.05    15.999
    1921      ob       1    MUSC   O00Jf       1     -1.05    15.999
    1922      ob       1    MUSC   O00Jg       1     -1.05    15.999
    1923      ob       1    MUSC   O00Jh       1     -1.05    15.999
    1924      ob       1    MUSC   O00Ji       1     -1.05    15.999
    1925      ob       1    MUSC   O00Jj       1     -1.05    15.999
    1926      ob       1    MUSC   O00Jk       1     -1.05    15.999
    1927      ob       1    MUSC   O00Jl       1     -1.05    15.999
    1928      ob       1    MUSC   O00Jm       1     -1.05    15.999
    1929      ob       1    MUSC   O00Jn       1     -1.05    15.999
    1930      ob       1    MUSC   O00Jo       1     -1.05    15.999
    1931      oh       1    MUSC   O00Jp       1     -0.95    15.999
    1932      oh       1    MUSC   O00Jq       1     -0.95    15.999
    1933      oh       1    MUSC   O00Jr       1     -0.95    15.999
    1934      oh       1    MUSC   O00Js       1     -0.95    15.999
    1935      ob       1    MUSC   O00Jt       1     -1.05    15.999
    1936      ob       1    MUSC   O00Ju       1     -1.05    15.999
    1937      ob       1    MUSC   O00Jv       1     -1.05    15.999
    1938      ob       1    MUSC   O00Jw       1     -1.05    15.999
    1939      ob       1    MUSC   O00Jx       1     -1.05    15.999
    1940      ob       1    MUSC   O00Jy       1     -1.05    15.999
    1941      ob       1    MUSC   O00Jz       1     -1.05    15.999
    1942      ob       1    MUSC   O00K0       1     -1.05    15.999
    1943      ob       1    MUSC   O00K1       1     -1.05    15.999
    1944      ob       1    MUSC   O00K2       1     -1.05    15.999
    1945      ob       1    MUSC   O00K3       1     -1.05    15.999
    1946      ob       1    MUSC   O00K4       1     -1.05    15.999
    1947      ob       1    MUSC   O00K5       1     -1.05    15.999
    1948      ob       1    MUSC   O00K6       1     -1.05    15.999
    1949      ob       1    MUSC   O00K7       1     -1.05    15.999
    1950      ob       1    MUSC   O00K8       1     -1.05    15.999
    1951       K       1    MUSC   K001H       1       1.0    39.098
    1952       K       1    MUSC   K001I       1       1.0    39.098
    1953      ao       1    MUSC   Al03N       1     1.575    26.982
    1954      ao       1    MUSC   Al03O       1     1.575    26.982
    1955      ao       1    MUSC   Al03P       1     1.575    26.982
    1956      ao       1    MUSC   Al03Q       1     1.575    26.982
    1957      ao       1    MUSC   Al03R       1     1.575    26.982
    1958      ao       1    MUSC   Al03S       1     1.575    26.982
    1959      ao       1    MUSC   Al03T       1     1.575    26.982
    1960      ao       1    MUSC   Al03U       1     1.575    26.982
    1961      st       1    MUSC   Si06j       1       2.1    28.086
    1962      st       1    MUSC   Si06k       1       2.1    28.086
    1963      st       1    MUSC   Si06l       1       2.1    28.086
    1964      st       1    MUSC   Si06m       1       2.1    28.086
    1965      st       1    MUSC   Si06n       1       2.1    28.086
    1966      st       1    MUSC   Si06o       1       2.1    28.086
    1967      st       1    MUSC   Si06p       1       2.1    28.086
    1968      st       1    MUSC   Si06q       1       2.1    28.086
    1969      st       1    MUSC   Si06r       1       2.1    28.086
    1970      st       1    MUSC   Si06s       1       2.1    28.086
    1971      st       1    MUSC   Si06t       1       2.1    28.086
    1972      st       1    MUSC   Si06u       1       2.1    28.086
    1973      st       1    MUSC   Si06v       1       2.1    28.086
    1974      st       1    MUSC   Si06w       1       2.1    28.086
    1975      st       1    MUSC   Si06x       1       2.1    28.086
    1976      st       1    MUSC   Si06y       1       2.1    28.086
    1977      ob       1    MUSC   O00K9       1     -1.05    15.999
    1978      ob       1    MUSC   O00KA       1     -1.05    15.999
    1979      ob       1    MUSC   O00KB       1     -1.05    15.999
    1980      ob       1    MUSC   O00KC       1     -1.05    15.999
    1981      oh       1    MUSC   O00KD       1     -0.95    15.999
    1982      oh       1    MUSC   O00KE       1     -0.95    15.999
    1983      oh       1    MUSC   O00KF       1     -0.95    15.999
    1984      oh       1    MUSC   O00KG       1     -0.95    15.999
    1985      ob       1    MUSC   O00KH       1     -1.05    15.999
    1986      ob       1    MUSC   O00KI       1     -1.05    15.999
    1987      ob       1    MUSC   O00KJ       1     -1.05    15.999
    1988      ob       1    MUSC   O00KK       1     -1.05    15.999
    1989      ob       1    MUSC   O00KL       1     -1.05    15.999
    1990      ob       1    MUSC   O00KM       1     -1.05    15.999
    1991      ob       1    MUSC   O00KN       1     -1.05    15.999
    1992      ob       1    MUSC   O00KO       1     -1.05    15.999
    1993      ob       1    MUSC   O00KP       1     -1.05    15.999
    1994      ob       1    MUSC   O00KQ       1     -1.05    15.999
    1995      ob       1    MUSC   O00KR       1     -1.05    15.999
    1996      ob       1    MUSC   O00KS       1     -1.05    15.999
    1997      ob       1    MUSC   O00KT       1     -1.05    15.999
    1998      ob       1    MUSC   O00KU       1     -1.05    15.999
    1999      ob       1    MUSC   O00KV       1     -1.05    15.999
    2000      ob       1    MUSC   O00KW       1     -1.05    15.999
    2001      ob       1    MUSC   O00KX       1     -1.05    15.999
    2002      ob       1    MUSC   O00KY       1     -1.05    15.999
    2003      ob       1    MUSC   O00KZ       1     -1.05    15.999
    2004      ob       1    MUSC   O00Ka       1     -1.05    15.999
    2005      oh       1    MUSC   O00Kb       1     -0.95    15.999
    2006      oh       1    MUSC   O00Kc       1     -0.95    15.999
    2007      oh       1    MUSC   O00Kd       1     -0.95    15.999
    2008      oh       1    MUSC   O00Ke       1     -0.95    15.999
    2009      ob       1    MUSC   O00Kf       1     -1.05    15.999
    2010      ob       1    MUSC   O00Kg       1     -1.05    15.999
    2011      ob       1    MUSC   O00Kh       1     -1.05    15.999
    2012      ob       1    MUSC   O00Ki       1     -1.05    15.999
    2013      ob       1    MUSC   O00Kj       1     -1.05    15.999
    2014      ob       1    MUSC   O00Kk       1     -1.05    15.999
    2015      ob       1    MUSC   O00Kl       1     -1.05    15.999
    2016      ob       1    MUSC   O00Km       1     -1.05    15.999
    2017      ob       1    MUSC   O00Kn       1     -1.05    15.999
    2018      ob       1    MUSC   O00Ko       1     -1.05    15.999
    2019      ob       1    MUSC   O00Kp       1     -1.05    15.999
    2020      ob       1    MUSC   O00Kq       1     -1.05    15.999
    2021      ob       1    MUSC   O00Kr       1     -1.05    15.999
    2022      ob       1    MUSC   O00Ks       1     -1.05    15.999
    2023      ob       1    MUSC   O00Kt       1     -1.05    15.999
    2024      ob       1    MUSC   O00Ku       1     -1.05    15.999
    2025       K       1    MUSC   K001J       1       1.0    39.098
    2026       K       1    MUSC   K001K       1       1.0    39.098
    2027       K       1    MUSC   K001L       1       1.0    39.098
    2028       K       1    MUSC   K001M       1       1.0    39.098
    2029      ao       1    MUSC   Al03V       1     1.575    26.982
    2030      ao       1    MUSC   Al03W       1     1.575    26.982
    2031      ao       1    MUSC   Al03X       1     1.575    26.982
    2032      ao       1    MUSC   Al03Y       1     1.575    26.982
    2033      ao       1    MUSC   Al03Z       1     1.575    26.982
    2034      ao       1    MUSC   Al03a       1     1.575    26.982
    2035      ao       1    MUSC   Al03b       1     1.575    26.982
    2036      ao       1    MUSC   Al03c       1     1.575    26.982
    2037      st       1    MUSC   Si06z       1       2.1    28.086
    2038      st       1    MUSC   Si070       1       2.1    28.086
    2039      st       1    MUSC   Si071       1       2.1    28.086
    2040      st       1    MUSC   Si072       1       2.1    28.086
    2041      st       1    MUSC   Si073       1       2.1    28.086
    2042      st       1    MUSC   Si074       1       2.1    28.086
    2043      st       1    MUSC   Si075       1       2.1    28.086
    2044      st       1    MUSC   Si076       1       2.1    28.086
    2045      st       1    MUSC   Si077       1       2.1    28.086
    2046      st       1    MUSC   Si078       1       2.1    28.086
    2047      st       1    MUSC   Si079       1       2.1    28.086
    2048      st       1    MUSC   Si07A       1       2.1    28.086
    2049      st       1    MUSC   Si07B       1       2.1    28.086
    2050      st       1    MUSC   Si07C       1       2.1    28.086
    2051      st       1    MUSC   Si07D       1       2.1    28.086
    2052      st       1    MUSC   Si07E       1       2.1    28.086
    2053      ob       1    MUSC   O00Kv       1     -1.05    15.999
    2054      ob       1    MUSC   O00Kw       1     -1.05    15.999
    2055      ob       1    MUSC   O00Kx       1     -1.05    15.999
    2056      ob       1    MUSC   O00Ky       1     -1.05    15.999
    2057      oh       1    MUSC   O00Kz       1     -0.95    15.999
    2058      oh       1    MUSC   O00L0       1     -0.95    15.999
    2059      oh       1    MUSC   O00L1       1     -0.95    15.999
    2060      oh       1    MUSC   O00L2       1     -0.95    15.999
    2061      ob       1    MUSC   O00L3       1     -1.05    15.999
    2062      ob       1    MUSC   O00L4       1     -1.05    15.999
    2063      ob       1    MUSC   O00L5       1     -1.05    15.999
    2064      ob       1    MUSC   O00L6       1     -1.05    15.999
    2065      ob       1    MUSC   O00L7       1     -1.05    15.999
    2066      ob       1    MUSC   O00L8       1     -1.05    15.999
    2067      ob       1    MUSC   O00L9       1     -1.05    15.999
    2068      ob       1    MUSC   O00LA       1     -1.05    15.999
    2069      ob       1    MUSC   O00LB       1     -1.05    15.999
    2070      ob       1    MUSC   O00LC       1     -1.05    15.999
    2071      ob       1    MUSC   O00LD       1     -1.05    15.999
    2072      ob       1    MUSC   O00LE       1     -1.05    15.999
    2073      ob       1    MUSC   O00LF       1     -1.05    15.999
    2074      ob       1    MUSC   O00LG       1     -1.05    15.999
    2075      ob       1    MUSC   O00LH       1     -1.05    15.999
    2076      ob       1    MUSC   O00LI       1     -1.05    15.999
    2077      ob       1    MUSC   O00LJ       1     -1.05    15.999
    2078      ob       1    MUSC   O00LK       1     -1.05    15.999
    2079      ob       1    MUSC   O00LL       1     -1.05    15.999
    2080      ob       1    MUSC   O00LM       1     -1.05    15.999
    2081      oh       1    MUSC   O00LN       1     -0.95    15.999
    2082      oh       1    MUSC   O00LO       1     -0.95    15.999
    2083      oh       1    MUSC   O00LP       1     -0.95    15.999
    2084      oh       1    MUSC   O00LQ       1     -0.95    15.999
    2085      ob       1    MUSC   O00LR       1     -1.05    15.999
    2086      ob       1    MUSC   O00LS       1     -1.05    15.999
    2087      ob       1    MUSC   O00LT       1     -1.05    15.999
    2088      ob       1    MUSC   O00LU       1     -1.05    15.999
    2089      ob       1    MUSC   O00LV       1     -1.05    15.999
    2090      ob       1    MUSC   O00LW       1     -1.05    15.999
    2091      ob       1    MUSC   O00LX       1     -1.05    15.999
    2092      ob       1    MUSC   O00LY       1     -1.05    15.999
    2093      ob       1    MUSC   O00LZ       1     -1.05    15.999
    2094      ob       1    MUSC   O00La       1     -1.05    15.999
    2095      ob       1    MUSC   O00Lb       1     -1.05    15.999
    2096      ob       1    MUSC   O00Lc       1     -1.05    15.999
    2097      ob       1    MUSC   O00Ld       1     -1.05    15.999
    2098      ob       1    MUSC   O00Le       1     -1.05    15.999
    2099      ob       1    MUSC   O00Lf       1     -1.05    15.999
    2100      ob       1    MUSC   O00Lg       1     -1.05    15.999
    2101       K       1    MUSC   K001N       1       1.0    39.098
    2102       K       1    MUSC   K001O       1       1.0    39.098
    2103      ao       1    MUSC   Al03d       1     1.575    26.982
    2104      ao       1    MUSC   Al03e       1     1.575    26.982
    2105      ao       1    MUSC   Al03f       1     1.575    26.982
    2106      ao       1    MUSC   Al03g       1     1.575    26.982
    2107      ao       1    MUSC   Al03h       1     1.575    26.982
    2108      ao       1    MUSC   Al03i       1     1.575    26.982
    2109      ao       1    MUSC   Al03j       1     1.575    26.982
    2110      ao       1    MUSC   Al03k       1     1.575    26.982
    2111      st       1    MUSC   Si07F       1       2.1    28.086
    2112      st       1    MUSC   Si07G       1       2.1    28.086
    2113      st       1    MUSC   Si07H       1       2.1    28.086
    2114      st       1    MUSC   Si07I       1       2.1    28.086
    2115      st       1    MUSC   Si07J       1       2.1    28.086
    2116      st       1    MUSC   Si07K       1       2.1    28.086
    2117      st       1    MUSC   Si07L       1       2.1    28.086
    2118      st       1    MUSC   Si07M       1       2.1    28.086
    2119      st       1    MUSC   Si07N       1       2.1    28.086
    2120      st       1    MUSC   Si07O       1       2.1    28.086
    2121      st       1    MUSC   Si07P       1       2.1    28.086
    2122      st       1    MUSC   Si07Q       1       2.1    28.086
    2123      st       1    MUSC   Si07R       1       2.1    28.086
    2124      st       1    MUSC   Si07S       1       2.1    28.086
    2125      st       1    MUSC   Si07T       1       2.1    28.086
    2126      st       1    MUSC   Si07U       1       2.1    28.086
    2127      ob       1    MUSC   O00Lh       1     -1.05    15.999
    2128      ob       1    MUSC   O00Li       1     -1.05    15.999
    2129      ob       1    MUSC   O00Lj       1     -1.05    15.999
    2130      ob       1    MUSC   O00Lk       1     -1.05    15.999
    2131      oh       1    MUSC   O00Ll       1     -0.95    15.999
    2132      oh       1    MUSC   O00Lm       1     -0.95    15.999
    2133      oh       1    MUSC   O00Ln       1     -0.95    15.999
    2134      oh       1    MUSC   O00Lo       1     -0.95    15.999
    2135      ob       1    MUSC   O00Lp       1     -1.05    15.999
    2136      ob       1    MUSC   O00Lq       1     -1.05    15.999
    2137      ob       1    MUSC   O00Lr       1     -1.05    15.999
    2138      ob       1    MUSC   O00Ls       1     -1.05    15.999
    2139      ob       1    MUSC   O00Lt       1     -1.05    15.999
    2140      ob       1    MUSC   O00Lu       1     -1.05    15.999
    2141      ob       1    MUSC   O00Lv       1     -1.05    15.999
    2142      ob       1    MUSC   O00Lw       1     -1.05    15.999
    2143      ob       1    MUSC   O00Lx       1     -1.05    15.999
    2144      ob       1    MUSC   O00Ly       1     -1.05    15.999
    2145      ob       1    MUSC   O00Lz       1     -1.05    15.999
    2146      ob       1    MUSC   O00M0       1     -1.05    15.999
    2147      ob       1    MUSC   O00M1       1     -1.05    15.999
    2148      ob       1    MUSC   O00M2       1     -1.05    15.999
    2149      ob       1    MUSC   O00M3       1     -1.05    15.999
    2150      ob       1    MUSC   O00M4       1     -1.05    15.999
    2151      ob       1    MUSC   O00M5       1     -1.05    15.999
    2152      ob       1    MUSC   O00M6       1     -1.05    15.999
    2153      ob       1    MUSC   O00M7       1     -1.05    15.999
    2154      ob       1    MUSC   O00M8       1     -1.05    15.999
    2155      oh       1    MUSC   O00M9       1     -0.95    15.999
    2156      oh       1    MUSC   O00MA       1     -0.95    15.999
    2157      oh       1    MUSC   O00MB       1     -0.95    15.999
    2158      oh       1    MUSC   O00MC       1     -0.95    15.999
    2159      ob       1    MUSC   O00MD       1     -1.05    15.999
    2160      ob       1    MUSC   O00ME       1     -1.05    15.999
    2161      ob       1    MUSC   O00MF       1     -1.05    15.999
    2162      ob       1    MUSC   O00MG       1     -1.05    15.999
    2163      ob       1    MUSC   O00MH       1     -1.05    15.999
    2164      ob       1    MUSC   O00MI       1     -1.05    15.999
    2165      ob       1    MUSC   O00MJ       1     -1.05    15.999
    2166      ob       1    MUSC   O00MK       1     -1.05    15.999
    2167      ob       1    MUSC   O00ML       1     -1.05    15.999
    2168      ob       1    MUSC   O00MM       1     -1.05    15.999
    2169      ob       1    MUSC   O00MN       1     -1.05    15.999
    2170      ob       1    MUSC   O00MO       1     -1.05    15.999
    2171      ob       1    MUSC   O00MP       1     -1.05    15.999
    2172      ob       1    MUSC   O00MQ       1     -1.05    15.999
    2173      ob       1    MUSC   O00MR       1     -1.05    15.999
    2174      ob       1    MUSC   O00MS       1     -1.05    15.999
    2175       K       1    MUSC   K001P       1       1.0    39.098
    2176       K       1    MUSC   K001Q       1       1.0    39.098
    2177       K       1    MUSC   K001R       1       1.0    39.098
    2178       K       1    MUSC   K001S       1       1.0    39.098
    2179      ao       1    MUSC   Al03l       1     1.575    26.982
    2180      ao       1    MUSC   Al03m       1     1.575    26.982
    2181      ao       1    MUSC   Al03n       1     1.575    26.982
    2182      ao       1    MUSC   Al03o       1     1.575    26.982
    2183      ao       1    MUSC   Al03p       1     1.575    26.982
    2184      ao       1    MUSC   Al03q       1     1.575    26.982
    2185      ao       1    MUSC   Al03r       1     1.575    26.982
    2186      ao       1    MUSC   Al03s       1     1.575    26.982
    2187      st       1    MUSC   Si07V       1       2.1    28.086
    2188      st       1    MUSC   Si07W       1       2.1    28.086
    2189      st       1    MUSC   Si07X       1       2.1    28.086
    2190      st       1    MUSC   Si07Y       1       2.1    28.086
    2191      st       1    MUSC   Si07Z       1       2.1    28.086
    2192      st       1    MUSC   Si07a       1       2.1    28.086
    2193      st       1    MUSC   Si07b       1       2.1    28.086
    2194      st       1    MUSC   Si07c       1       2.1    28.086
    2195      st       1    MUSC   Si07d       1       2.1    28.086
    2196      st       1    MUSC   Si07e       1       2.1    28.086
    2197      st       1    MUSC   Si07f       1       2.1    28.086
    2198      st       1    MUSC   Si07g       1       2.1    28.086
    2199      st       1    MUSC   Si07h       1       2.1    28.086
    2200      st       1    MUSC   Si07i       1       2.1    28.086
    2201      st       1    MUSC   Si07j       1       2.1    28.086
    2202      st       1    MUSC   Si07k       1       2.1    28.086
    2203      ob       1    MUSC   O00MT       1     -1.05    15.999
    2204      ob       1    MUSC   O00MU       1     -1.05    15.999
    2205      ob       1    MUSC   O00MV       1     -1.05    15.999
    2206      ob       1    MUSC   O00MW       1     -1.05    15.999
    2207      oh       1    MUSC   O00MX       1     -0.95    15.999
    2208      oh       1    MUSC   O00MY       1     -0.95    15.999
    2209      oh       1    MUSC   O00MZ       1     -0.95    15.999
    2210      oh       1    MUSC   O00Ma       1     -0.95    15.999
    2211      ob       1    MUSC   O00Mb       1     -1.05    15.999
    2212      ob       1    MUSC   O00Mc       1     -1.05    15.999
    2213      ob       1    MUSC   O00Md       1     -1.05    15.999
    2214      ob       1    MUSC   O00Me       1     -1.05    15.999
    2215      ob       1    MUSC   O00Mf       1     -1.05    15.999
    2216      ob       1    MUSC   O00Mg       1     -1.05    15.999
    2217      ob       1    MUSC   O00Mh       1     -1.05    15.999
    2218      ob       1    MUSC   O00Mi       1     -1.05    15.999
    2219      ob       1    MUSC   O00Mj       1     -1.05    15.999
    2220      ob       1    MUSC   O00Mk       1     -1.05    15.999
    2221      ob       1    MUSC   O00Ml       1     -1.05    15.999
    2222      ob       1    MUSC   O00Mm       1     -1.05    15.999
    2223      ob       1    MUSC   O00Mn       1     -1.05    15.999
    2224      ob       1    MUSC   O00Mo       1     -1.05    15.999
    2225      ob       1    MUSC   O00Mp       1     -1.05    15.999
    2226      ob       1    MUSC   O00Mq       1     -1.05    15.999
    2227      ob       1    MUSC   O00Mr       1     -1.05    15.999
    2228      ob       1    MUSC   O00Ms       1     -1.05    15.999
    2229      ob       1    MUSC   O00Mt       1     -1.05    15.999
    2230      ob       1    MUSC   O00Mu       1     -1.05    15.999
    2231      oh       1    MUSC   O00Mv       1     -0.95    15.999
    2232      oh       1    MUSC   O00Mw       1     -0.95    15.999
    2233      oh       1    MUSC   O00Mx       1     -0.95    15.999
    2234      oh       1    MUSC   O00My       1     -0.95    15.999
    2235      ob       1    MUSC   O00Mz       1     -1.05    15.999
    2236      ob       1    MUSC   O00N0       1     -1.05    15.999
    2237      ob       1    MUSC   O00N1       1     -1.05    15.999
    2238      ob       1    MUSC   O00N2       1     -1.05    15.999
    2239      ob       1    MUSC   O00N3       1     -1.05    15.999
    2240      ob       1    MUSC   O00N4       1     -1.05    15.999
    2241      ob       1    MUSC   O00N5       1     -1.05    15.999
    2242      ob       1    MUSC   O00N6       1     -1.05    15.999
    2243      ob       1    MUSC   O00N7       1     -1.05    15.999
    2244      ob       1    MUSC   O00N8       1     -1.05    15.999
    2245      ob       1    MUSC   O00N9       1     -1.05    15.999
    2246      ob       1    MUSC   O00NA       1     -1.05    15.999
    2247      ob       1    MUSC   O00NB       1     -1.05    15.999
    2248      ob       1    MUSC   O00NC       1     -1.05    15.999
    2249      ob       1    MUSC   O00ND       1     -1.05    15.999
    2250      ob       1    MUSC   O00NE       1     -1.05    15.999
    2251       K       1    MUSC   K001T       1       1.0    39.098
    2252       K       1    MUSC   K001U       1       1.0    39.098
    2253      ao       1    MUSC   Al03t       1     1.575    26.982
    2254      ao       1    MUSC   Al03u       1     1.575    26.982
    2255      ao       1    MUSC   Al03v       1     1.575    26.982
    2256      ao       1    MUSC   Al03w       1     1.575    26.982
    2257      ao       1    MUSC   Al03x       1     1.575    26.982
    2258      ao       1    MUSC   Al03y       1     1.575    26.982
    2259      ao       1    MUSC   Al03z       1     1.575    26.982
    2260      ao       1    MUSC   Al040       1     1.575    26.982
    2261      st       1    MUSC   Si07l       1       2.1    28.086
    2262      st       1    MUSC   Si07m       1       2.1    28.086
    2263      st       1    MUSC   Si07n       1       2.1    28.086
    2264      st       1    MUSC   Si07o       1       2.1    28.086
    2265      st       1    MUSC   Si07p       1       2.1    28.086
    2266      st       1    MUSC   Si07q       1       2.1    28.086
    2267      st       1    MUSC   Si07r       1       2.1    28.086
    2268      st       1    MUSC   Si07s       1       2.1    28.086
    2269      st       1    MUSC   Si07t       1       2.1    28.086
    2270      st       1    MUSC   Si07u       1       2.1    28.086
    2271      st       1    MUSC   Si07v       1       2.1    28.086
    2272      st       1    MUSC   Si07w       1       2.1    28.086
    2273      st       1    MUSC   Si07x       1       2.1    28.086
    2274      st       1    MUSC   Si07y       1       2.1    28.086
    2275      st       1    MUSC   Si07z       1       2.1    28.086
    2276      st       1    MUSC   Si080       1       2.1    28.086
    2277      ob       1    MUSC   O00NF       1     -1.05    15.999
    2278      ob       1    MUSC   O00NG       1     -1.05    15.999
    2279      ob       1    MUSC   O00NH       1     -1.05    15.999
    2280      ob       1    MUSC   O00NI       1     -1.05    15.999
    2281      oh       1    MUSC   O00NJ       1     -0.95    15.999
    2282      oh       1    MUSC   O00NK       1     -0.95    15.999
    2283      oh       1    MUSC   O00NL       1     -0.95    15.999
    2284      oh       1    MUSC   O00NM       1     -0.95    15.999
    2285      ob       1    MUSC   O00NN       1     -1.05    15.999
    2286      ob       1    MUSC   O00NO       1     -1.05    15.999
    2287      ob       1    MUSC   O00NP       1     -1.05    15.999
    2288      ob       1    MUSC   O00NQ       1     -1.05    15.999
    2289      ob       1    MUSC   O00NR       1     -1.05    15.999
    2290      ob       1    MUSC   O00NS       1     -1.05    15.999
    2291      ob       1    MUSC   O00NT       1     -1.05    15.999
    2292      ob       1    MUSC   O00NU       1     -1.05    15.999
    2293      ob       1    MUSC   O00NV       1     -1.05    15.999
    2294      ob       1    MUSC   O00NW       1     -1.05    15.999
    2295      ob       1    MUSC   O00NX       1     -1.05    15.999
    2296      ob       1    MUSC   O00NY       1     -1.05    15.999
    2297      ob       1    MUSC   O00NZ       1     -1.05    15.999
    2298      ob       1    MUSC   O00Na       1     -1.05    15.999
    2299      ob       1    MUSC   O00Nb       1     -1.05    15.999
    2300      ob       1    MUSC   O00Nc       1     -1.05    15.999
    2301      ob       1    MUSC   O00Nd       1     -1.05    15.999
    2302      ob       1    MUSC   O00Ne       1     -1.05    15.999
    2303      ob       1    MUSC   O00Nf       1     -1.05    15.999
    2304      ob       1    MUSC   O00Ng       1     -1.05    15.999
    2305      oh       1    MUSC   O00Nh       1     -0.95    15.999
    2306      oh       1    MUSC   O00Ni       1     -0.95    15.999
    2307      oh       1    MUSC   O00Nj       1     -0.95    15.999
    2308      oh       1    MUSC   O00Nk       1     -0.95    15.999
    2309      ob       1    MUSC   O00Nl       1     -1.05    15.999
    2310      ob       1    MUSC   O00Nm       1     -1.05    15.999
    2311      ob       1    MUSC   O00Nn       1     -1.05    15.999
    2312      ob       1    MUSC   O00No       1     -1.05    15.999
    2313      ob       1    MUSC   O00Np       1     -1.05    15.999
    2314      ob       1    MUSC   O00Nq       1     -1.05    15.999
    2315      ob       1    MUSC   O00Nr       1     -1.05    15.999
    2316      ob       1    MUSC   O00Ns       1     -1.05    15.999
    2317      ob       1    MUSC   O00Nt       1     -1.05    15.999
    2318      ob       1    MUSC   O00Nu       1     -1.05    15.999
    2319      ob       1    MUSC   O00Nv       1     -1.05    15.999
    2320      ob       1    MUSC   O00Nw       1     -1.05    15.999
    2321      ob       1    MUSC   O00Nx       1     -1.05    15.999
    2322      ob       1    MUSC   O00Ny       1     -1.05    15.999
    2323      ob       1    MUSC   O00Nz       1     -1.05    15.999
    2324      ob       1    MUSC   O00O0       1     -1.05    15.999
    2325       K       1    MUSC   K001V       1       1.0    39.098
    2326       K       1    MUSC   K001W       1       1.0    39.098
    2327       K       1    MUSC   K001X       1       1.0    39.098
    2328       K       1    MUSC   K001Y       1       1.0    39.098
    2329      ao       1    MUSC   Al041       1     1.575    26.982
    2330      ao       1    MUSC   Al042       1     1.575    26.982
    2331      ao       1    MUSC   Al043       1     1.575    26.982
    2332      ao       1    MUSC   Al044       1     1.575    26.982
    2333      ao       1    MUSC   Al045       1     1.575    26.982
    2334      ao       1    MUSC   Al046       1     1.575    26.982
    2335      ao       1    MUSC   Al047       1     1.575    26.982
    2336      ao       1    MUSC   Al048       1     1.575    26.982
    2337      st       1    MUSC   Si081       1       2.1    28.086
    2338      st       1    MUSC   Si082       1       2.1    28.086
    2339      st       1    MUSC   Si083       1       2.1    28.086
    2340      st       1    MUSC   Si084       1       2.1    28.086
    2341      st       1    MUSC   Si085       1       2.1    28.086
    2342      st       1    MUSC   Si086       1       2.1    28.086
    2343      st       1    MUSC   Si087       1       2.1    28.086
    2344      st       1    MUSC   Si088       1       2.1    28.086
    2345      st       1    MUSC   Si089       1       2.1    28.086
    2346      st       1    MUSC   Si08A       1       2.1    28.086
    2347      st       1    MUSC   Si08B       1       2.1    28.086
    2348      st       1    MUSC   Si08C       1       2.1    28.086
    2349      st       1    MUSC   Si08D       1       2.1    28.086
    2350      st       1    MUSC   Si08E       1       2.1    28.086
    2351      st       1    MUSC   Si08F       1       2.1    28.086
    2352      st       1    MUSC   Si08G       1       2.1    28.086
    2353      ob       1    MUSC   O00O1       1     -1.05    15.999
    2354      ob       1    MUSC   O00O2       1     -1.05    15.999
    2355      ob       1    MUSC   O00O3       1     -1.05    15.999
    2356      ob       1    MUSC   O00O4       1     -1.05    15.999
    2357      oh       1    MUSC   O00O5       1     -0.95    15.999
    2358      oh       1    MUSC   O00O6       1     -0.95    15.999
    2359      oh       1    MUSC   O00O7       1     -0.95    15.999
    2360      oh       1    MUSC   O00O8       1     -0.95    15.999
    2361      ob       1    MUSC   O00O9       1     -1.05    15.999
    2362      ob       1    MUSC   O00OA       1     -1.05    15.999
    2363      ob       1    MUSC   O00OB       1     -1.05    15.999
    2364      ob       1    MUSC   O00OC       1     -1.05    15.999
    2365      ob       1    MUSC   O00OD       1     -1.05    15.999
    2366      ob       1    MUSC   O00OE       1     -1.05    15.999
    2367      ob       1    MUSC   O00OF       1     -1.05    15.999
    2368      ob       1    MUSC   O00OG       1     -1.05    15.999
    2369      ob       1    MUSC   O00OH       1     -1.05    15.999
    2370      ob       1    MUSC   O00OI       1     -1.05    15.999
    2371      ob       1    MUSC   O00OJ       1     -1.05    15.999
    2372      ob       1    MUSC   O00OK       1     -1.05    15.999
    2373      ob       1    MUSC   O00OL       1     -1.05    15.999
    2374      ob       1    MUSC   O00OM       1     -1.05    15.999
    2375      ob       1    MUSC   O00ON       1     -1.05    15.999
    2376      ob       1    MUSC   O00OO       1     -1.05    15.999
    2377      ob       1    MUSC   O00OP       1     -1.05    15.999
    2378      ob       1    MUSC   O00OQ       1     -1.05    15.999
    2379      ob       1    MUSC   O00OR       1     -1.05    15.999
    2380      ob       1    MUSC   O00OS       1     -1.05    15.999
    2381      oh       1    MUSC   O00OT       1     -0.95    15.999
    2382      oh       1    MUSC   O00OU       1     -0.95    15.999
    2383      oh       1    MUSC   O00OV       1     -0.95    15.999
    2384      oh       1    MUSC   O00OW       1     -0.95    15.999
    2385      ob       1    MUSC   O00OX       1     -1.05    15.999
    2386      ob       1    MUSC   O00OY       1     -1.05    15.999
    2387      ob       1    MUSC   O00OZ       1     -1.05    15.999
    2388      ob       1    MUSC   O00Oa       1     -1.05    15.999
    2389      ob       1    MUSC   O00Ob       1     -1.05    15.999
    2390      ob       1    MUSC   O00Oc       1     -1.05    15.999
    2391      ob       1    MUSC   O00Od       1     -1.05    15.999
    2392      ob       1    MUSC   O00Oe       1     -1.05    15.999
    2393      ob       1    MUSC   O00Of       1     -1.05    15.999
    2394      ob       1    MUSC   O00Og       1     -1.05    15.999
    2395      ob       1    MUSC   O00Oh       1     -1.05    15.999
    2396      ob       1    MUSC   O00Oi       1     -1.05    15.999
    2397      ob       1    MUSC   O00Oj       1     -1.05    15.999
    2398      ob       1    MUSC   O00Ok       1     -1.05    15.999
    2399      ob       1    MUSC   O00Ol       1     -1.05    15.999
    2400      ob       1    MUSC   O00Om       1     -1.05    15.999
    2401       K       1    MUSC   K001Z       1       1.0    39.098
    2402       K       1    MUSC   K001a       1       1.0    39.098
    2403      ao       1    MUSC   Al049       1     1.575    26.982
    2404      ao       1    MUSC   Al04A       1     1.575    26.982
    2405      ao       1    MUSC   Al04B       1     1.575    26.982
    2406      ao       1    MUSC   Al04C       1     1.575    26.982
    2407      ao       1    MUSC   Al04D       1     1.575    26.982
    2408      ao       1    MUSC   Al04E       1     1.575    26.982
    2409      ao       1    MUSC   Al04F       1     1.575    26.982
    2410      ao       1    MUSC   Al04G       1     1.575    26.982
    2411      st       1    MUSC   Si08H       1       2.1    28.086
    2412      st       1    MUSC   Si08I       1       2.1    28.086
    2413      st       1    MUSC   Si08J       1       2.1    28.086
    2414      st       1    MUSC   Si08K       1       2.1    28.086
    2415      st       1    MUSC   Si08L       1       2.1    28.086
    2416      st       1    MUSC   Si08M       1       2.1    28.086
    2417      st       1    MUSC   Si08N       1       2.1    28.086
    2418      st       1    MUSC   Si08O       1       2.1    28.086
    2419      st       1    MUSC   Si08P       1       2.1    28.086
    2420      st       1    MUSC   Si08Q       1       2.1    28.086
    2421      st       1    MUSC   Si08R       1       2.1    28.086
    2422      st       1    MUSC   Si08S       1       2.1    28.086
    2423      st       1    MUSC   Si08T       1       2.1    28.086
    2424      st       1    MUSC   Si08U       1       2.1    28.086
    2425      st       1    MUSC   Si08V       1       2.1    28.086
    2426      st       1    MUSC   Si08W       1       2.1    28.086
    2427      ob       1    MUSC   O00On       1     -1.05    15.999
    2428      ob       1    MUSC   O00Oo       1     -1.05    15.999
    2429      ob       1    MUSC   O00Op       1     -1.05    15.999
    2430      ob       1    MUSC   O00Oq       1     -1.05    15.999
    2431      oh       1    MUSC   O00Or       1     -0.95    15.999
    2432      oh       1    MUSC   O00Os       1     -0.95    15.999
    2433      oh       1    MUSC   O00Ot       1     -0.95    15.999
    2434      oh       1    MUSC   O00Ou       1     -0.95    15.999
    2435      ob       1    MUSC   O00Ov       1     -1.05    15.999
    2436      ob       1    MUSC   O00Ow       1     -1.05    15.999
    2437      ob       1    MUSC   O00Ox       1     -1.05    15.999
    2438      ob       1    MUSC   O00Oy       1     -1.05    15.999
    2439      ob       1    MUSC   O00Oz       1     -1.05    15.999
    2440      ob       1    MUSC   O00P0       1     -1.05    15.999
    2441      ob       1    MUSC   O00P1       1     -1.05    15.999
    2442      ob       1    MUSC   O00P2       1     -1.05    15.999
    2443      ob       1    MUSC   O00P3       1     -1.05    15.999
    2444      ob       1    MUSC   O00P4       1     -1.05    15.999
    2445      ob       1    MUSC   O00P5       1     -1.05    15.999
    2446      ob       1    MUSC   O00P6       1     -1.05    15.999
    2447      ob       1    MUSC   O00P7       1     -1.05    15.999
    2448      ob       1    MUSC   O00P8       1     -1.05    15.999
    2449      ob       1    MUSC   O00P9       1     -1.05    15.999
    2450      ob       1    MUSC   O00PA       1     -1.05    15.999
    2451      ob       1    MUSC   O00PB       1     -1.05    15.999
    2452      ob       1    MUSC   O00PC       1     -1.05    15.999
    2453      ob       1    MUSC   O00PD       1     -1.05    15.999
    2454      ob       1    MUSC   O00PE       1     -1.05    15.999
    2455      oh       1    MUSC   O00PF       1     -0.95    15.999
    2456      oh       1    MUSC   O00PG       1     -0.95    15.999
    2457      oh       1    MUSC   O00PH       1     -0.95    15.999
    2458      oh       1    MUSC   O00PI       1     -0.95    15.999
    2459      ob       1    MUSC   O00PJ       1     -1.05    15.999
    2460      ob       1    MUSC   O00PK       1     -1.05    15.999
    2461      ob       1    MUSC   O00PL       1     -1.05    15.999
    2462      ob       1    MUSC   O00PM       1     -1.05    15.999
    2463      ob       1    MUSC   O00PN       1     -1.05    15.999
    2464      ob       1    MUSC   O00PO       1     -1.05    15.999
    2465      ob       1    MUSC   O00PP       1     -1.05    15.999
    2466      ob       1    MUSC   O00PQ       1     -1.05    15.999
    2467      ob       1    MUSC   O00PR       1     -1.05    15.999
    2468      ob       1    MUSC   O00PS       1     -1.05    15.999
    2469      ob       1    MUSC   O00PT       1     -1.05    15.999
    2470      ob       1    MUSC   O00PU       1     -1.05    15.999
    2471      ob       1    MUSC   O00PV       1     -1.05    15.999
    2472      ob       1    MUSC   O00PW       1     -1.05    15.999
    2473      ob       1    MUSC   O00PX       1     -1.05    15.999
    2474      ob       1    MUSC   O00PY       1     -1.05    15.999
    2475       K       1    MUSC   K001b       1       1.0    39.098
    2476       K       1    MUSC   K001c       1       1.0    39.098
    2477       K       1    MUSC   K001d       1       1.0    39.098
    2478       K       1    MUSC   K001e       1       1.0    39.098
    2479      ao       1    MUSC   Al04H       1     1.575    26.982
    2480      ao       1    MUSC   Al04I       1     1.575    26.982
    2481      ao       1    MUSC   Al04J       1     1.575    26.982
    2482      ao       1    MUSC   Al04K       1     1.575    26.982
    2483      ao       1    MUSC   Al04L       1     1.575    26.982
    2484      ao       1    MUSC   Al04M       1     1.575    26.982
    2485      ao       1    MUSC   Al04N       1     1.575    26.982
    2486      ao       1    MUSC   Al04O       1     1.575    26.982
    2487      st       1    MUSC   Si08X       1       2.1    28.086
    2488      st       1    MUSC   Si08Y       1       2.1    28.086
    2489      st       1    MUSC   Si08Z       1       2.1    28.086
    2490      st       1    MUSC   Si08a       1       2.1    28.086
    2491      st       1    MUSC   Si08b       1       2.1    28.086
    2492      st       1    MUSC   Si08c       1       2.1    28.086
    2493      st       1    MUSC   Si08d       1       2.1    28.086
    2494      st       1    MUSC   Si08e       1       2.1    28.086
    2495      st       1    MUSC   Si08f       1       2.1    28.086
    2496      st       1    MUSC   Si08g       1       2.1    28.086
    2497      st       1    MUSC   Si08h       1       2.1    28.086
    2498      st       1    MUSC   Si08i       1       2.1    28.086
    2499      st       1    MUSC   Si08j       1       2.1    28.086
    2500      st       1    MUSC   Si08k       1       2.1    28.086
    2501      st       1    MUSC   Si08l       1       2.1    28.086
    2502      st       1    MUSC   Si08m       1       2.1    28.086
    2503      ob       1    MUSC   O00PZ       1     -1.05    15.999
    2504      ob       1    MUSC   O00Pa       1     -1.05    15.999
    2505      ob       1    MUSC   O00Pb       1     -1.05    15.999
    2506      ob       1    MUSC   O00Pc       1     -1.05    15.999
    2507      oh       1    MUSC   O00Pd       1     -0.95    15.999
    2508      oh       1    MUSC   O00Pe       1     -0.95    15.999
    2509      oh       1    MUSC   O00Pf       1     -0.95    15.999
    2510      oh       1    MUSC   O00Pg       1     -0.95    15.999
    2511      ob       1    MUSC   O00Ph       1     -1.05    15.999
    2512      ob       1    MUSC   O00Pi       1     -1.05    15.999
    2513      ob       1    MUSC   O00Pj       1     -1.05    15.999
    2514      ob       1    MUSC   O00Pk       1     -1.05    15.999
    2515      ob       1    MUSC   O00Pl       1     -1.05    15.999
    2516      ob       1    MUSC   O00Pm       1     -1.05    15.999
    2517      ob       1    MUSC   O00Pn       1     -1.05    15.999
    2518      ob       1    MUSC   O00Po       1     -1.05    15.999
    2519      ob       1    MUSC   O00Pp       1     -1.05    15.999
    2520      ob       1    MUSC   O00Pq       1     -1.05    15.999
    2521      ob       1    MUSC   O00Pr       1     -1.05    15.999
    2522      ob       1    MUSC   O00Ps       1     -1.05    15.999
    2523      ob       1    MUSC   O00Pt       1     -1.05    15.999
    2524      ob       1    MUSC   O00Pu       1     -1.05    15.999
    2525      ob       1    MUSC   O00Pv       1     -1.05    15.999
    2526      ob       1    MUSC   O00Pw       1     -1.05    15.999
    2527      ob       1    MUSC   O00Px       1     -1.05    15.999
    2528      ob       1    MUSC   O00Py       1     -1.05    15.999
    2529      ob       1    MUSC   O00Pz       1     -1.05    15.999
    2530      ob       1    MUSC   O00Q0       1     -1.05    15.999
    2531      oh       1    MUSC   O00Q1       1     -0.95    15.999
    2532      oh       1    MUSC   O00Q2       1     -0.95    15.999
    2533      oh       1    MUSC   O00Q3       1     -0.95    15.999
    2534      oh       1    MUSC   O00Q4       1     -0.95    15.999
    2535      ob       1    MUSC   O00Q5       1     -1.05    15.999
    2536      ob       1    MUSC   O00Q6       1     -1.05    15.999
    2537      ob       1    MUSC   O00Q7       1     -1.05    15.999
    2538      ob       1    MUSC   O00Q8       1     -1.05    15.999
    2539      ob       1    MUSC   O00Q9       1     -1.05    15.999
    2540      ob       1    MUSC   O00QA       1     -1.05    15.999
    2541      ob       1    MUSC   O00QB       1     -1.05    15.999
    2542      ob       1    MUSC   O00QC       1     -1.05    15.999
    2543      ob       1    MUSC   O00QD       1     -1.05    15.999
    2544      ob       1    MUSC   O00QE       1     -1.05    15.999
    2545      ob       1    MUSC   O00QF       1     -1.05    15.999
    2546      ob       1    MUSC   O00QG       1     -1.05    15.999
    2547      ob       1    MUSC   O00QH       1     -1.05    15.999
    2548      ob       1    MUSC   O00QI       1     -1.05    15.999
    2549      ob       1    MUSC   O00QJ       1     -1.05    15.999
    2550      ob       1    MUSC   O00QK       1     -1.05    15.999
    2551       K       1    MUSC   K001f       1       1.0    39.098
    2552       K       1    MUSC   K001g       1       1.0    39.098
    2553      ao       1    MUSC   Al04P       1     1.575    26.982
    2554      ao       1    MUSC   Al04Q       1     1.575    26.982
    2555      ao       1    MUSC   Al04R       1     1.575    26.982
    2556      ao       1    MUSC   Al04S       1     1.575    26.982
    2557      ao       1    MUSC   Al04T       1     1.575    26.982
    2558      ao       1    MUSC   Al04U       1     1.575    26.982
    2559      ao       1    MUSC   Al04V       1     1.575    26.982
    2560      ao       1    MUSC   Al04W       1     1.575    26.982
    2561      st       1    MUSC   Si08n       1       2.1    28.086
    2562      st       1    MUSC   Si08o       1       2.1    28.086
    2563      st       1    MUSC   Si08p       1       2.1    28.086
    2564      st       1    MUSC   Si08q       1       2.1    28.086
    2565      st       1    MUSC   Si08r       1       2.1    28.086
    2566      st       1    MUSC   Si08s       1       2.1    28.086
    2567      st       1    MUSC   Si08t       1       2.1    28.086
    2568      st       1    MUSC   Si08u       1       2.1    28.086
    2569      st       1    MUSC   Si08v       1       2.1    28.086
    2570      st       1    MUSC   Si08w       1       2.1    28.086
    2571      st       1    MUSC   Si08x       1       2.1    28.086
    2572      st       1    MUSC   Si08y       1       2.1    28.086
    2573      st       1    MUSC   Si08z       1       2.1    28.086
    2574      st       1    MUSC   Si090       1       2.1    28.086
    2575      st       1    MUSC   Si091       1       2.1    28.086
    2576      st       1    MUSC   Si092       1       2.1    28.086
    2577      ob       1    MUSC   O00QL       1     -1.05    15.999
    2578      ob       1    MUSC   O00QM       1     -1.05    15.999
    2579      ob       1    MUSC   O00QN       1     -1.05    15.999
    2580      ob       1    MUSC   O00QO       1     -1.05    15.999
    2581      oh       1    MUSC   O00QP       1     -0.95    15.999
    2582      oh       1    MUSC   O00QQ       1     -0.95    15.999
    2583      oh       1    MUSC   O00QR       1     -0.95    15.999
    2584      oh       1    MUSC   O00QS       1     -0.95    15.999
    2585      ob       1    MUSC   O00QT       1     -1.05    15.999
    2586      ob       1    MUSC   O00QU       1     -1.05    15.999
    2587      ob       1    MUSC   O00QV       1     -1.05    15.999
    2588      ob       1    MUSC   O00QW       1     -1.05    15.999
    2589      ob       1    MUSC   O00QX       1     -1.05    15.999
    2590      ob       1    MUSC   O00QY       1     -1.05    15.999
    2591      ob       1    MUSC   O00QZ       1     -1.05    15.999
    2592      ob       1    MUSC   O00Qa       1     -1.05    15.999
    2593      ob       1    MUSC   O00Qb       1     -1.05    15.999
    2594      ob       1    MUSC   O00Qc       1     -1.05    15.999
    2595      ob       1    MUSC   O00Qd       1     -1.05    15.999
    2596      ob       1    MUSC   O00Qe       1     -1.05    15.999
    2597      ob       1    MUSC   O00Qf       1     -1.05    15.999
    2598      ob       1    MUSC   O00Qg       1     -1.05    15.999
    2599      ob       1    MUSC   O00Qh       1     -1.05    15.999
    2600      ob       1    MUSC   O00Qi       1     -1.05    15.999
    2601      ob       1    MUSC   O00Qj       1     -1.05    15.999
    2602      ob       1    MUSC   O00Qk       1     -1.05    15.999
    2603      ob       1    MUSC   O00Ql       1     -1.05    15.999
    2604      ob       1    MUSC   O00Qm       1     -1.05    15.999
    2605      oh       1    MUSC   O00Qn       1     -0.95    15.999
    2606      oh       1    MUSC   O00Qo       1     -0.95    15.999
    2607      oh       1    MUSC   O00Qp       1     -0.95    15.999
    2608      oh       1    MUSC   O00Qq       1     -0.95    15.999
    2609      ob       1    MUSC   O00Qr       1     -1.05    15.999
    2610      ob       1    MUSC   O00Qs       1     -1.05    15.999
    2611      ob       1    MUSC   O00Qt       1     -1.05    15.999
    2612      ob       1    MUSC   O00Qu       1     -1.05    15.999
    2613      ob       1    MUSC   O00Qv       1     -1.05    15.999
    2614      ob       1    MUSC   O00Qw       1     -1.05    15.999
    2615      ob       1    MUSC   O00Qx       1     -1.05    15.999
    2616      ob       1    MUSC   O00Qy       1     -1.05    15.999
    2617      ob       1    MUSC   O00Qz       1     -1.05    15.999
    2618      ob       1    MUSC   O00R0       1     -1.05    15.999
    2619      ob       1    MUSC   O00R1       1     -1.05    15.999
    2620      ob       1    MUSC   O00R2       1     -1.05    15.999
    2621      ob       1    MUSC   O00R3       1     -1.05    15.999
    2622      ob       1    MUSC   O00R4       1     -1.05    15.999
    2623      ob       1    MUSC   O00R5       1     -1.05    15.999
    2624      ob       1    MUSC   O00R6       1     -1.05    15.999
    2625       K       1    MUSC   K001h       1       1.0    39.098
    2626       K       1    MUSC   K001i       1       1.0    39.098
    2627       K       1    MUSC   K001j       1       1.0    39.098
    2628       K       1    MUSC   K001k       1       1.0    39.098
    2629      ao       1    MUSC   Al04X       1     1.575    26.982
    2630      ao       1    MUSC   Al04Y       1     1.575    26.982
    2631      ao       1    MUSC   Al04Z       1     1.575    26.982
    2632      ao       1    MUSC   Al04a       1     1.575    26.982
    2633      ao       1    MUSC   Al04b       1     1.575    26.982
    2634      ao       1    MUSC   Al04c       1     1.575    26.982
    2635      ao       1    MUSC   Al04d       1     1.575    26.982
    2636      ao       1    MUSC   Al04e       1     1.575    26.982
    2637      st       1    MUSC   Si093       1       2.1    28.086
    2638      st       1    MUSC   Si094       1       2.1    28.086
    2639      st       1    MUSC   Si095       1       2.1    28.086
    2640      st       1    MUSC   Si096       1       2.1    28.086
    2641      st       1    MUSC   Si097       1       2.1    28.086
    2642      st       1    MUSC   Si098       1       2.1    28.086
    2643      st       1    MUSC   Si099       1       2.1    28.086
    2644      st       1    MUSC   Si09A       1       2.1    28.086
    2645      st       1    MUSC   Si09B       1       2.1    28.086
    2646      st       1    MUSC   Si09C       1       2.1    28.086
    2647      st       1    MUSC   Si09D       1       2.1    28.086
    2648      st       1    MUSC   Si09E       1       2.1    28.086
    2649      st       1    MUSC   Si09F       1       2.1    28.086
    2650      st       1    MUSC   Si09G       1       2.1    28.086
    2651      st       1    MUSC   Si09H       1       2.1    28.086
    2652      st       1    MUSC   Si09I       1       2.1    28.086
    2653      ob       1    MUSC   O00R7       1     -1.05    15.999
    2654      ob       1    MUSC   O00R8       1     -1.05    15.999
    2655      ob       1    MUSC   O00R9       1     -1.05    15.999
    2656      ob       1    MUSC   O00RA       1     -1.05    15.999
    2657      oh       1    MUSC   O00RB       1     -0.95    15.999
    2658      oh       1    MUSC   O00RC       1     -0.95    15.999
    2659      oh       1    MUSC   O00RD       1     -0.95    15.999
    2660      oh       1    MUSC   O00RE       1     -0.95    15.999
    2661      ob       1    MUSC   O00RF       1     -1.05    15.999
    2662      ob       1    MUSC   O00RG       1     -1.05    15.999
    2663      ob       1    MUSC   O00RH       1     -1.05    15.999
    2664      ob       1    MUSC   O00RI       1     -1.05    15.999
    2665      ob       1    MUSC   O00RJ       1     -1.05    15.999
    2666      ob       1    MUSC   O00RK       1     -1.05    15.999
    2667      ob       1    MUSC   O00RL       1     -1.05    15.999
    2668      ob       1    MUSC   O00RM       1     -1.05    15.999
    2669      ob       1    MUSC   O00RN       1     -1.05    15.999
    2670      ob       1    MUSC   O00RO       1     -1.05    15.999
    2671      ob       1    MUSC   O00RP       1     -1.05    15.999
    2672      ob       1    MUSC   O00RQ       1     -1.05    15.999
    2673      ob       1    MUSC   O00RR       1     -1.05    15.999
    2674      ob       1    MUSC   O00RS       1     -1.05    15.999
    2675      ob       1    MUSC   O00RT       1     -1.05    15.999
    2676      ob       1    MUSC   O00RU       1     -1.05    15.999
    2677      ob       1    MUSC   O00RV       1     -1.05    15.999
    2678      ob       1    MUSC   O00RW       1     -1.05    15.999
    2679      ob       1    MUSC   O00RX       1     -1.05    15.999
    2680      ob       1    MUSC   O00RY       1     -1.05    15.999
    2681      oh       1    MUSC   O00RZ       1     -0.95    15.999
    2682      oh       1    MUSC   O00Ra       1     -0.95    15.999
    2683      oh       1    MUSC   O00Rb       1     -0.95    15.999
    2684      oh       1    MUSC   O00Rc       1     -0.95    15.999
    2685      ob       1    MUSC   O00Rd       1     -1.05    15.999
    2686      ob       1    MUSC   O00Re       1     -1.05    15.999
    2687      ob       1    MUSC   O00Rf       1     -1.05    15.999
    2688      ob       1    MUSC   O00Rg       1     -1.05    15.999
    2689      ob       1    MUSC   O00Rh       1     -1.05    15.999
    2690      ob       1    MUSC   O00Ri       1     -1.05    15.999
    2691      ob       1    MUSC   O00Rj       1     -1.05    15.999
    2692      ob       1    MUSC   O00Rk       1     -1.05    15.999
    2693      ob       1    MUSC   O00Rl       1     -1.05    15.999
    2694      ob       1    MUSC   O00Rm       1     -1.05    15.999
    2695      ob       1    MUSC   O00Rn       1     -1.05    15.999
    2696      ob       1    MUSC   O00Ro       1     -1.05    15.999
    2697      ob       1    MUSC   O00Rp       1     -1.05    15.999
    2698      ob       1    MUSC   O00Rq       1     -1.05    15.999
    2699      ob       1    MUSC   O00Rr       1     -1.05    15.999
    2700      ob       1    MUSC   O00Rs       1     -1.05    15.999
    2701       K       1    MUSC   K001l       1       1.0    39.098
    2702       K       1    MUSC   K001m       1       1.0    39.098
    2703      ao       1    MUSC   Al04f       1     1.575    26.982
    2704      ao       1    MUSC   Al04g       1     1.575    26.982
    2705      ao       1    MUSC   Al04h       1     1.575    26.982
    2706      ao       1    MUSC   Al04i       1     1.575    26.982
    2707      ao       1    MUSC   Al04j       1     1.575    26.982
    2708      ao       1    MUSC   Al04k       1     1.575    26.982
    2709      ao       1    MUSC   Al04l       1     1.575    26.982
    2710      ao       1    MUSC   Al04m       1     1.575    26.982
    2711      st       1    MUSC   Si09J       1       2.1    28.086
    2712      st       1    MUSC   Si09K       1       2.1    28.086
    2713      st       1    MUSC   Si09L       1       2.1    28.086
    2714      st       1    MUSC   Si09M       1       2.1    28.086
    2715      st       1    MUSC   Si09N       1       2.1    28.086
    2716      st       1    MUSC   Si09O       1       2.1    28.086
    2717      st       1    MUSC   Si09P       1       2.1    28.086
    2718      st       1    MUSC   Si09Q       1       2.1    28.086
    2719      st       1    MUSC   Si09R       1       2.1    28.086
    2720      st       1    MUSC   Si09S       1       2.1    28.086
    2721      st       1    MUSC   Si09T       1       2.1    28.086
    2722      st       1    MUSC   Si09U       1       2.1    28.086
    2723      st       1    MUSC   Si09V       1       2.1    28.086
    2724      st       1    MUSC   Si09W       1       2.1    28.086
    2725      st       1    MUSC   Si09X       1       2.1    28.086
    2726      st       1    MUSC   Si09Y       1       2.1    28.086
    2727      ob       1    MUSC   O00Rt       1     -1.05    15.999
    2728      ob       1    MUSC   O00Ru       1     -1.05    15.999
    2729      ob       1    MUSC   O00Rv       1     -1.05    15.999
    2730      ob       1    MUSC   O00Rw       1     -1.05    15.999
    2731      oh       1    MUSC   O00Rx       1     -0.95    15.999
    2732      oh       1    MUSC   O00Ry       1     -0.95    15.999
    2733      oh       1    MUSC   O00Rz       1     -0.95    15.999
    2734      oh       1    MUSC   O00S0       1     -0.95    15.999
    2735      ob       1    MUSC   O00S1       1     -1.05    15.999
    2736      ob       1    MUSC   O00S2       1     -1.05    15.999
    2737      ob       1    MUSC   O00S3       1     -1.05    15.999
    2738      ob       1    MUSC   O00S4       1     -1.05    15.999
    2739      ob       1    MUSC   O00S5       1     -1.05    15.999
    2740      ob       1    MUSC   O00S6       1     -1.05    15.999
    2741      ob       1    MUSC   O00S7       1     -1.05    15.999
    2742      ob       1    MUSC   O00S8       1     -1.05    15.999
    2743      ob       1    MUSC   O00S9       1     -1.05    15.999
    2744      ob       1    MUSC   O00SA       1     -1.05    15.999
    2745      ob       1    MUSC   O00SB       1     -1.05    15.999
    2746      ob       1    MUSC   O00SC       1     -1.05    15.999
    2747      ob       1    MUSC   O00SD       1     -1.05    15.999
    2748      ob       1    MUSC   O00SE       1     -1.05    15.999
    2749      ob       1    MUSC   O00SF       1     -1.05    15.999
    2750      ob       1    MUSC   O00SG       1     -1.05    15.999
    2751      ob       1    MUSC   O00SH       1     -1.05    15.999
    2752      ob       1    MUSC   O00SI       1     -1.05    15.999
    2753      ob       1    MUSC   O00SJ       1     -1.05    15.999
    2754      ob       1    MUSC   O00SK       1     -1.05    15.999
    2755      oh       1    MUSC   O00SL       1     -0.95    15.999
    2756      oh       1    MUSC   O00SM       1     -0.95    15.999
    2757      oh       1    MUSC   O00SN       1     -0.95    15.999
    2758      oh       1    MUSC   O00SO       1     -0.95    15.999
    2759      ob       1    MUSC   O00SP       1     -1.05    15.999
    2760      ob       1    MUSC   O00SQ       1     -1.05    15.999
    2761      ob       1    MUSC   O00SR       1     -1.05    15.999
    2762      ob       1    MUSC   O00SS       1     -1.05    15.999
    2763      ob       1    MUSC   O00ST       1     -1.05    15.999
    2764      ob       1    MUSC   O00SU       1     -1.05    15.999
    2765      ob       1    MUSC   O00SV       1     -1.05    15.999
    2766      ob       1    MUSC   O00SW       1     -1.05    15.999
    2767      ob       1    MUSC   O00SX       1     -1.05    15.999
    2768      ob       1    MUSC   O00SY       1     -1.05    15.999
    2769      ob       1    MUSC   O00SZ       1     -1.05    15.999
    2770      ob       1    MUSC   O00Sa       1     -1.05    15.999
    2771      ob       1    MUSC   O00Sb       1     -1.05    15.999
    2772      ob       1    MUSC   O00Sc       1     -1.05    15.999
    2773      ob       1    MUSC   O00Sd       1     -1.05    15.999
    2774      ob       1    MUSC   O00Se       1     -1.05    15.999
    2775       K       1    MUSC   K001n       1       1.0    39.098
    2776       K       1    MUSC   K001o       1       1.0    39.098
    2777       K       1    MUSC   K001p       1       1.0    39.098
    2778       K       1    MUSC   K001q       1       1.0    39.098
    2779      ao       1    MUSC   Al04n       1     1.575    26.982
    2780      ao       1    MUSC   Al04o       1     1.575    26.982
    2781      ao       1    MUSC   Al04p       1     1.575    26.982
    2782      ao       1    MUSC   Al04q       1     1.575    26.982
    2783      ao       1    MUSC   Al04r       1     1.575    26.982
    2784      ao       1    MUSC   Al04s       1     1.575    26.982
    2785      ao       1    MUSC   Al04t       1     1.575    26.982
    2786      ao       1    MUSC   Al04u       1     1.575    26.982
    2787      st       1    MUSC   Si09Z       1       2.1    28.086
    2788      st       1    MUSC   Si09a       1       2.1    28.086
    2789      st       1    MUSC   Si09b       1       2.1    28.086
    2790      st       1    MUSC   Si09c       1       2.1    28.086
    2791      st       1    MUSC   Si09d       1       2.1    28.086
    2792      st       1    MUSC   Si09e       1       2.1    28.086
    2793      st       1    MUSC   Si09f       1       2.1    28.086
    2794      st       1    MUSC   Si09g       1       2.1    28.086
    2795      st       1    MUSC   Si09h       1       2.1    28.086
    2796      st       1    MUSC   Si09i       1       2.1    28.086
    2797      st       1    MUSC   Si09j       1       2.1    28.086
    2798      st       1    MUSC   Si09k       1       2.1    28.086
    2799      st       1    MUSC   Si09l       1       2.1    28.086
    2800      st       1    MUSC   Si09m       1       2.1    28.086
    2801      st       1    MUSC   Si09n       1       2.1    28.086
    2802      st       1    MUSC   Si09o       1       2.1    28.086
    2803      ob       1    MUSC   O00Sf       1     -1.05    15.999
    2804      ob       1    MUSC   O00Sg       1     -1.05    15.999
    2805      ob       1    MUSC   O00Sh       1     -1.05    15.999
    2806      ob       1    MUSC   O00Si       1     -1.05    15.999
    2807      oh       1    MUSC   O00Sj       1     -0.95    15.999
    2808      oh       1    MUSC   O00Sk       1     -0.95    15.999
    2809      oh       1    MUSC   O00Sl       1     -0.95    15.999
    2810      oh       1    MUSC   O00Sm       1     -0.95    15.999
    2811      ob       1    MUSC   O00Sn       1     -1.05    15.999
    2812      ob       1    MUSC   O00So       1     -1.05    15.999
    2813      ob       1    MUSC   O00Sp       1     -1.05    15.999
    2814      ob       1    MUSC   O00Sq       1     -1.05    15.999
    2815      ob       1    MUSC   O00Sr       1     -1.05    15.999
    2816      ob       1    MUSC   O00Ss       1     -1.05    15.999
    2817      ob       1    MUSC   O00St       1     -1.05    15.999
    2818      ob       1    MUSC   O00Su       1     -1.05    15.999
    2819      ob       1    MUSC   O00Sv       1     -1.05    15.999
    2820      ob       1    MUSC   O00Sw       1     -1.05    15.999
    2821      ob       1    MUSC   O00Sx       1     -1.05    15.999
    2822      ob       1    MUSC   O00Sy       1     -1.05    15.999
    2823      ob       1    MUSC   O00Sz       1     -1.05    15.999
    2824      ob       1    MUSC   O00T0       1     -1.05    15.999
    2825      ob       1    MUSC   O00T1       1     -1.05    15.999
    2826      ob       1    MUSC   O00T2       1     -1.05    15.999
    2827      ob       1    MUSC   O00T3       1     -1.05    15.999
    2828      ob       1    MUSC   O00T4       1     -1.05    15.999
    2829      ob       1    MUSC   O00T5       1     -1.05    15.999
    2830      ob       1    MUSC   O00T6       1     -1.05    15.999
    2831      oh       1    MUSC   O00T7       1     -0.95    15.999
    2832      oh       1    MUSC   O00T8       1     -0.95    15.999
    2833      oh       1    MUSC   O00T9       1     -0.95    15.999
    2834      oh       1    MUSC   O00TA       1     -0.95    15.999
    2835      ob       1    MUSC   O00TB       1     -1.05    15.999
    2836      ob       1    MUSC   O00TC       1     -1.05    15.999
    2837      ob       1    MUSC   O00TD       1     -1.05    15.999
    2838      ob       1    MUSC   O00TE       1     -1.05    15.999
    2839      ob       1    MUSC   O00TF       1     -1.05    15.999
    2840      ob       1    MUSC   O00TG       1     -1.05    15.999
    2841      ob       1    MUSC   O00TH       1     -1.05    15.999
    2842      ob       1    MUSC   O00TI       1     -1.05    15.999
    2843      ob       1    MUSC   O00TJ       1     -1.05    15.999
    2844      ob       1    MUSC   O00TK       1     -1.05    15.999
    2845      ob       1    MUSC   O00TL       1     -1.05    15.999
    2846      ob       1    MUSC   O00TM       1     -1.05    15.999
    2847      ob       1    MUSC   O00TN       1     -1.05    15.999
    2848      ob       1    MUSC   O00TO       1     -1.05    15.999
    2849      ob       1    MUSC   O00TP       1     -1.05    15.999
    2850      ob       1    MUSC   O00TQ       1     -1.05    15.999
    2851       K       1    MUSC   K001r       1       1.0    39.098
    2852       K       1    MUSC   K001s       1       1.0    39.098
    2853      ao       1    MUSC   Al04v       1     1.575    26.982
    2854      ao       1    MUSC   Al04w       1     1.575    26.982
    2855      ao       1    MUSC   Al04x       1     1.575    26.982
    2856      ao       1    MUSC   Al04y       1     1.575    26.982
    2857      ao       1    MUSC   Al04z       1     1.575    26.982
    2858      ao       1    MUSC   Al050       1     1.575    26.982
    2859      ao       1    MUSC   Al051       1     1.575    26.982
    2860      ao       1    MUSC   Al052       1     1.575    26.982
    2861      st       1    MUSC   Si09p       1       2.1    28.086
    2862      st       1    MUSC   Si09q       1       2.1    28.086
    2863      st       1    MUSC   Si09r       1       2.1    28.086
    2864      st       1    MUSC   Si09s       1       2.1    28.086
    2865      st       1    MUSC   Si09t       1       2.1    28.086
    2866      st       1    MUSC   Si09u       1       2.1    28.086
    2867      st       1    MUSC   Si09v       1       2.1    28.086
    2868      st       1    MUSC   Si09w       1       2.1    28.086
    2869      st       1    MUSC   Si09x       1       2.1    28.086
    2870      st       1    MUSC   Si09y       1       2.1    28.086
    2871      st       1    MUSC   Si09z       1       2.1    28.086
    2872      st       1    MUSC   Si0A0       1       2.1    28.086
    2873      st       1    MUSC   Si0A1       1       2.1    28.086
    2874      st       1    MUSC   Si0A2       1       2.1    28.086
    2875      st       1    MUSC   Si0A3       1       2.1    28.086
    2876      st       1    MUSC   Si0A4       1       2.1    28.086
    2877      ob       1    MUSC   O00TR       1     -1.05    15.999
    2878      ob       1    MUSC   O00TS       1     -1.05    15.999
    2879      ob       1    MUSC   O00TT       1     -1.05    15.999
    2880      ob       1    MUSC   O00TU       1     -1.05    15.999
    2881      oh       1    MUSC   O00TV       1     -0.95    15.999
    2882      oh       1    MUSC   O00TW       1     -0.95    15.999
    2883      oh       1    MUSC   O00TX       1     -0.95    15.999
    2884      oh       1    MUSC   O00TY       1     -0.95    15.999
    2885      ob       1    MUSC   O00TZ       1     -1.05    15.999
    2886      ob       1    MUSC   O00Ta       1     -1.05    15.999
    2887      ob       1    MUSC   O00Tb       1     -1.05    15.999
    2888      ob       1    MUSC   O00Tc       1     -1.05    15.999
    2889      ob       1    MUSC   O00Td       1     -1.05    15.999
    2890      ob       1    MUSC   O00Te       1     -1.05    15.999
    2891      ob       1    MUSC   O00Tf       1     -1.05    15.999
    2892      ob       1    MUSC   O00Tg       1     -1.05    15.999
    2893      ob       1    MUSC   O00Th       1     -1.05    15.999
    2894      ob       1    MUSC   O00Ti       1     -1.05    15.999
    2895      ob       1    MUSC   O00Tj       1     -1.05    15.999
    2896      ob       1    MUSC   O00Tk       1     -1.05    15.999
    2897      ob       1    MUSC   O00Tl       1     -1.05    15.999
    2898      ob       1    MUSC   O00Tm       1     -1.05    15.999
    2899      ob       1    MUSC   O00Tn       1     -1.05    15.999
    2900      ob       1    MUSC   O00To       1     -1.05    15.999
    2901      ob       1    MUSC   O00Tp       1     -1.05    15.999
    2902      ob       1    MUSC   O00Tq       1     -1.05    15.999
    2903      ob       1    MUSC   O00Tr       1     -1.05    15.999
    2904      ob       1    MUSC   O00Ts       1     -1.05    15.999
    2905      oh       1    MUSC   O00Tt       1     -0.95    15.999
    2906      oh       1    MUSC   O00Tu       1     -0.95    15.999
    2907      oh       1    MUSC   O00Tv       1     -0.95    15.999
    2908      oh       1    MUSC   O00Tw       1     -0.95    15.999
    2909      ob       1    MUSC   O00Tx       1     -1.05    15.999
    2910      ob       1    MUSC   O00Ty       1     -1.05    15.999
    2911      ob       1    MUSC   O00Tz       1     -1.05    15.999
    2912      ob       1    MUSC   O00U0       1     -1.05    15.999
    2913      ob       1    MUSC   O00U1       1     -1.05    15.999
    2914      ob       1    MUSC   O00U2       1     -1.05    15.999
    2915      ob       1    MUSC   O00U3       1     -1.05    15.999
    2916      ob       1    MUSC   O00U4       1     -1.05    15.999
    2917      ob       1    MUSC   O00U5       1     -1.05    15.999
    2918      ob       1    MUSC   O00U6       1     -1.05    15.999
    2919      ob       1    MUSC   O00U7       1     -1.05    15.999
    2920      ob       1    MUSC   O00U8       1     -1.05    15.999
    2921      ob       1    MUSC   O00U9       1     -1.05    15.999
    2922      ob       1    MUSC   O00UA       1     -1.05    15.999
    2923      ob       1    MUSC   O00UB       1     -1.05    15.999
    2924      ob       1    MUSC   O00UC       1     -1.05    15.999
    2925       K       1    MUSC   K001t       1       1.0    39.098
    2926       K       1    MUSC   K001u       1       1.0    39.098
    2927       K       1    MUSC   K001v       1       1.0    39.098
    2928       K       1    MUSC   K001w       1       1.0    39.098
    2929      ao       1    MUSC   Al053       1     1.575    26.982
    2930      ao       1    MUSC   Al054       1     1.575    26.982
    2931      ao       1    MUSC   Al055       1     1.575    26.982
    2932      ao       1    MUSC   Al056       1     1.575    26.982
    2933      ao       1    MUSC   Al057       1     1.575    26.982
    2934      ao       1    MUSC   Al058       1     1.575    26.982
    2935      ao       1    MUSC   Al059       1     1.575    26.982
    2936      ao       1    MUSC   Al05A       1     1.575    26.982
    2937      st       1    MUSC   Si0A5       1       2.1    28.086
    2938      st       1    MUSC   Si0A6       1       2.1    28.086
    2939      st       1    MUSC   Si0A7       1       2.1    28.086
    2940      st       1    MUSC   Si0A8       1       2.1    28.086
    2941      st       1    MUSC   Si0A9       1       2.1    28.086
    2942      st       1    MUSC   Si0AA       1       2.1    28.086
    2943      st       1    MUSC   Si0AB       1       2.1    28.086
    2944      st       1    MUSC   Si0AC       1       2.1    28.086
    2945      st       1    MUSC   Si0AD       1       2.1    28.086
    2946      st       1    MUSC   Si0AE       1       2.1    28.086
    2947      st       1    MUSC   Si0AF       1       2.1    28.086
    2948      st       1    MUSC   Si0AG       1       2.1    28.086
    2949      st       1    MUSC   Si0AH       1       2.1    28.086
    2950      st       1    MUSC   Si0AI       1       2.1    28.086
    2951      st       1    MUSC   Si0AJ       1       2.1    28.086
    2952      st       1    MUSC   Si0AK       1       2.1    28.086
    2953      ob       1    MUSC   O00UD       1     -1.05    15.999
    2954      ob       1    MUSC   O00UE       1     -1.05    15.999
    2955      ob       1    MUSC   O00UF       1     -1.05    15.999
    2956      ob       1    MUSC   O00UG       1     -1.05    15.999
    2957      oh       1    MUSC   O00UH       1     -0.95    15.999
    2958      oh       1    MUSC   O00UI       1     -0.95    15.999
    2959      oh       1    MUSC   O00UJ       1     -0.95    15.999
    2960      oh       1    MUSC   O00UK       1     -0.95    15.999
    2961      ob       1    MUSC   O00UL       1     -1.05    15.999
    2962      ob       1    MUSC   O00UM       1     -1.05    15.999
    2963      ob       1    MUSC   O00UN       1     -1.05    15.999
    2964      ob       1    MUSC   O00UO       1     -1.05    15.999
    2965      ob       1    MUSC   O00UP       1     -1.05    15.999
    2966      ob       1    MUSC   O00UQ       1     -1.05    15.999
    2967      ob       1    MUSC   O00UR       1     -1.05    15.999
    2968      ob       1    MUSC   O00US       1     -1.05    15.999
    2969      ob       1    MUSC   O00UT       1     -1.05    15.999
    2970      ob       1    MUSC   O00UU       1     -1.05    15.999
    2971      ob       1    MUSC   O00UV       1     -1.05    15.999
    2972      ob       1    MUSC   O00UW       1     -1.05    15.999
    2973      ob       1    MUSC   O00UX       1     -1.05    15.999
    2974      ob       1    MUSC   O00UY       1     -1.05    15.999
    2975      ob       1    MUSC   O00UZ       1     -1.05    15.999
    2976      ob       1    MUSC   O00Ua       1     -1.05    15.999
    2977      ob       1    MUSC   O00Ub       1     -1.05    15.999
    2978      ob       1    MUSC   O00Uc       1     -1.05    15.999
    2979      ob       1    MUSC   O00Ud       1     -1.05    15.999
    2980      ob       1    MUSC   O00Ue       1     -1.05    15.999
    2981      oh       1    MUSC   O00Uf       1     -0.95    15.999
    2982      oh       1    MUSC   O00Ug       1     -0.95    15.999
    2983      oh       1    MUSC   O00Uh       1     -0.95    15.999
    2984      oh       1    MUSC   O00Ui       1     -0.95    15.999
    2985      ob       1    MUSC   O00Uj       1     -1.05    15.999
    2986      ob       1    MUSC   O00Uk       1     -1.05    15.999
    2987      ob       1    MUSC   O00Ul       1     -1.05    15.999
    2988      ob       1    MUSC   O00Um       1     -1.05    15.999
    2989      ob       1    MUSC   O00Un       1     -1.05    15.999
    2990      ob       1    MUSC   O00Uo       1     -1.05    15.999
    2991      ob       1    MUSC   O00Up       1     -1.05    15.999
    2992      ob       1    MUSC   O00Uq       1     -1.05    15.999
    2993      ob       1    MUSC   O00Ur       1     -1.05    15.999
    2994      ob       1    MUSC   O00Us       1     -1.05    15.999
    2995      ob       1    MUSC   O00Ut       1     -1.05    15.999
    2996      ob       1    MUSC   O00Uu       1     -1.05    15.999
    2997      ob       1    MUSC   O00Uv       1     -1.05    15.999
    2998      ob       1    MUSC   O00Uw       1     -1.05    15.999
    2999      ob       1    MUSC   O00Ux       1     -1.05    15.999
    3000      ob       1    MUSC   O00Uy       1     -1.05    15.999
    3001       K       1    MUSC   K001x       1       1.0    39.098
    3002       K       1    MUSC   K001y       1       1.0    39.098
    3003      ao       1    MUSC   Al05B       1     1.575    26.982
    3004      ao       1    MUSC   Al05C       1     1.575    26.982
    3005      ao       1    MUSC   Al05D       1     1.575    26.982
    3006      ao       1    MUSC   Al05E       1     1.575    26.982
    3007      ao       1    MUSC   Al05F       1     1.575    26.982
    3008      ao       1    MUSC   Al05G       1     1.575    26.982
    3009      ao       1    MUSC   Al05H       1     1.575    26.982
    3010      ao       1    MUSC   Al05I       1     1.575    26.982
    3011      st       1    MUSC   Si0AL       1       2.1    28.086
    3012      st       1    MUSC   Si0AM       1       2.1    28.086
    3013      st       1    MUSC   Si0AN       1       2.1    28.086
    3014      st       1    MUSC   Si0AO       1       2.1    28.086
    3015      st       1    MUSC   Si0AP       1       2.1    28.086
    3016      st       1    MUSC   Si0AQ       1       2.1    28.086
    3017      st       1    MUSC   Si0AR       1       2.1    28.086
    3018      st       1    MUSC   Si0AS       1       2.1    28.086
    3019      st       1    MUSC   Si0AT       1       2.1    28.086
    3020      st       1    MUSC   Si0AU       1       2.1    28.086
    3021      st       1    MUSC   Si0AV       1       2.1    28.086
    3022      st       1    MUSC   Si0AW       1       2.1    28.086
    3023      st       1    MUSC   Si0AX       1       2.1    28.086
    3024      st       1    MUSC   Si0AY       1       2.1    28.086
    3025      st       1    MUSC   Si0AZ       1       2.1    28.086
    3026      st       1    MUSC   Si0Aa       1       2.1    28.086
    3027      ob       1    MUSC   O00Uz       1     -1.05    15.999
    3028      ob       1    MUSC   O00V0       1     -1.05    15.999
    3029      ob       1    MUSC   O00V1       1     -1.05    15.999
    3030      ob       1    MUSC   O00V2       1     -1.05    15.999
    3031      oh       1    MUSC   O00V3       1     -0.95    15.999
    3032      oh       1    MUSC   O00V4       1     -0.95    15.999
    3033      oh       1    MUSC   O00V5       1     -0.95    15.999
    3034      oh       1    MUSC   O00V6       1     -0.95    15.999
    3035      ob       1    MUSC   O00V7       1     -1.05    15.999
    3036      ob       1    MUSC   O00V8       1     -1.05    15.999
    3037      ob       1    MUSC   O00V9       1     -1.05    15.999
    3038      ob       1    MUSC   O00VA       1     -1.05    15.999
    3039      ob       1    MUSC   O00VB       1     -1.05    15.999
    3040      ob       1    MUSC   O00VC       1     -1.05    15.999
    3041      ob       1    MUSC   O00VD       1     -1.05    15.999
    3042      ob       1    MUSC   O00VE       1     -1.05    15.999
    3043      ob       1    MUSC   O00VF       1     -1.05    15.999
    3044      ob       1    MUSC   O00VG       1     -1.05    15.999
    3045      ob       1    MUSC   O00VH       1     -1.05    15.999
    3046      ob       1    MUSC   O00VI       1     -1.05    15.999
    3047      ob       1    MUSC   O00VJ       1     -1.05    15.999
    3048      ob       1    MUSC   O00VK       1     -1.05    15.999
    3049      ob       1    MUSC   O00VL       1     -1.05    15.999
    3050      ob       1    MUSC   O00VM       1     -1.05    15.999
    3051      ob       1    MUSC   O00VN       1     -1.05    15.999
    3052      ob       1    MUSC   O00VO       1     -1.05    15.999
    3053      ob       1    MUSC   O00VP       1     -1.05    15.999
    3054      ob       1    MUSC   O00VQ       1     -1.05    15.999
    3055      oh       1    MUSC   O00VR       1     -0.95    15.999
    3056      oh       1    MUSC   O00VS       1     -0.95    15.999
    3057      oh       1    MUSC   O00VT       1     -0.95    15.999
    3058      oh       1    MUSC   O00VU       1     -0.95    15.999
    3059      ob       1    MUSC   O00VV       1     -1.05    15.999
    3060      ob       1    MUSC   O00VW       1     -1.05    15.999
    3061      ob       1    MUSC   O00VX       1     -1.05    15.999
    3062      ob       1    MUSC   O00VY       1     -1.05    15.999
    3063      ob       1    MUSC   O00VZ       1     -1.05    15.999
    3064      ob       1    MUSC   O00Va       1     -1.05    15.999
    3065      ob       1    MUSC   O00Vb       1     -1.05    15.999
    3066      ob       1    MUSC   O00Vc       1     -1.05    15.999
    3067      ob       1    MUSC   O00Vd       1     -1.05    15.999
    3068      ob       1    MUSC   O00Ve       1     -1.05    15.999
    3069      ob       1    MUSC   O00Vf       1     -1.05    15.999
    3070      ob       1    MUSC   O00Vg       1     -1.05    15.999
    3071      ob       1    MUSC   O00Vh       1     -1.05    15.999
    3072      ob       1    MUSC   O00Vi       1     -1.05    15.999
    3073      ob       1    MUSC   O00Vj       1     -1.05    15.999
    3074      ob       1    MUSC   O00Vk       1     -1.05    15.999
    3075       K       1    MUSC   K001z       1       1.0    39.098
    3076       K       1    MUSC   K0020       1       1.0    39.098
    3077       K       1    MUSC   K0021       1       1.0    39.098
    3078       K       1    MUSC   K0022       1       1.0    39.098
    3079      ao       1    MUSC   Al05J       1     1.575    26.982
    3080      ao       1    MUSC   Al05K       1     1.575    26.982
    3081      ao       1    MUSC   Al05L       1     1.575    26.982
    3082      ao       1    MUSC   Al05M       1     1.575    26.982
    3083      ao       1    MUSC   Al05N       1     1.575    26.982
    3084      ao       1    MUSC   Al05O       1     1.575    26.982
    3085      ao       1    MUSC   Al05P       1     1.575    26.982
    3086      ao       1    MUSC   Al05Q       1     1.575    26.982
    3087      st       1    MUSC   Si0Ab       1       2.1    28.086
    3088      st       1    MUSC   Si0Ac       1       2.1    28.086
    3089      st       1    MUSC   Si0Ad       1       2.1    28.086
    3090      st       1    MUSC   Si0Ae       1       2.1    28.086
    3091      st       1    MUSC   Si0Af       1       2.1    28.086
    3092      st       1    MUSC   Si0Ag       1       2.1    28.086
    3093      st       1    MUSC   Si0Ah       1       2.1    28.086
    3094      st       1    MUSC   Si0Ai       1       2.1    28.086
    3095      st       1    MUSC   Si0Aj       1       2.1    28.086
    3096      st       1    MUSC   Si0Ak       1       2.1    28.086
    3097      st       1    MUSC   Si0Al       1       2.1    28.086
    3098      st       1    MUSC   Si0Am       1       2.1    28.086
    3099      st       1    MUSC   Si0An       1       2.1    28.086
    3100      st       1    MUSC   Si0Ao       1       2.1    28.086
    3101      st       1    MUSC   Si0Ap       1       2.1    28.086
    3102      st       1    MUSC   Si0Aq       1       2.1    28.086
    3103      ob       1    MUSC   O00Vl       1     -1.05    15.999
    3104      ob       1    MUSC   O00Vm       1     -1.05    15.999
    3105      ob       1    MUSC   O00Vn       1     -1.05    15.999
    3106      ob       1    MUSC   O00Vo       1     -1.05    15.999
    3107      oh       1    MUSC   O00Vp       1     -0.95    15.999
    3108      oh       1    MUSC   O00Vq       1     -0.95    15.999
    3109      oh       1    MUSC   O00Vr       1     -0.95    15.999
    3110      oh       1    MUSC   O00Vs       1     -0.95    15.999
    3111      ob       1    MUSC   O00Vt       1     -1.05    15.999
    3112      ob       1    MUSC   O00Vu       1     -1.05    15.999
    3113      ob       1    MUSC   O00Vv       1     -1.05    15.999
    3114      ob       1    MUSC   O00Vw       1     -1.05    15.999
    3115      ob       1    MUSC   O00Vx       1     -1.05    15.999
    3116      ob       1    MUSC   O00Vy       1     -1.05    15.999
    3117      ob       1    MUSC   O00Vz       1     -1.05    15.999
    3118      ob       1    MUSC   O00W0       1     -1.05    15.999
    3119      ob       1    MUSC   O00W1       1     -1.05    15.999
    3120      ob       1    MUSC   O00W2       1     -1.05    15.999
    3121      ob       1    MUSC   O00W3       1     -1.05    15.999
    3122      ob       1    MUSC   O00W4       1     -1.05    15.999
    3123      ob       1    MUSC   O00W5       1     -1.05    15.999
    3124      ob       1    MUSC   O00W6       1     -1.05    15.999
    3125      ob       1    MUSC   O00W7       1     -1.05    15.999
    3126      ob       1    MUSC   O00W8       1     -1.05    15.999
    3127      ob       1    MUSC   O00W9       1     -1.05    15.999
    3128      ob       1    MUSC   O00WA       1     -1.05    15.999
    3129      ob       1    MUSC   O00WB       1     -1.05    15.999
    3130      ob       1    MUSC   O00WC       1     -1.05    15.999
    3131      oh       1    MUSC   O00WD       1     -0.95    15.999
    3132      oh       1    MUSC   O00WE       1     -0.95    15.999
    3133      oh       1    MUSC   O00WF       1     -0.95    15.999
    3134      oh       1    MUSC   O00WG       1     -0.95    15.999
    3135      ob       1    MUSC   O00WH       1     -1.05    15.999
    3136      ob       1    MUSC   O00WI       1     -1.05    15.999
    3137      ob       1    MUSC   O00WJ       1     -1.05    15.999
    3138      ob       1    MUSC   O00WK       1     -1.05    15.999
    3139      ob       1    MUSC   O00WL       1     -1.05    15.999
    3140      ob       1    MUSC   O00WM       1     -1.05    15.999
    3141      ob       1    MUSC   O00WN       1     -1.05    15.999
    3142      ob       1    MUSC   O00WO       1     -1.05    15.999
    3143      ob       1    MUSC   O00WP       1     -1.05    15.999
    3144      ob       1    MUSC   O00WQ       1     -1.05    15.999
    3145      ob       1    MUSC   O00WR       1     -1.05    15.999
    3146      ob       1    MUSC   O00WS       1     -1.05    15.999
    3147      ob       1    MUSC   O00WT       1     -1.05    15.999
    3148      ob       1    MUSC   O00WU       1     -1.05    15.999
    3149      ob       1    MUSC   O00WV       1     -1.05    15.999
    3150      ob       1    MUSC   O00WW       1     -1.05    15.999
    3151       K       1    MUSC   K0023       1       1.0    39.098
    3152       K       1    MUSC   K0024       1       1.0    39.098
    3153      ao       1    MUSC   Al05R       1     1.575    26.982
    3154      ao       1    MUSC   Al05S       1     1.575    26.982
    3155      ao       1    MUSC   Al05T       1     1.575    26.982
    3156      ao       1    MUSC   Al05U       1     1.575    26.982
    3157      ao       1    MUSC   Al05V       1     1.575    26.982
    3158      ao       1    MUSC   Al05W       1     1.575    26.982
    3159      ao       1    MUSC   Al05X       1     1.575    26.982
    3160      ao       1    MUSC   Al05Y       1     1.575    26.982
    3161      st       1    MUSC   Si0Ar       1       2.1    28.086
    3162      st       1    MUSC   Si0As       1       2.1    28.086
    3163      st       1    MUSC   Si0At       1       2.1    28.086
    3164      st       1    MUSC   Si0Au       1       2.1    28.086
    3165      st       1    MUSC   Si0Av       1       2.1    28.086
    3166      st       1    MUSC   Si0Aw       1       2.1    28.086
    3167      st       1    MUSC   Si0Ax       1       2.1    28.086
    3168      st       1    MUSC   Si0Ay       1       2.1    28.086
    3169      st       1    MUSC   Si0Az       1       2.1    28.086
    3170      st       1    MUSC   Si0B0       1       2.1    28.086
    3171      st       1    MUSC   Si0B1       1       2.1    28.086
    3172      st       1    MUSC   Si0B2       1       2.1    28.086
    3173      st       1    MUSC   Si0B3       1       2.1    28.086
    3174      st       1    MUSC   Si0B4       1       2.1    28.086
    3175      st       1    MUSC   Si0B5       1       2.1    28.086
    3176      st       1    MUSC   Si0B6       1       2.1    28.086
    3177      ob       1    MUSC   O00WX       1     -1.05    15.999
    3178      ob       1    MUSC   O00WY       1     -1.05    15.999
    3179      ob       1    MUSC   O00WZ       1     -1.05    15.999
    3180      ob       1    MUSC   O00Wa       1     -1.05    15.999
    3181      oh       1    MUSC   O00Wb       1     -0.95    15.999
    3182      oh       1    MUSC   O00Wc       1     -0.95    15.999
    3183      oh       1    MUSC   O00Wd       1     -0.95    15.999
    3184      oh       1    MUSC   O00We       1     -0.95    15.999
    3185      ob       1    MUSC   O00Wf       1     -1.05    15.999
    3186      ob       1    MUSC   O00Wg       1     -1.05    15.999
    3187      ob       1    MUSC   O00Wh       1     -1.05    15.999
    3188      ob       1    MUSC   O00Wi       1     -1.05    15.999
    3189      ob       1    MUSC   O00Wj       1     -1.05    15.999
    3190      ob       1    MUSC   O00Wk       1     -1.05    15.999
    3191      ob       1    MUSC   O00Wl       1     -1.05    15.999
    3192      ob       1    MUSC   O00Wm       1     -1.05    15.999
    3193      ob       1    MUSC   O00Wn       1     -1.05    15.999
    3194      ob       1    MUSC   O00Wo       1     -1.05    15.999
    3195      ob       1    MUSC   O00Wp       1     -1.05    15.999
    3196      ob       1    MUSC   O00Wq       1     -1.05    15.999
    3197      ob       1    MUSC   O00Wr       1     -1.05    15.999
    3198      ob       1    MUSC   O00Ws       1     -1.05    15.999
    3199      ob       1    MUSC   O00Wt       1     -1.05    15.999
    3200      ob       1    MUSC   O00Wu       1     -1.05    15.999
    3201      ob       1    MUSC   O00Wv       1     -1.05    15.999
    3202      ob       1    MUSC   O00Ww       1     -1.05    15.999
    3203      ob       1    MUSC   O00Wx       1     -1.05    15.999
    3204      ob       1    MUSC   O00Wy       1     -1.05    15.999
    3205      oh       1    MUSC   O00Wz       1     -0.95    15.999
    3206      oh       1    MUSC   O00X0       1     -0.95    15.999
    3207      oh       1    MUSC   O00X1       1     -0.95    15.999
    3208      oh       1    MUSC   O00X2       1     -0.95    15.999
    3209      ob       1    MUSC   O00X3       1     -1.05    15.999
    3210      ob       1    MUSC   O00X4       1     -1.05    15.999
    3211      ob       1    MUSC   O00X5       1     -1.05    15.999
    3212      ob       1    MUSC   O00X6       1     -1.05    15.999
    3213      ob       1    MUSC   O00X7       1     -1.05    15.999
    3214      ob       1    MUSC   O00X8       1     -1.05    15.999
    3215      ob       1    MUSC   O00X9       1     -1.05    15.999
    3216      ob       1    MUSC   O00XA       1     -1.05    15.999
    3217      ob       1    MUSC   O00XB       1     -1.05    15.999
    3218      ob       1    MUSC   O00XC       1     -1.05    15.999
    3219      ob       1    MUSC   O00XD       1     -1.05    15.999
    3220      ob       1    MUSC   O00XE       1     -1.05    15.999
    3221      ob       1    MUSC   O00XF       1     -1.05    15.999
    3222      ob       1    MUSC   O00XG       1     -1.05    15.999
    3223      ob       1    MUSC   O00XH       1     -1.05    15.999
    3224      ob       1    MUSC   O00XI       1     -1.05    15.999
    3225       K       1    MUSC   K0025       1       1.0    39.098
    3226       K       1    MUSC   K0026       1       1.0    39.098
    3227       K       1    MUSC   K0027       1       1.0    39.098
    3228       K       1    MUSC   K0028       1       1.0    39.098
    3229      ao       1    MUSC   Al05Z       1     1.575    26.982
    3230      ao       1    MUSC   Al05a       1     1.575    26.982
    3231      ao       1    MUSC   Al05b       1     1.575    26.982
    3232      ao       1    MUSC   Al05c       1     1.575    26.982
    3233      ao       1    MUSC   Al05d       1     1.575    26.982
    3234      ao       1    MUSC   Al05e       1     1.575    26.982
    3235      ao       1    MUSC   Al05f       1     1.575    26.982
    3236      ao       1    MUSC   Al05g       1     1.575    26.982
    3237      st       1    MUSC   Si0B7       1       2.1    28.086
    3238      st       1    MUSC   Si0B8       1       2.1    28.086
    3239      st       1    MUSC   Si0B9       1       2.1    28.086
    3240      st       1    MUSC   Si0BA       1       2.1    28.086
    3241      st       1    MUSC   Si0BB       1       2.1    28.086
    3242      st       1    MUSC   Si0BC       1       2.1    28.086
    3243      st       1    MUSC   Si0BD       1       2.1    28.086
    3244      st       1    MUSC   Si0BE       1       2.1    28.086
    3245      st       1    MUSC   Si0BF       1       2.1    28.086
    3246      st       1    MUSC   Si0BG       1       2.1    28.086
    3247      st       1    MUSC   Si0BH       1       2.1    28.086
    3248      st       1    MUSC   Si0BI       1       2.1    28.086
    3249      st       1    MUSC   Si0BJ       1       2.1    28.086
    3250      st       1    MUSC   Si0BK       1       2.1    28.086
    3251      st       1    MUSC   Si0BL       1       2.1    28.086
    3252      st       1    MUSC   Si0BM       1       2.1    28.086
    3253      ob       1    MUSC   O00XJ       1     -1.05    15.999
    3254      ob       1    MUSC   O00XK       1     -1.05    15.999
    3255      ob       1    MUSC   O00XL       1     -1.05    15.999
    3256      ob       1    MUSC   O00XM       1     -1.05    15.999
    3257      oh       1    MUSC   O00XN       1     -0.95    15.999
    3258      oh       1    MUSC   O00XO       1     -0.95    15.999
    3259      oh       1    MUSC   O00XP       1     -0.95    15.999
    3260      oh       1    MUSC   O00XQ       1     -0.95    15.999
    3261      ob       1    MUSC   O00XR       1     -1.05    15.999
    3262      ob       1    MUSC   O00XS       1     -1.05    15.999
    3263      ob       1    MUSC   O00XT       1     -1.05    15.999
    3264      ob       1    MUSC   O00XU       1     -1.05    15.999
    3265      ob       1    MUSC   O00XV       1     -1.05    15.999
    3266      ob       1    MUSC   O00XW       1     -1.05    15.999
    3267      ob       1    MUSC   O00XX       1     -1.05    15.999
    3268      ob       1    MUSC   O00XY       1     -1.05    15.999
    3269      ob       1    MUSC   O00XZ       1     -1.05    15.999
    3270      ob       1    MUSC   O00Xa       1     -1.05    15.999
    3271      ob       1    MUSC   O00Xb       1     -1.05    15.999
    3272      ob       1    MUSC   O00Xc       1     -1.05    15.999
    3273      ob       1    MUSC   O00Xd       1     -1.05    15.999
    3274      ob       1    MUSC   O00Xe       1     -1.05    15.999
    3275      ob       1    MUSC   O00Xf       1     -1.05    15.999
    3276      ob       1    MUSC   O00Xg       1     -1.05    15.999
    3277      ob       1    MUSC   O00Xh       1     -1.05    15.999
    3278      ob       1    MUSC   O00Xi       1     -1.05    15.999
    3279      ob       1    MUSC   O00Xj       1     -1.05    15.999
    3280      ob       1    MUSC   O00Xk       1     -1.05    15.999
    3281      oh       1    MUSC   O00Xl       1     -0.95    15.999
    3282      oh       1    MUSC   O00Xm       1     -0.95    15.999
    3283      oh       1    MUSC   O00Xn       1     -0.95    15.999
    3284      oh       1    MUSC   O00Xo       1     -0.95    15.999
    3285      ob       1    MUSC   O00Xp       1     -1.05    15.999
    3286      ob       1    MUSC   O00Xq       1     -1.05    15.999
    3287      ob       1    MUSC   O00Xr       1     -1.05    15.999
    3288      ob       1    MUSC   O00Xs       1     -1.05    15.999
    3289      ob       1    MUSC   O00Xt       1     -1.05    15.999
    3290      ob       1    MUSC   O00Xu       1     -1.05    15.999
    3291      ob       1    MUSC   O00Xv       1     -1.05    15.999
    3292      ob       1    MUSC   O00Xw       1     -1.05    15.999
    3293      ob       1    MUSC   O00Xx       1     -1.05    15.999
    3294      ob       1    MUSC   O00Xy       1     -1.05    15.999
    3295      ob       1    MUSC   O00Xz       1     -1.05    15.999
    3296      ob       1    MUSC   O00Y0       1     -1.05    15.999
    3297      ob       1    MUSC   O00Y1       1     -1.05    15.999
    3298      ob       1    MUSC   O00Y2       1     -1.05    15.999
    3299      ob       1    MUSC   O00Y3       1     -1.05    15.999
    3300      ob       1    MUSC   O00Y4       1     -1.05    15.999
    3301       K       1    MUSC   K0029       1       1.0    39.098
    3302       K       1    MUSC   K002A       1       1.0    39.098
    3303      ao       1    MUSC   Al05h       1     1.575    26.982
    3304      ao       1    MUSC   Al05i       1     1.575    26.982
    3305      ao       1    MUSC   Al05j       1     1.575    26.982
    3306      ao       1    MUSC   Al05k       1     1.575    26.982
    3307      ao       1    MUSC   Al05l       1     1.575    26.982
    3308      ao       1    MUSC   Al05m       1     1.575    26.982
    3309      ao       1    MUSC   Al05n       1     1.575    26.982
    3310      ao       1    MUSC   Al05o       1     1.575    26.982
    3311      st       1    MUSC   Si0BN       1       2.1    28.086
    3312      st       1    MUSC   Si0BO       1       2.1    28.086
    3313      st       1    MUSC   Si0BP       1       2.1    28.086
    3314      st       1    MUSC   Si0BQ       1       2.1    28.086
    3315      st       1    MUSC   Si0BR       1       2.1    28.086
    3316      st       1    MUSC   Si0BS       1       2.1    28.086
    3317      st       1    MUSC   Si0BT       1       2.1    28.086
    3318      st       1    MUSC   Si0BU       1       2.1    28.086
    3319      st       1    MUSC   Si0BV       1       2.1    28.086
    3320      st       1    MUSC   Si0BW       1       2.1    28.086
    3321      st       1    MUSC   Si0BX       1       2.1    28.086
    3322      st       1    MUSC   Si0BY       1       2.1    28.086
    3323      st       1    MUSC   Si0BZ       1       2.1    28.086
    3324      st       1    MUSC   Si0Ba       1       2.1    28.086
    3325      st       1    MUSC   Si0Bb       1       2.1    28.086
    3326      st       1    MUSC   Si0Bc       1       2.1    28.086
    3327      ob       1    MUSC   O00Y5       1     -1.05    15.999
    3328      ob       1    MUSC   O00Y6       1     -1.05    15.999
    3329      ob       1    MUSC   O00Y7       1     -1.05    15.999
    3330      ob       1    MUSC   O00Y8       1     -1.05    15.999
    3331      oh       1    MUSC   O00Y9       1     -0.95    15.999
    3332      oh       1    MUSC   O00YA       1     -0.95    15.999
    3333      oh       1    MUSC   O00YB       1     -0.95    15.999
    3334      oh       1    MUSC   O00YC       1     -0.95    15.999
    3335      ob       1    MUSC   O00YD       1     -1.05    15.999
    3336      ob       1    MUSC   O00YE       1     -1.05    15.999
    3337      ob       1    MUSC   O00YF       1     -1.05    15.999
    3338      ob       1    MUSC   O00YG       1     -1.05    15.999
    3339      ob       1    MUSC   O00YH       1     -1.05    15.999
    3340      ob       1    MUSC   O00YI       1     -1.05    15.999
    3341      ob       1    MUSC   O00YJ       1     -1.05    15.999
    3342      ob       1    MUSC   O00YK       1     -1.05    15.999
    3343      ob       1    MUSC   O00YL       1     -1.05    15.999
    3344      ob       1    MUSC   O00YM       1     -1.05    15.999
    3345      ob       1    MUSC   O00YN       1     -1.05    15.999
    3346      ob       1    MUSC   O00YO       1     -1.05    15.999
    3347      ob       1    MUSC   O00YP       1     -1.05    15.999
    3348      ob       1    MUSC   O00YQ       1     -1.05    15.999
    3349      ob       1    MUSC   O00YR       1     -1.05    15.999
    3350      ob       1    MUSC   O00YS       1     -1.05    15.999
    3351      ob       1    MUSC   O00YT       1     -1.05    15.999
    3352      ob       1    MUSC   O00YU       1     -1.05    15.999
    3353      ob       1    MUSC   O00YV       1     -1.05    15.999
    3354      ob       1    MUSC   O00YW       1     -1.05    15.999
    3355      oh       1    MUSC   O00YX       1     -0.95    15.999
    3356      oh       1    MUSC   O00YY       1     -0.95    15.999
    3357      oh       1    MUSC   O00YZ       1     -0.95    15.999
    3358      oh       1    MUSC   O00Ya       1     -0.95    15.999
    3359      ob       1    MUSC   O00Yb       1     -1.05    15.999
    3360      ob       1    MUSC   O00Yc       1     -1.05    15.999
    3361      ob       1    MUSC   O00Yd       1     -1.05    15.999
    3362      ob       1    MUSC   O00Ye       1     -1.05    15.999
    3363      ob       1    MUSC   O00Yf       1     -1.05    15.999
    3364      ob       1    MUSC   O00Yg       1     -1.05    15.999
    3365      ob       1    MUSC   O00Yh       1     -1.05    15.999
    3366      ob       1    MUSC   O00Yi       1     -1.05    15.999
    3367      ob       1    MUSC   O00Yj       1     -1.05    15.999
    3368      ob       1    MUSC   O00Yk       1     -1.05    15.999
    3369      ob       1    MUSC   O00Yl       1     -1.05    15.999
    3370      ob       1    MUSC   O00Ym       1     -1.05    15.999
    3371      ob       1    MUSC   O00Yn       1     -1.05    15.999
    3372      ob       1    MUSC   O00Yo       1     -1.05    15.999
    3373      ob       1    MUSC   O00Yp       1     -1.05    15.999
    3374      ob       1    MUSC   O00Yq       1     -1.05    15.999
    3375       K       1    MUSC   K002B       1       1.0    39.098
    3376       K       1    MUSC   K002C       1       1.0    39.098
    3377       K       1    MUSC   K002D       1       1.0    39.098
    3378       K       1    MUSC   K002E       1       1.0    39.098
    3379      ao       1    MUSC   Al05p       1     1.575    26.982
    3380      ao       1    MUSC   Al05q       1     1.575    26.982
    3381      ao       1    MUSC   Al05r       1     1.575    26.982
    3382      ao       1    MUSC   Al05s       1     1.575    26.982
    3383      ao       1    MUSC   Al05t       1     1.575    26.982
    3384      ao       1    MUSC   Al05u       1     1.575    26.982
    3385      ao       1    MUSC   Al05v       1     1.575    26.982
    3386      ao       1    MUSC   Al05w       1     1.575    26.982
    3387      st       1    MUSC   Si0Bd       1       2.1    28.086
    3388      st       1    MUSC   Si0Be       1       2.1    28.086
    3389      st       1    MUSC   Si0Bf       1       2.1    28.086
    3390      st       1    MUSC   Si0Bg       1       2.1    28.086
    3391      st       1    MUSC   Si0Bh       1       2.1    28.086
    3392      st       1    MUSC   Si0Bi       1       2.1    28.086
    3393      st       1    MUSC   Si0Bj       1       2.1    28.086
    3394      st       1    MUSC   Si0Bk       1       2.1    28.086
    3395      st       1    MUSC   Si0Bl       1       2.1    28.086
    3396      st       1    MUSC   Si0Bm       1       2.1    28.086
    3397      st       1    MUSC   Si0Bn       1       2.1    28.086
    3398      st       1    MUSC   Si0Bo       1       2.1    28.086
    3399      st       1    MUSC   Si0Bp       1       2.1    28.086
    3400      st       1    MUSC   Si0Bq       1       2.1    28.086
    3401      st       1    MUSC   Si0Br       1       2.1    28.086
    3402      st       1    MUSC   Si0Bs       1       2.1    28.086
    3403      ob       1    MUSC   O00Yr       1     -1.05    15.999
    3404      ob       1    MUSC   O00Ys       1     -1.05    15.999
    3405      ob       1    MUSC   O00Yt       1     -1.05    15.999
    3406      ob       1    MUSC   O00Yu       1     -1.05    15.999
    3407      oh       1    MUSC   O00Yv       1     -0.95    15.999
    3408      oh       1    MUSC   O00Yw       1     -0.95    15.999
    3409      oh       1    MUSC   O00Yx       1     -0.95    15.999
    3410      oh       1    MUSC   O00Yy       1     -0.95    15.999
    3411      ob       1    MUSC   O00Yz       1     -1.05    15.999
    3412      ob       1    MUSC   O00Z0       1     -1.05    15.999
    3413      ob       1    MUSC   O00Z1       1     -1.05    15.999
    3414      ob       1    MUSC   O00Z2       1     -1.05    15.999
    3415      ob       1    MUSC   O00Z3       1     -1.05    15.999
    3416      ob       1    MUSC   O00Z4       1     -1.05    15.999
    3417      ob       1    MUSC   O00Z5       1     -1.05    15.999
    3418      ob       1    MUSC   O00Z6       1     -1.05    15.999
    3419      ob       1    MUSC   O00Z7       1     -1.05    15.999
    3420      ob       1    MUSC   O00Z8       1     -1.05    15.999
    3421      ob       1    MUSC   O00Z9       1     -1.05    15.999
    3422      ob       1    MUSC   O00ZA       1     -1.05    15.999
    3423      ob       1    MUSC   O00ZB       1     -1.05    15.999
    3424      ob       1    MUSC   O00ZC       1     -1.05    15.999
    3425      ob       1    MUSC   O00ZD       1     -1.05    15.999
    3426      ob       1    MUSC   O00ZE       1     -1.05    15.999
    3427      ob       1    MUSC   O00ZF       1     -1.05    15.999
    3428      ob       1    MUSC   O00ZG       1     -1.05    15.999
    3429      ob       1    MUSC   O00ZH       1     -1.05    15.999
    3430      ob       1    MUSC   O00ZI       1     -1.05    15.999
    3431      oh       1    MUSC   O00ZJ       1     -0.95    15.999
    3432      oh       1    MUSC   O00ZK       1     -0.95    15.999
    3433      oh       1    MUSC   O00ZL       1     -0.95    15.999
    3434      oh       1    MUSC   O00ZM       1     -0.95    15.999
    3435      ob       1    MUSC   O00ZN       1     -1.05    15.999
    3436      ob       1    MUSC   O00ZO       1     -1.05    15.999
    3437      ob       1    MUSC   O00ZP       1     -1.05    15.999
    3438      ob       1    MUSC   O00ZQ       1     -1.05    15.999
    3439      ob       1    MUSC   O00ZR       1     -1.05    15.999
    3440      ob       1    MUSC   O00ZS       1     -1.05    15.999
    3441      ob       1    MUSC   O00ZT       1     -1.05    15.999
    3442      ob       1    MUSC   O00ZU       1     -1.05    15.999
    3443      ob       1    MUSC   O00ZV       1     -1.05    15.999
    3444      ob       1    MUSC   O00ZW       1     -1.05    15.999
    3445      ob       1    MUSC   O00ZX       1     -1.05    15.999
    3446      ob       1    MUSC   O00ZY       1     -1.05    15.999
    3447      ob       1    MUSC   O00ZZ       1     -1.05    15.999
    3448      ob       1    MUSC   O00Za       1     -1.05    15.999
    3449      ob       1    MUSC   O00Zb       1     -1.05    15.999
    3450      ob       1    MUSC   O00Zc       1     -1.05    15.999
    3451       K       1    MUSC   K002F       1       1.0    39.098
    3452       K       1    MUSC   K002G       1       1.0    39.098
    3453      ao       1    MUSC   Al05x       1     1.575    26.982
    3454      ao       1    MUSC   Al05y       1     1.575    26.982
    3455      ao       1    MUSC   Al05z       1     1.575    26.982
    3456      ao       1    MUSC   Al060       1     1.575    26.982
    3457      ao       1    MUSC   Al061       1     1.575    26.982
    3458      ao       1    MUSC   Al062       1     1.575    26.982
    3459      ao       1    MUSC   Al063       1     1.575    26.982
    3460      ao       1    MUSC   Al064       1     1.575    26.982
    3461      st       1    MUSC   Si0Bt       1       2.1    28.086
    3462      st       1    MUSC   Si0Bu       1       2.1    28.086
    3463      st       1    MUSC   Si0Bv       1       2.1    28.086
    3464      st       1    MUSC   Si0Bw       1       2.1    28.086
    3465      st       1    MUSC   Si0Bx       1       2.1    28.086
    3466      st       1    MUSC   Si0By       1       2.1    28.086
    3467      st       1    MUSC   Si0Bz       1       2.1    28.086
    3468      st       1    MUSC   Si0C0       1       2.1    28.086
    3469      st       1    MUSC   Si0C1       1       2.1    28.086
    3470      st       1    MUSC   Si0C2       1       2.1    28.086
    3471      st       1    MUSC   Si0C3       1       2.1    28.086
    3472      st       1    MUSC   Si0C4       1       2.1    28.086
    3473      st       1    MUSC   Si0C5       1       2.1    28.086
    3474      st       1    MUSC   Si0C6       1       2.1    28.086
    3475      st       1    MUSC   Si0C7       1       2.1    28.086
    3476      st       1    MUSC   Si0C8       1       2.1    28.086
    3477      ob       1    MUSC   O00Zd       1     -1.05    15.999
    3478      ob       1    MUSC   O00Ze       1     -1.05    15.999
    3479      ob       1    MUSC   O00Zf       1     -1.05    15.999
    3480      ob       1    MUSC   O00Zg       1     -1.05    15.999
    3481      oh       1    MUSC   O00Zh       1     -0.95    15.999
    3482      oh       1    MUSC   O00Zi       1     -0.95    15.999
    3483      oh       1    MUSC   O00Zj       1     -0.95    15.999
    3484      oh       1    MUSC   O00Zk       1     -0.95    15.999
    3485      ob       1    MUSC   O00Zl       1     -1.05    15.999
    3486      ob       1    MUSC   O00Zm       1     -1.05    15.999
    3487      ob       1    MUSC   O00Zn       1     -1.05    15.999
    3488      ob       1    MUSC   O00Zo       1     -1.05    15.999
    3489      ob       1    MUSC   O00Zp       1     -1.05    15.999
    3490      ob       1    MUSC   O00Zq       1     -1.05    15.999
    3491      ob       1    MUSC   O00Zr       1     -1.05    15.999
    3492      ob       1    MUSC   O00Zs       1     -1.05    15.999
    3493      ob       1    MUSC   O00Zt       1     -1.05    15.999
    3494      ob       1    MUSC   O00Zu       1     -1.05    15.999
    3495      ob       1    MUSC   O00Zv       1     -1.05    15.999
    3496      ob       1    MUSC   O00Zw       1     -1.05    15.999
    3497      ob       1    MUSC   O00Zx       1     -1.05    15.999
    3498      ob       1    MUSC   O00Zy       1     -1.05    15.999
    3499      ob       1    MUSC   O00Zz       1     -1.05    15.999
    3500      ob       1    MUSC   O00a0       1     -1.05    15.999
    3501      ob       1    MUSC   O00a1       1     -1.05    15.999
    3502      ob       1    MUSC   O00a2       1     -1.05    15.999
    3503      ob       1    MUSC   O00a3       1     -1.05    15.999
    3504      ob       1    MUSC   O00a4       1     -1.05    15.999
    3505      oh       1    MUSC   O00a5       1     -0.95    15.999
    3506      oh       1    MUSC   O00a6       1     -0.95    15.999
    3507      oh       1    MUSC   O00a7       1     -0.95    15.999
    3508      oh       1    MUSC   O00a8       1     -0.95    15.999
    3509      ob       1    MUSC   O00a9       1     -1.05    15.999
    3510      ob       1    MUSC   O00aA       1     -1.05    15.999
    3511      ob       1    MUSC   O00aB       1     -1.05    15.999
    3512      ob       1    MUSC   O00aC       1     -1.05    15.999
    3513      ob       1    MUSC   O00aD       1     -1.05    15.999
    3514      ob       1    MUSC   O00aE       1     -1.05    15.999
    3515      ob       1    MUSC   O00aF       1     -1.05    15.999
    3516      ob       1    MUSC   O00aG       1     -1.05    15.999
    3517      ob       1    MUSC   O00aH       1     -1.05    15.999
    3518      ob       1    MUSC   O00aI       1     -1.05    15.999
    3519      ob       1    MUSC   O00aJ       1     -1.05    15.999
    3520      ob       1    MUSC   O00aK       1     -1.05    15.999
    3521      ob       1    MUSC   O00aL       1     -1.05    15.999
    3522      ob       1    MUSC   O00aM       1     -1.05    15.999
    3523      ob       1    MUSC   O00aN       1     -1.05    15.999
    3524      ob       1    MUSC   O00aO       1     -1.05    15.999
    3525       K       1    MUSC   K002H       1       1.0    39.098
    3526       K       1    MUSC   K002I       1       1.0    39.098
    3527       K       1    MUSC   K002J       1       1.0    39.098
    3528       K       1    MUSC   K002K       1       1.0    39.098
    3529      ao       1    MUSC   Al065       1     1.575    26.982
    3530      ao       1    MUSC   Al066       1     1.575    26.982
    3531      ao       1    MUSC   Al067       1     1.575    26.982
    3532      ao       1    MUSC   Al068       1     1.575    26.982
    3533      ao       1    MUSC   Al069       1     1.575    26.982
    3534      ao       1    MUSC   Al06A       1     1.575    26.982
    3535      ao       1    MUSC   Al06B       1     1.575    26.982
    3536      ao       1    MUSC   Al06C       1     1.575    26.982
    3537      st       1    MUSC   Si0C9       1       2.1    28.086
    3538      st       1    MUSC   Si0CA       1       2.1    28.086
    3539      st       1    MUSC   Si0CB       1       2.1    28.086
    3540      st       1    MUSC   Si0CC       1       2.1    28.086
    3541      st       1    MUSC   Si0CD       1       2.1    28.086
    3542      st       1    MUSC   Si0CE       1       2.1    28.086
    3543      st       1    MUSC   Si0CF       1       2.1    28.086
    3544      st       1    MUSC   Si0CG       1       2.1    28.086
    3545      st       1    MUSC   Si0CH       1       2.1    28.086
    3546      st       1    MUSC   Si0CI       1       2.1    28.086
    3547      st       1    MUSC   Si0CJ       1       2.1    28.086
    3548      st       1    MUSC   Si0CK       1       2.1    28.086
    3549      st       1    MUSC   Si0CL       1       2.1    28.086
    3550      st       1    MUSC   Si0CM       1       2.1    28.086
    3551      st       1    MUSC   Si0CN       1       2.1    28.086
    3552      st       1    MUSC   Si0CO       1       2.1    28.086
    3553      ob       1    MUSC   O00aP       1     -1.05    15.999
    3554      ob       1    MUSC   O00aQ       1     -1.05    15.999
    3555      ob       1    MUSC   O00aR       1     -1.05    15.999
    3556      ob       1    MUSC   O00aS       1     -1.05    15.999
    3557      oh       1    MUSC   O00aT       1     -0.95    15.999
    3558      oh       1    MUSC   O00aU       1     -0.95    15.999
    3559      oh       1    MUSC   O00aV       1     -0.95    15.999
    3560      oh       1    MUSC   O00aW       1     -0.95    15.999
    3561      ob       1    MUSC   O00aX       1     -1.05    15.999
    3562      ob       1    MUSC   O00aY       1     -1.05    15.999
    3563      ob       1    MUSC   O00aZ       1     -1.05    15.999
    3564      ob       1    MUSC   O00aa       1     -1.05    15.999
    3565      ob       1    MUSC   O00ab       1     -1.05    15.999
    3566      ob       1    MUSC   O00ac       1     -1.05    15.999
    3567      ob       1    MUSC   O00ad       1     -1.05    15.999
    3568      ob       1    MUSC   O00ae       1     -1.05    15.999
    3569      ob       1    MUSC   O00af       1     -1.05    15.999
    3570      ob       1    MUSC   O00ag       1     -1.05    15.999
    3571      ob       1    MUSC   O00ah       1     -1.05    15.999
    3572      ob       1    MUSC   O00ai       1     -1.05    15.999
    3573      ob       1    MUSC   O00aj       1     -1.05    15.999
    3574      ob       1    MUSC   O00ak       1     -1.05    15.999
    3575      ob       1    MUSC   O00al       1     -1.05    15.999
    3576      ob       1    MUSC   O00am       1     -1.05    15.999
    3577      ob       1    MUSC   O00an       1     -1.05    15.999
    3578      ob       1    MUSC   O00ao       1     -1.05    15.999
    3579      ob       1    MUSC   O00ap       1     -1.05    15.999
    3580      ob       1    MUSC   O00aq       1     -1.05    15.999
    3581      oh       1    MUSC   O00ar       1     -0.95    15.999
    3582      oh       1    MUSC   O00as       1     -0.95    15.999
    3583      oh       1    MUSC   O00at       1     -0.95    15.999
    3584      oh       1    MUSC   O00au       1     -0.95    15.999
    3585      ob       1    MUSC   O00av       1     -1.05    15.999
    3586      ob       1    MUSC   O00aw       1     -1.05    15.999
    3587      ob       1    MUSC   O00ax       1     -1.05    15.999
    3588      ob       1    MUSC   O00ay       1     -1.05    15.999
    3589      ob       1    MUSC   O00az       1     -1.05    15.999
    3590      ob       1    MUSC   O00b0       1     -1.05    15.999
    3591      ob       1    MUSC   O00b1       1     -1.05    15.999
    3592      ob       1    MUSC   O00b2       1     -1.05    15.999
    3593      ob       1    MUSC   O00b3       1     -1.05    15.999
    3594      ob       1    MUSC   O00b4       1     -1.05    15.999
    3595      ob       1    MUSC   O00b5       1     -1.05    15.999
    3596      ob       1    MUSC   O00b6       1     -1.05    15.999
    3597      ob       1    MUSC   O00b7       1     -1.05    15.999
    3598      ob       1    MUSC   O00b8       1     -1.05    15.999
    3599      ob       1    MUSC   O00b9       1     -1.05    15.999
    3600      ob       1    MUSC   O00bA       1     -1.05    15.999
    3601       K       1    MUSC   K002L       1       1.0    39.098
    3602       K       1    MUSC   K002M       1       1.0    39.098
    3603      ao       1    MUSC   Al06D       1     1.575    26.982
    3604      ao       1    MUSC   Al06E       1     1.575    26.982
    3605      ao       1    MUSC   Al06F       1     1.575    26.982
    3606      ao       1    MUSC   Al06G       1     1.575    26.982
    3607      ao       1    MUSC   Al06H       1     1.575    26.982
    3608      ao       1    MUSC   Al06I       1     1.575    26.982
    3609      ao       1    MUSC   Al06J       1     1.575    26.982
    3610      ao       1    MUSC   Al06K       1     1.575    26.982
    3611      st       1    MUSC   Si0CP       1       2.1    28.086
    3612      st       1    MUSC   Si0CQ       1       2.1    28.086
    3613      st       1    MUSC   Si0CR       1       2.1    28.086
    3614      st       1    MUSC   Si0CS       1       2.1    28.086
    3615      st       1    MUSC   Si0CT       1       2.1    28.086
    3616      st       1    MUSC   Si0CU       1       2.1    28.086
    3617      st       1    MUSC   Si0CV       1       2.1    28.086
    3618      st       1    MUSC   Si0CW       1       2.1    28.086
    3619      st       1    MUSC   Si0CX       1       2.1    28.086
    3620      st       1    MUSC   Si0CY       1       2.1    28.086
    3621      st       1    MUSC   Si0CZ       1       2.1    28.086
    3622      st       1    MUSC   Si0Ca       1       2.1    28.086
    3623      st       1    MUSC   Si0Cb       1       2.1    28.086
    3624      st       1    MUSC   Si0Cc       1       2.1    28.086
    3625      st       1    MUSC   Si0Cd       1       2.1    28.086
    3626      st       1    MUSC   Si0Ce       1       2.1    28.086
    3627      ob       1    MUSC   O00bB       1     -1.05    15.999
    3628      ob       1    MUSC   O00bC       1     -1.05    15.999
    3629      ob       1    MUSC   O00bD       1     -1.05    15.999
    3630      ob       1    MUSC   O00bE       1     -1.05    15.999
    3631      oh       1    MUSC   O00bF       1     -0.95    15.999
    3632      oh       1    MUSC   O00bG       1     -0.95    15.999
    3633      oh       1    MUSC   O00bH       1     -0.95    15.999
    3634      oh       1    MUSC   O00bI       1     -0.95    15.999
    3635      ob       1    MUSC   O00bJ       1     -1.05    15.999
    3636      ob       1    MUSC   O00bK       1     -1.05    15.999
    3637      ob       1    MUSC   O00bL       1     -1.05    15.999
    3638      ob       1    MUSC   O00bM       1     -1.05    15.999
    3639      ob       1    MUSC   O00bN       1     -1.05    15.999
    3640      ob       1    MUSC   O00bO       1     -1.05    15.999
    3641      ob       1    MUSC   O00bP       1     -1.05    15.999
    3642      ob       1    MUSC   O00bQ       1     -1.05    15.999
    3643      ob       1    MUSC   O00bR       1     -1.05    15.999
    3644      ob       1    MUSC   O00bS       1     -1.05    15.999
    3645      ob       1    MUSC   O00bT       1     -1.05    15.999
    3646      ob       1    MUSC   O00bU       1     -1.05    15.999
    3647      ob       1    MUSC   O00bV       1     -1.05    15.999
    3648      ob       1    MUSC   O00bW       1     -1.05    15.999
    3649      ob       1    MUSC   O00bX       1     -1.05    15.999
    3650      ob       1    MUSC   O00bY       1     -1.05    15.999
    3651      ob       1    MUSC   O00bZ       1     -1.05    15.999
    3652      ob       1    MUSC   O00ba       1     -1.05    15.999
    3653      ob       1    MUSC   O00bb       1     -1.05    15.999
    3654      ob       1    MUSC   O00bc       1     -1.05    15.999
    3655      oh       1    MUSC   O00bd       1     -0.95    15.999
    3656      oh       1    MUSC   O00be       1     -0.95    15.999
    3657      oh       1    MUSC   O00bf       1     -0.95    15.999
    3658      oh       1    MUSC   O00bg       1     -0.95    15.999
    3659      ob       1    MUSC   O00bh       1     -1.05    15.999
    3660      ob       1    MUSC   O00bi       1     -1.05    15.999
    3661      ob       1    MUSC   O00bj       1     -1.05    15.999
    3662      ob       1    MUSC   O00bk       1     -1.05    15.999
    3663      ob       1    MUSC   O00bl       1     -1.05    15.999
    3664      ob       1    MUSC   O00bm       1     -1.05    15.999
    3665      ob       1    MUSC   O00bn       1     -1.05    15.999
    3666      ob       1    MUSC   O00bo       1     -1.05    15.999
    3667      ob       1    MUSC   O00bp       1     -1.05    15.999
    3668      ob       1    MUSC   O00bq       1     -1.05    15.999
    3669      ob       1    MUSC   O00br       1     -1.05    15.999
    3670      ob       1    MUSC   O00bs       1     -1.05    15.999
    3671      ob       1    MUSC   O00bt       1     -1.05    15.999
    3672      ob       1    MUSC   O00bu       1     -1.05    15.999
    3673      ob       1    MUSC   O00bv       1     -1.05    15.999
    3674      ob       1    MUSC   O00bw       1     -1.05    15.999
    3675       K       1    MUSC   K002N       1       1.0    39.098
    3676       K       1    MUSC   K002O       1       1.0    39.098
    3677       K       1    MUSC   K002P       1       1.0    39.098
    3678       K       1    MUSC   K002Q       1       1.0    39.098
    3679      ao       1    MUSC   Al06L       1     1.575    26.982
    3680      ao       1    MUSC   Al06M       1     1.575    26.982
    3681      ao       1    MUSC   Al06N       1     1.575    26.982
    3682      ao       1    MUSC   Al06O       1     1.575    26.982
    3683      ao       1    MUSC   Al06P       1     1.575    26.982
    3684      ao       1    MUSC   Al06Q       1     1.575    26.982
    3685      ao       1    MUSC   Al06R       1     1.575    26.982
    3686      ao       1    MUSC   Al06S       1     1.575    26.982
    3687      st       1    MUSC   Si0Cf       1       2.1    28.086
    3688      st       1    MUSC   Si0Cg       1       2.1    28.086
    3689      st       1    MUSC   Si0Ch       1       2.1    28.086
    3690      st       1    MUSC   Si0Ci       1       2.1    28.086
    3691      st       1    MUSC   Si0Cj       1       2.1    28.086
    3692      st       1    MUSC   Si0Ck       1       2.1    28.086
    3693      st       1    MUSC   Si0Cl       1       2.1    28.086
    3694      st       1    MUSC   Si0Cm       1       2.1    28.086
    3695      st       1    MUSC   Si0Cn       1       2.1    28.086
    3696      st       1    MUSC   Si0Co       1       2.1    28.086
    3697      st       1    MUSC   Si0Cp       1       2.1    28.086
    3698      st       1    MUSC   Si0Cq       1       2.1    28.086
    3699      st       1    MUSC   Si0Cr       1       2.1    28.086
    3700      st       1    MUSC   Si0Cs       1       2.1    28.086
    3701      st       1    MUSC   Si0Ct       1       2.1    28.086
    3702      st       1    MUSC   Si0Cu       1       2.1    28.086
    3703      ob       1    MUSC   O00bx       1     -1.05    15.999
    3704      ob       1    MUSC   O00by       1     -1.05    15.999
    3705      ob       1    MUSC   O00bz       1     -1.05    15.999
    3706      ob       1    MUSC   O00c0       1     -1.05    15.999
    3707      oh       1    MUSC   O00c1       1     -0.95    15.999
    3708      oh       1    MUSC   O00c2       1     -0.95    15.999
    3709      oh       1    MUSC   O00c3       1     -0.95    15.999
    3710      oh       1    MUSC   O00c4       1     -0.95    15.999
    3711      ob       1    MUSC   O00c5       1     -1.05    15.999
    3712      ob       1    MUSC   O00c6       1     -1.05    15.999
    3713      ob       1    MUSC   O00c7       1     -1.05    15.999
    3714      ob       1    MUSC   O00c8       1     -1.05    15.999
    3715      ob       1    MUSC   O00c9       1     -1.05    15.999
    3716      ob       1    MUSC   O00cA       1     -1.05    15.999
    3717      ob       1    MUSC   O00cB       1     -1.05    15.999
    3718      ob       1    MUSC   O00cC       1     -1.05    15.999
    3719      ob       1    MUSC   O00cD       1     -1.05    15.999
    3720      ob       1    MUSC   O00cE       1     -1.05    15.999
    3721      ob       1    MUSC   O00cF       1     -1.05    15.999
    3722      ob       1    MUSC   O00cG       1     -1.05    15.999
    3723      ob       1    MUSC   O00cH       1     -1.05    15.999
    3724      ob       1    MUSC   O00cI       1     -1.05    15.999
    3725      ob       1    MUSC   O00cJ       1     -1.05    15.999
    3726      ob       1    MUSC   O00cK       1     -1.05    15.999
    3727      ob       1    MUSC   O00cL       1     -1.05    15.999
    3728      ob       1    MUSC   O00cM       1     -1.05    15.999
    3729      ob       1    MUSC   O00cN       1     -1.05    15.999
    3730      ob       1    MUSC   O00cO       1     -1.05    15.999
    3731      oh       1    MUSC   O00cP       1     -0.95    15.999
    3732      oh       1    MUSC   O00cQ       1     -0.95    15.999
    3733      oh       1    MUSC   O00cR       1     -0.95    15.999
    3734      oh       1    MUSC   O00cS       1     -0.95    15.999
    3735      ob       1    MUSC   O00cT       1     -1.05    15.999
    3736      ob       1    MUSC   O00cU       1     -1.05    15.999
    3737      ob       1    MUSC   O00cV       1     -1.05    15.999
    3738      ob       1    MUSC   O00cW       1     -1.05    15.999
    3739      ob       1    MUSC   O00cX       1     -1.05    15.999
    3740      ob       1    MUSC   O00cY       1     -1.05    15.999
    3741      ob       1    MUSC   O00cZ       1     -1.05    15.999
    3742      ob       1    MUSC   O00ca       1     -1.05    15.999
    3743      ob       1    MUSC   O00cb       1     -1.05    15.999
    3744      ob       1    MUSC   O00cc       1     -1.05    15.999
    3745      ob       1    MUSC   O00cd       1     -1.05    15.999
    3746      ob       1    MUSC   O00ce       1     -1.05    15.999
    3747      ob       1    MUSC   O00cf       1     -1.05    15.999
    3748      ob       1    MUSC   O00cg       1     -1.05    15.999
    3749      ob       1    MUSC   O00ch       1     -1.05    15.999
    3750      ob       1    MUSC   O00ci       1     -1.05    15.999
    3751       K       1    MUSC   K002R       1       1.0    39.098
    3752       K       1    MUSC   K002S       1       1.0    39.098
    3753      ao       1    MUSC   Al06T       1     1.575    26.982
    3754      ao       1    MUSC   Al06U       1     1.575    26.982
    3755      ao       1    MUSC   Al06V       1     1.575    26.982
    3756      ao       1    MUSC   Al06W       1     1.575    26.982
    3757      ao       1    MUSC   Al06X       1     1.575    26.982
    3758      ao       1    MUSC   Al06Y       1     1.575    26.982
    3759      ao       1    MUSC   Al06Z       1     1.575    26.982
    3760      ao       1    MUSC   Al06a       1     1.575    26.982
    3761      st       1    MUSC   Si0Cv       1       2.1    28.086
    3762      st       1    MUSC   Si0Cw       1       2.1    28.086
    3763      st       1    MUSC   Si0Cx       1       2.1    28.086
    3764      st       1    MUSC   Si0Cy       1       2.1    28.086
    3765      st       1    MUSC   Si0Cz       1       2.1    28.086
    3766      st       1    MUSC   Si0D0       1       2.1    28.086
    3767      st       1    MUSC   Si0D1       1       2.1    28.086
    3768      st       1    MUSC   Si0D2       1       2.1    28.086
    3769      st       1    MUSC   Si0D3       1       2.1    28.086
    3770      st       1    MUSC   Si0D4       1       2.1    28.086
    3771      st       1    MUSC   Si0D5       1       2.1    28.086
    3772      st       1    MUSC   Si0D6       1       2.1    28.086
    3773      st       1    MUSC   Si0D7       1       2.1    28.086
    3774      st       1    MUSC   Si0D8       1       2.1    28.086
    3775      st       1    MUSC   Si0D9       1       2.1    28.086
    3776      st       1    MUSC   Si0DA       1       2.1    28.086
    3777      ob       1    MUSC   O00cj       1     -1.05    15.999
    3778      ob       1    MUSC   O00ck       1     -1.05    15.999
    3779      ob       1    MUSC   O00cl       1     -1.05    15.999
    3780      ob       1    MUSC   O00cm       1     -1.05    15.999
    3781      oh       1    MUSC   O00cn       1     -0.95    15.999
    3782      oh       1    MUSC   O00co       1     -0.95    15.999
    3783      oh       1    MUSC   O00cp       1     -0.95    15.999
    3784      oh       1    MUSC   O00cq       1     -0.95    15.999
    3785      ob       1    MUSC   O00cr       1     -1.05    15.999
    3786      ob       1    MUSC   O00cs       1     -1.05    15.999
    3787      ob       1    MUSC   O00ct       1     -1.05    15.999
    3788      ob       1    MUSC   O00cu       1     -1.05    15.999
    3789      ob       1    MUSC   O00cv       1     -1.05    15.999
    3790      ob       1    MUSC   O00cw       1     -1.05    15.999
    3791      ob       1    MUSC   O00cx       1     -1.05    15.999
    3792      ob       1    MUSC   O00cy       1     -1.05    15.999
    3793      ob       1    MUSC   O00cz       1     -1.05    15.999
    3794      ob       1    MUSC   O00d0       1     -1.05    15.999
    3795      ob       1    MUSC   O00d1       1     -1.05    15.999
    3796      ob       1    MUSC   O00d2       1     -1.05    15.999
    3797      ob       1    MUSC   O00d3       1     -1.05    15.999
    3798      ob       1    MUSC   O00d4       1     -1.05    15.999
    3799      ob       1    MUSC   O00d5       1     -1.05    15.999
    3800      ob       1    MUSC   O00d6       1     -1.05    15.999
    3801      ob       1    MUSC   O00d7       1     -1.05    15.999
    3802      ob       1    MUSC   O00d8       1     -1.05    15.999
    3803      ob       1    MUSC   O00d9       1     -1.05    15.999
    3804      ob       1    MUSC   O00dA       1     -1.05    15.999
    3805      oh       1    MUSC   O00dB       1     -0.95    15.999
    3806      oh       1    MUSC   O00dC       1     -0.95    15.999
    3807      oh       1    MUSC   O00dD       1     -0.95    15.999
    3808      oh       1    MUSC   O00dE       1     -0.95    15.999
    3809      ob       1    MUSC   O00dF       1     -1.05    15.999
    3810      ob       1    MUSC   O00dG       1     -1.05    15.999
    3811      ob       1    MUSC   O00dH       1     -1.05    15.999
    3812      ob       1    MUSC   O00dI       1     -1.05    15.999
    3813      ob       1    MUSC   O00dJ       1     -1.05    15.999
    3814      ob       1    MUSC   O00dK       1     -1.05    15.999
    3815      ob       1    MUSC   O00dL       1     -1.05    15.999
    3816      ob       1    MUSC   O00dM       1     -1.05    15.999
    3817      ob       1    MUSC   O00dN       1     -1.05    15.999
    3818      ob       1    MUSC   O00dO       1     -1.05    15.999
    3819      ob       1    MUSC   O00dP       1     -1.05    15.999
    3820      ob       1    MUSC   O00dQ       1     -1.05    15.999
    3821      ob       1    MUSC   O00dR       1     -1.05    15.999
    3822      ob       1    MUSC   O00dS       1     -1.05    15.999
    3823      ob       1    MUSC   O00dT       1     -1.05    15.999
    3824      ob       1    MUSC   O00dU       1     -1.05    15.999
    3825       K       1    MUSC   K002T       1       1.0    39.098
    3826       K       1    MUSC   K002U       1       1.0    39.098
    3827       K       1    MUSC   K002V       1       1.0    39.098
    3828       K       1    MUSC   K002W       1       1.0    39.098
    3829      ao       1    MUSC   Al06b       1     1.575    26.982
    3830      ao       1    MUSC   Al06c       1     1.575    26.982
    3831      ao       1    MUSC   Al06d       1     1.575    26.982
    3832      ao       1    MUSC   Al06e       1     1.575    26.982
    3833      ao       1    MUSC   Al06f       1     1.575    26.982
    3834      ao       1    MUSC   Al06g       1     1.575    26.982
    3835      ao       1    MUSC   Al06h       1     1.575    26.982
    3836      ao       1    MUSC   Al06i       1     1.575    26.982
    3837      st       1    MUSC   Si0DB       1       2.1    28.086
    3838      st       1    MUSC   Si0DC       1       2.1    28.086
    3839      st       1    MUSC   Si0DD       1       2.1    28.086
    3840      st       1    MUSC   Si0DE       1       2.1    28.086
    3841      st       1    MUSC   Si0DF       1       2.1    28.086
    3842      st       1    MUSC   Si0DG       1       2.1    28.086
    3843      st       1    MUSC   Si0DH       1       2.1    28.086
    3844      st       1    MUSC   Si0DI       1       2.1    28.086
    3845      st       1    MUSC   Si0DJ       1       2.1    28.086
    3846      st       1    MUSC   Si0DK       1       2.1    28.086
    3847      st       1    MUSC   Si0DL       1       2.1    28.086
    3848      st       1    MUSC   Si0DM       1       2.1    28.086
    3849      st       1    MUSC   Si0DN       1       2.1    28.086
    3850      st       1    MUSC   Si0DO       1       2.1    28.086
    3851      st       1    MUSC   Si0DP       1       2.1    28.086
    3852      st       1    MUSC   Si0DQ       1       2.1    28.086
    3853      ob       1    MUSC   O00dV       1     -1.05    15.999
    3854      ob       1    MUSC   O00dW       1     -1.05    15.999
    3855      ob       1    MUSC   O00dX       1     -1.05    15.999
    3856      ob       1    MUSC   O00dY       1     -1.05    15.999
    3857      oh       1    MUSC   O00dZ       1     -0.95    15.999
    3858      oh       1    MUSC   O00da       1     -0.95    15.999
    3859      oh       1    MUSC   O00db       1     -0.95    15.999
    3860      oh       1    MUSC   O00dc       1     -0.95    15.999
    3861      ob       1    MUSC   O00dd       1     -1.05    15.999
    3862      ob       1    MUSC   O00de       1     -1.05    15.999
    3863      ob       1    MUSC   O00df       1     -1.05    15.999
    3864      ob       1    MUSC   O00dg       1     -1.05    15.999
    3865      ob       1    MUSC   O00dh       1     -1.05    15.999
    3866      ob       1    MUSC   O00di       1     -1.05    15.999
    3867      ob       1    MUSC   O00dj       1     -1.05    15.999
    3868      ob       1    MUSC   O00dk       1     -1.05    15.999
    3869      ob       1    MUSC   O00dl       1     -1.05    15.999
    3870      ob       1    MUSC   O00dm       1     -1.05    15.999
    3871      ob       1    MUSC   O00dn       1     -1.05    15.999
    3872      ob       1    MUSC   O00do       1     -1.05    15.999
    3873      ob       1    MUSC   O00dp       1     -1.05    15.999
    3874      ob       1    MUSC   O00dq       1     -1.05    15.999
    3875      ob       1    MUSC   O00dr       1     -1.05    15.999
    3876      ob       1    MUSC   O00ds       1     -1.05    15.999
    3877      ob       1    MUSC   O00dt       1     -1.05    15.999
    3878      ob       1    MUSC   O00du       1     -1.05    15.999
    3879      ob       1    MUSC   O00dv       1     -1.05    15.999
    3880      ob       1    MUSC   O00dw       1     -1.05    15.999
    3881      oh       1    MUSC   O00dx       1     -0.95    15.999
    3882      oh       1    MUSC   O00dy       1     -0.95    15.999
    3883      oh       1    MUSC   O00dz       1     -0.95    15.999
    3884      oh       1    MUSC   O00e0       1     -0.95    15.999
    3885      ob       1    MUSC   O00e1       1     -1.05    15.999
    3886      ob       1    MUSC   O00e2       1     -1.05    15.999
    3887      ob       1    MUSC   O00e3       1     -1.05    15.999
    3888      ob       1    MUSC   O00e4       1     -1.05    15.999
    3889      ob       1    MUSC   O00e5       1     -1.05    15.999
    3890      ob       1    MUSC   O00e6       1     -1.05    15.999
    3891      ob       1    MUSC   O00e7       1     -1.05    15.999
    3892      ob       1    MUSC   O00e8       1     -1.05    15.999
    3893      ob       1    MUSC   O00e9       1     -1.05    15.999
    3894      ob       1    MUSC   O00eA       1     -1.05    15.999
    3895      ob       1    MUSC   O00eB       1     -1.05    15.999
    3896      ob       1    MUSC   O00eC       1     -1.05    15.999
    3897      ob       1    MUSC   O00eD       1     -1.05    15.999
    3898      ob       1    MUSC   O00eE       1     -1.05    15.999
    3899      ob       1    MUSC   O00eF       1     -1.05    15.999
    3900      ob       1    MUSC   O00eG       1     -1.05    15.999
    3901       K       1    MUSC   K002X       1       1.0    39.098
    3902       K       1    MUSC   K002Y       1       1.0    39.098
    3903      ao       1    MUSC   Al06j       1     1.575    26.982
    3904      ao       1    MUSC   Al06k       1     1.575    26.982
    3905      ao       1    MUSC   Al06l       1     1.575    26.982
    3906      ao       1    MUSC   Al06m       1     1.575    26.982
    3907      ao       1    MUSC   Al06n       1     1.575    26.982
    3908      ao       1    MUSC   Al06o       1     1.575    26.982
    3909      ao       1    MUSC   Al06p       1     1.575    26.982
    3910      ao       1    MUSC   Al06q       1     1.575    26.982
    3911      st       1    MUSC   Si0DR       1       2.1    28.086
    3912      st       1    MUSC   Si0DS       1       2.1    28.086
    3913      st       1    MUSC   Si0DT       1       2.1    28.086
    3914      st       1    MUSC   Si0DU       1       2.1    28.086
    3915      st       1    MUSC   Si0DV       1       2.1    28.086
    3916      st       1    MUSC   Si0DW       1       2.1    28.086
    3917      st       1    MUSC   Si0DX       1       2.1    28.086
    3918      st       1    MUSC   Si0DY       1       2.1    28.086
    3919      st       1    MUSC   Si0DZ       1       2.1    28.086
    3920      st       1    MUSC   Si0Da       1       2.1    28.086
    3921      st       1    MUSC   Si0Db       1       2.1    28.086
    3922      st       1    MUSC   Si0Dc       1       2.1    28.086
    3923      st       1    MUSC   Si0Dd       1       2.1    28.086
    3924      st       1    MUSC   Si0De       1       2.1    28.086
    3925      st       1    MUSC   Si0Df       1       2.1    28.086
    3926      st       1    MUSC   Si0Dg       1       2.1    28.086
    3927      ob       1    MUSC   O00eH       1     -1.05    15.999
    3928      ob       1    MUSC   O00eI       1     -1.05    15.999
    3929      ob       1    MUSC   O00eJ       1     -1.05    15.999
    3930      ob       1    MUSC   O00eK       1     -1.05    15.999
    3931      oh       1    MUSC   O00eL       1     -0.95    15.999
    3932      oh       1    MUSC   O00eM       1     -0.95    15.999
    3933      oh       1    MUSC   O00eN       1     -0.95    15.999
    3934      oh       1    MUSC   O00eO       1     -0.95    15.999
    3935      ob       1    MUSC   O00eP       1     -1.05    15.999
    3936      ob       1    MUSC   O00eQ       1     -1.05    15.999
    3937      ob       1    MUSC   O00eR       1     -1.05    15.999
    3938      ob       1    MUSC   O00eS       1     -1.05    15.999
    3939      ob       1    MUSC   O00eT       1     -1.05    15.999
    3940      ob       1    MUSC   O00eU       1     -1.05    15.999
    3941      ob       1    MUSC   O00eV       1     -1.05    15.999
    3942      ob       1    MUSC   O00eW       1     -1.05    15.999
    3943      ob       1    MUSC   O00eX       1     -1.05    15.999
    3944      ob       1    MUSC   O00eY       1     -1.05    15.999
    3945      ob       1    MUSC   O00eZ       1     -1.05    15.999
    3946      ob       1    MUSC   O00ea       1     -1.05    15.999
    3947      ob       1    MUSC   O00eb       1     -1.05    15.999
    3948      ob       1    MUSC   O00ec       1     -1.05    15.999
    3949      ob       1    MUSC   O00ed       1     -1.05    15.999
    3950      ob       1    MUSC   O00ee       1     -1.05    15.999
    3951      ob       1    MUSC   O00ef       1     -1.05    15.999
    3952      ob       1    MUSC   O00eg       1     -1.05    15.999
    3953      ob       1    MUSC   O00eh       1     -1.05    15.999
    3954      ob       1    MUSC   O00ei       1     -1.05    15.999
    3955      oh       1    MUSC   O00ej       1     -0.95    15.999
    3956      oh       1    MUSC   O00ek       1     -0.95    15.999
    3957      oh       1    MUSC   O00el       1     -0.95    15.999
    3958      oh       1    MUSC   O00em       1     -0.95    15.999
    3959      ob       1    MUSC   O00en       1     -1.05    15.999
    3960      ob       1    MUSC   O00eo       1     -1.05    15.999
    3961      ob       1    MUSC   O00ep       1     -1.05    15.999
    3962      ob       1    MUSC   O00eq       1     -1.05    15.999
    3963      ob       1    MUSC   O00er       1     -1.05    15.999
    3964      ob       1    MUSC   O00es       1     -1.05    15.999
    3965      ob       1    MUSC   O00et       1     -1.05    15.999
    3966      ob       1    MUSC   O00eu       1     -1.05    15.999
    3967      ob       1    MUSC   O00ev       1     -1.05    15.999
    3968      ob       1    MUSC   O00ew       1     -1.05    15.999
    3969      ob       1    MUSC   O00ex       1     -1.05    15.999
    3970      ob       1    MUSC   O00ey       1     -1.05    15.999
    3971      ob       1    MUSC   O00ez       1     -1.05    15.999
    3972      ob       1    MUSC   O00f0       1     -1.05    15.999
    3973      ob       1    MUSC   O00f1       1     -1.05    15.999
    3974      ob       1    MUSC   O00f2       1     -1.05    15.999
    3975       K       1    MUSC   K002Z       1       1.0    39.098
    3976       K       1    MUSC   K002a       1       1.0    39.098
    3977       K       1    MUSC   K002b       1       1.0    39.098
    3978       K       1    MUSC   K002c       1       1.0    39.098
    3979      ao       1    MUSC   Al06r       1     1.575    26.982
    3980      ao       1    MUSC   Al06s       1     1.575    26.982
    3981      ao       1    MUSC   Al06t       1     1.575    26.982
    3982      ao       1    MUSC   Al06u       1     1.575    26.982
    3983      ao       1    MUSC   Al06v       1     1.575    26.982
    3984      ao       1    MUSC   Al06w       1     1.575    26.982
    3985      ao       1    MUSC   Al06x       1     1.575    26.982
    3986      ao       1    MUSC   Al06y       1     1.575    26.982
    3987      st       1    MUSC   Si0Dh       1       2.1    28.086
    3988      st       1    MUSC   Si0Di       1       2.1    28.086
    3989      st       1    MUSC   Si0Dj       1       2.1    28.086
    3990      st       1    MUSC   Si0Dk       1       2.1    28.086
    3991      st       1    MUSC   Si0Dl       1       2.1    28.086
    3992      st       1    MUSC   Si0Dm       1       2.1    28.086
    3993      st       1    MUSC   Si0Dn       1       2.1    28.086
    3994      st       1    MUSC   Si0Do       1       2.1    28.086
    3995      st       1    MUSC   Si0Dp       1       2.1    28.086
    3996      st       1    MUSC   Si0Dq       1       2.1    28.086
    3997      st       1    MUSC   Si0Dr       1       2.1    28.086
    3998      st       1    MUSC   Si0Ds       1       2.1    28.086
    3999      st       1    MUSC   Si0Dt       1       2.1    28.086
    4000      st       1    MUSC   Si0Du       1       2.1    28.086
    4001      st       1    MUSC   Si0Dv       1       2.1    28.086
    4002      st       1    MUSC   Si0Dw       1       2.1    28.086
    4003      ob       1    MUSC   O00f3       1     -1.05    15.999
    4004      ob       1    MUSC   O00f4       1     -1.05    15.999
    4005      ob       1    MUSC   O00f5       1     -1.05    15.999
    4006      ob       1    MUSC   O00f6       1     -1.05    15.999
    4007      oh       1    MUSC   O00f7       1     -0.95    15.999
    4008      oh       1    MUSC   O00f8       1     -0.95    15.999
    4009      oh       1    MUSC   O00f9       1     -0.95    15.999
    4010      oh       1    MUSC   O00fA       1     -0.95    15.999
    4011      ob       1    MUSC   O00fB       1     -1.05    15.999
    4012      ob       1    MUSC   O00fC       1     -1.05    15.999
    4013      ob       1    MUSC   O00fD       1     -1.05    15.999
    4014      ob       1    MUSC   O00fE       1     -1.05    15.999
    4015      ob       1    MUSC   O00fF       1     -1.05    15.999
    4016      ob       1    MUSC   O00fG       1     -1.05    15.999
    4017      ob       1    MUSC   O00fH       1     -1.05    15.999
    4018      ob       1    MUSC   O00fI       1     -1.05    15.999
    4019      ob       1    MUSC   O00fJ       1     -1.05    15.999
    4020      ob       1    MUSC   O00fK       1     -1.05    15.999
    4021      ob       1    MUSC   O00fL       1     -1.05    15.999
    4022      ob       1    MUSC   O00fM       1     -1.05    15.999
    4023      ob       1    MUSC   O00fN       1     -1.05    15.999
    4024      ob       1    MUSC   O00fO       1     -1.05    15.999
    4025      ob       1    MUSC   O00fP       1     -1.05    15.999
    4026      ob       1    MUSC   O00fQ       1     -1.05    15.999
    4027      ob       1    MUSC   O00fR       1     -1.05    15.999
    4028      ob       1    MUSC   O00fS       1     -1.05    15.999
    4029      ob       1    MUSC   O00fT       1     -1.05    15.999
    4030      ob       1    MUSC   O00fU       1     -1.05    15.999
    4031      oh       1    MUSC   O00fV       1     -0.95    15.999
    4032      oh       1    MUSC   O00fW       1     -0.95    15.999
    4033      oh       1    MUSC   O00fX       1     -0.95    15.999
    4034      oh       1    MUSC   O00fY       1     -0.95    15.999
    4035      ob       1    MUSC   O00fZ       1     -1.05    15.999
    4036      ob       1    MUSC   O00fa       1     -1.05    15.999
    4037      ob       1    MUSC   O00fb       1     -1.05    15.999
    4038      ob       1    MUSC   O00fc       1     -1.05    15.999
    4039      ob       1    MUSC   O00fd       1     -1.05    15.999
    4040      ob       1    MUSC   O00fe       1     -1.05    15.999
    4041      ob       1    MUSC   O00ff       1     -1.05    15.999
    4042      ob       1    MUSC   O00fg       1     -1.05    15.999
    4043      ob       1    MUSC   O00fh       1     -1.05    15.999
    4044      ob       1    MUSC   O00fi       1     -1.05    15.999
    4045      ob       1    MUSC   O00fj       1     -1.05    15.999
    4046      ob       1    MUSC   O00fk       1     -1.05    15.999
    4047      ob       1    MUSC   O00fl       1     -1.05    15.999
    4048      ob       1    MUSC   O00fm       1     -1.05    15.999
    4049      ob       1    MUSC   O00fn       1     -1.05    15.999
    4050      ob       1    MUSC   O00fo       1     -1.05    15.999
    4051       K       1    MUSC   K002d       1       1.0    39.098
    4052       K       1    MUSC   K002e       1       1.0    39.098
    4053      ao       1    MUSC   Al06z       1     1.575    26.982
    4054      ao       1    MUSC   Al070       1     1.575    26.982
    4055      ao       1    MUSC   Al071       1     1.575    26.982
    4056      ao       1    MUSC   Al072       1     1.575    26.982
    4057      ao       1    MUSC   Al073       1     1.575    26.982
    4058      ao       1    MUSC   Al074       1     1.575    26.982
    4059      ao       1    MUSC   Al075       1     1.575    26.982
    4060      ao       1    MUSC   Al076       1     1.575    26.982
    4061      st       1    MUSC   Si0Dx       1       2.1    28.086
    4062      st       1    MUSC   Si0Dy       1       2.1    28.086
    4063      st       1    MUSC   Si0Dz       1       2.1    28.086
    4064      st       1    MUSC   Si0E0       1       2.1    28.086
    4065      st       1    MUSC   Si0E1       1       2.1    28.086
    4066      st       1    MUSC   Si0E2       1       2.1    28.086
    4067      st       1    MUSC   Si0E3       1       2.1    28.086
    4068      st       1    MUSC   Si0E4       1       2.1    28.086
    4069      st       1    MUSC   Si0E5       1       2.1    28.086
    4070      st       1    MUSC   Si0E6       1       2.1    28.086
    4071      st       1    MUSC   Si0E7       1       2.1    28.086
    4072      st       1    MUSC   Si0E8       1       2.1    28.086
    4073      st       1    MUSC   Si0E9       1       2.1    28.086
    4074      st       1    MUSC   Si0EA       1       2.1    28.086
    4075      st       1    MUSC   Si0EB       1       2.1    28.086
    4076      st       1    MUSC   Si0EC       1       2.1    28.086
    4077      ob       1    MUSC   O00fp       1     -1.05    15.999
    4078      ob       1    MUSC   O00fq       1     -1.05    15.999
    4079      ob       1    MUSC   O00fr       1     -1.05    15.999
    4080      ob       1    MUSC   O00fs       1     -1.05    15.999
    4081      oh       1    MUSC   O00ft       1     -0.95    15.999
    4082      oh       1    MUSC   O00fu       1     -0.95    15.999
    4083      oh       1    MUSC   O00fv       1     -0.95    15.999
    4084      oh       1    MUSC   O00fw       1     -0.95    15.999
    4085      ob       1    MUSC   O00fx       1     -1.05    15.999
    4086      ob       1    MUSC   O00fy       1     -1.05    15.999
    4087      ob       1    MUSC   O00fz       1     -1.05    15.999
    4088      ob       1    MUSC   O00g0       1     -1.05    15.999
    4089      ob       1    MUSC   O00g1       1     -1.05    15.999
    4090      ob       1    MUSC   O00g2       1     -1.05    15.999
    4091      ob       1    MUSC   O00g3       1     -1.05    15.999
    4092      ob       1    MUSC   O00g4       1     -1.05    15.999
    4093      ob       1    MUSC   O00g5       1     -1.05    15.999
    4094      ob       1    MUSC   O00g6       1     -1.05    15.999
    4095      ob       1    MUSC   O00g7       1     -1.05    15.999
    4096      ob       1    MUSC   O00g8       1     -1.05    15.999
    4097      ob       1    MUSC   O00g9       1     -1.05    15.999
    4098      ob       1    MUSC   O00gA       1     -1.05    15.999
    4099      ob       1    MUSC   O00gB       1     -1.05    15.999
    4100      ob       1    MUSC   O00gC       1     -1.05    15.999
    4101      ob       1    MUSC   O00gD       1     -1.05    15.999
    4102      ob       1    MUSC   O00gE       1     -1.05    15.999
    4103      ob       1    MUSC   O00gF       1     -1.05    15.999
    4104      ob       1    MUSC   O00gG       1     -1.05    15.999
    4105      oh       1    MUSC   O00gH       1     -0.95    15.999
    4106      oh       1    MUSC   O00gI       1     -0.95    15.999
    4107      oh       1    MUSC   O00gJ       1     -0.95    15.999
    4108      oh       1    MUSC   O00gK       1     -0.95    15.999
    4109      ob       1    MUSC   O00gL       1     -1.05    15.999
    4110      ob       1    MUSC   O00gM       1     -1.05    15.999
    4111      ob       1    MUSC   O00gN       1     -1.05    15.999
    4112      ob       1    MUSC   O00gO       1     -1.05    15.999
    4113      ob       1    MUSC   O00gP       1     -1.05    15.999
    4114      ob       1    MUSC   O00gQ       1     -1.05    15.999
    4115      ob       1    MUSC   O00gR       1     -1.05    15.999
    4116      ob       1    MUSC   O00gS       1     -1.05    15.999
    4117      ob       1    MUSC   O00gT       1     -1.05    15.999
    4118      ob       1    MUSC   O00gU       1     -1.05    15.999
    4119      ob       1    MUSC   O00gV       1     -1.05    15.999
    4120      ob       1    MUSC   O00gW       1     -1.05    15.999
    4121      ob       1    MUSC   O00gX       1     -1.05    15.999
    4122      ob       1    MUSC   O00gY       1     -1.05    15.999
    4123      ob       1    MUSC   O00gZ       1     -1.05    15.999
    4124      ob       1    MUSC   O00ga       1     -1.05    15.999
    4125       K       1    MUSC   K002f       1       1.0    39.098
    4126       K       1    MUSC   K002g       1       1.0    39.098
    4127       K       1    MUSC   K002h       1       1.0    39.098
    4128       K       1    MUSC   K002i       1       1.0    39.098
    4129      ao       1    MUSC   Al077       1     1.575    26.982
    4130      ao       1    MUSC   Al078       1     1.575    26.982
    4131      ao       1    MUSC   Al079       1     1.575    26.982
    4132      ao       1    MUSC   Al07A       1     1.575    26.982
    4133      ao       1    MUSC   Al07B       1     1.575    26.982
    4134      ao       1    MUSC   Al07C       1     1.575    26.982
    4135      ao       1    MUSC   Al07D       1     1.575    26.982
    4136      ao       1    MUSC   Al07E       1     1.575    26.982
    4137      st       1    MUSC   Si0ED       1       2.1    28.086
    4138      st       1    MUSC   Si0EE       1       2.1    28.086
    4139      st       1    MUSC   Si0EF       1       2.1    28.086
    4140      st       1    MUSC   Si0EG       1       2.1    28.086
    4141      st       1    MUSC   Si0EH       1       2.1    28.086
    4142      st       1    MUSC   Si0EI       1       2.1    28.086
    4143      st       1    MUSC   Si0EJ       1       2.1    28.086
    4144      st       1    MUSC   Si0EK       1       2.1    28.086
    4145      st       1    MUSC   Si0EL       1       2.1    28.086
    4146      st       1    MUSC   Si0EM       1       2.1    28.086
    4147      st       1    MUSC   Si0EN       1       2.1    28.086
    4148      st       1    MUSC   Si0EO       1       2.1    28.086
    4149      st       1    MUSC   Si0EP       1       2.1    28.086
    4150      st       1    MUSC   Si0EQ       1       2.1    28.086
    4151      st       1    MUSC   Si0ER       1       2.1    28.086
    4152      st       1    MUSC   Si0ES       1       2.1    28.086
    4153      ob       1    MUSC   O00gb       1     -1.05    15.999
    4154      ob       1    MUSC   O00gc       1     -1.05    15.999
    4155      ob       1    MUSC   O00gd       1     -1.05    15.999
    4156      ob       1    MUSC   O00ge       1     -1.05    15.999
    4157      oh       1    MUSC   O00gf       1     -0.95    15.999
    4158      oh       1    MUSC   O00gg       1     -0.95    15.999
    4159      oh       1    MUSC   O00gh       1     -0.95    15.999
    4160      oh       1    MUSC   O00gi       1     -0.95    15.999
    4161      ob       1    MUSC   O00gj       1     -1.05    15.999
    4162      ob       1    MUSC   O00gk       1     -1.05    15.999
    4163      ob       1    MUSC   O00gl       1     -1.05    15.999
    4164      ob       1    MUSC   O00gm       1     -1.05    15.999
    4165      ob       1    MUSC   O00gn       1     -1.05    15.999
    4166      ob       1    MUSC   O00go       1     -1.05    15.999
    4167      ob       1    MUSC   O00gp       1     -1.05    15.999
    4168      ob       1    MUSC   O00gq       1     -1.05    15.999
    4169      ob       1    MUSC   O00gr       1     -1.05    15.999
    4170      ob       1    MUSC   O00gs       1     -1.05    15.999
    4171      ob       1    MUSC   O00gt       1     -1.05    15.999
    4172      ob       1    MUSC   O00gu       1     -1.05    15.999
    4173      ob       1    MUSC   O00gv       1     -1.05    15.999
    4174      ob       1    MUSC   O00gw       1     -1.05    15.999
    4175      ob       1    MUSC   O00gx       1     -1.05    15.999
    4176      ob       1    MUSC   O00gy       1     -1.05    15.999
    4177      ob       1    MUSC   O00gz       1     -1.05    15.999
    4178      ob       1    MUSC   O00h0       1     -1.05    15.999
    4179      ob       1    MUSC   O00h1       1     -1.05    15.999
    4180      ob       1    MUSC   O00h2       1     -1.05    15.999
    4181      oh       1    MUSC   O00h3       1     -0.95    15.999
    4182      oh       1    MUSC   O00h4       1     -0.95    15.999
    4183      oh       1    MUSC   O00h5       1     -0.95    15.999
    4184      oh       1    MUSC   O00h6       1     -0.95    15.999
    4185      ob       1    MUSC   O00h7       1     -1.05    15.999
    4186      ob       1    MUSC   O00h8       1     -1.05    15.999
    4187      ob       1    MUSC   O00h9       1     -1.05    15.999
    4188      ob       1    MUSC   O00hA       1     -1.05    15.999
    4189      ob       1    MUSC   O00hB       1     -1.05    15.999
    4190      ob       1    MUSC   O00hC       1     -1.05    15.999
    4191      ob       1    MUSC   O00hD       1     -1.05    15.999
    4192      ob       1    MUSC   O00hE       1     -1.05    15.999
    4193      ob       1    MUSC   O00hF       1     -1.05    15.999
    4194      ob       1    MUSC   O00hG       1     -1.05    15.999
    4195      ob       1    MUSC   O00hH       1     -1.05    15.999
    4196      ob       1    MUSC   O00hI       1     -1.05    15.999
    4197      ob       1    MUSC   O00hJ       1     -1.05    15.999
    4198      ob       1    MUSC   O00hK       1     -1.05    15.999
    4199      ob       1    MUSC   O00hL       1     -1.05    15.999
    4200      ob       1    MUSC   O00hM       1     -1.05    15.999
    4201       K       1    MUSC   K002j       1       1.0    39.098
    4202       K       1    MUSC   K002k       1       1.0    39.098
    4203      ao       1    MUSC   Al07F       1     1.575    26.982
    4204      ao       1    MUSC   Al07G       1     1.575    26.982
    4205      ao       1    MUSC   Al07H       1     1.575    26.982
    4206      ao       1    MUSC   Al07I       1     1.575    26.982
    4207      ao       1    MUSC   Al07J       1     1.575    26.982
    4208      ao       1    MUSC   Al07K       1     1.575    26.982
    4209      ao       1    MUSC   Al07L       1     1.575    26.982
    4210      ao       1    MUSC   Al07M       1     1.575    26.982
    4211      st       1    MUSC   Si0ET       1       2.1    28.086
    4212      st       1    MUSC   Si0EU       1       2.1    28.086
    4213      st       1    MUSC   Si0EV       1       2.1    28.086
    4214      st       1    MUSC   Si0EW       1       2.1    28.086
    4215      st       1    MUSC   Si0EX       1       2.1    28.086
    4216      st       1    MUSC   Si0EY       1       2.1    28.086
    4217      st       1    MUSC   Si0EZ       1       2.1    28.086
    4218      st       1    MUSC   Si0Ea       1       2.1    28.086
    4219      st       1    MUSC   Si0Eb       1       2.1    28.086
    4220      st       1    MUSC   Si0Ec       1       2.1    28.086
    4221      st       1    MUSC   Si0Ed       1       2.1    28.086
    4222      st       1    MUSC   Si0Ee       1       2.1    28.086
    4223      st       1    MUSC   Si0Ef       1       2.1    28.086
    4224      st       1    MUSC   Si0Eg       1       2.1    28.086
    4225      st       1    MUSC   Si0Eh       1       2.1    28.086
    4226      st       1    MUSC   Si0Ei       1       2.1    28.086
    4227      ob       1    MUSC   O00hN       1     -1.05    15.999
    4228      ob       1    MUSC   O00hO       1     -1.05    15.999
    4229      ob       1    MUSC   O00hP       1     -1.05    15.999
    4230      ob       1    MUSC   O00hQ       1     -1.05    15.999
    4231      oh       1    MUSC   O00hR       1     -0.95    15.999
    4232      oh       1    MUSC   O00hS       1     -0.95    15.999
    4233      oh       1    MUSC   O00hT       1     -0.95    15.999
    4234      oh       1    MUSC   O00hU       1     -0.95    15.999
    4235      ob       1    MUSC   O00hV       1     -1.05    15.999
    4236      ob       1    MUSC   O00hW       1     -1.05    15.999
    4237      ob       1    MUSC   O00hX       1     -1.05    15.999
    4238      ob       1    MUSC   O00hY       1     -1.05    15.999
    4239      ob       1    MUSC   O00hZ       1     -1.05    15.999
    4240      ob       1    MUSC   O00ha       1     -1.05    15.999
    4241      ob       1    MUSC   O00hb       1     -1.05    15.999
    4242      ob       1    MUSC   O00hc       1     -1.05    15.999
    4243      ob       1    MUSC   O00hd       1     -1.05    15.999
    4244      ob       1    MUSC   O00he       1     -1.05    15.999
    4245      ob       1    MUSC   O00hf       1     -1.05    15.999
    4246      ob       1    MUSC   O00hg       1     -1.05    15.999
    4247      ob       1    MUSC   O00hh       1     -1.05    15.999
    4248      ob       1    MUSC   O00hi       1     -1.05    15.999
    4249      ob       1    MUSC   O00hj       1     -1.05    15.999
    4250      ob       1    MUSC   O00hk       1     -1.05    15.999
    4251      ob       1    MUSC   O00hl       1     -1.05    15.999
    4252      ob       1    MUSC   O00hm       1     -1.05    15.999
    4253      ob       1    MUSC   O00hn       1     -1.05    15.999
    4254      ob       1    MUSC   O00ho       1     -1.05    15.999
    4255      oh       1    MUSC   O00hp       1     -0.95    15.999
    4256      oh       1    MUSC   O00hq       1     -0.95    15.999
    4257      oh       1    MUSC   O00hr       1     -0.95    15.999
    4258      oh       1    MUSC   O00hs       1     -0.95    15.999
    4259      ob       1    MUSC   O00ht       1     -1.05    15.999
    4260      ob       1    MUSC   O00hu       1     -1.05    15.999
    4261      ob       1    MUSC   O00hv       1     -1.05    15.999
    4262      ob       1    MUSC   O00hw       1     -1.05    15.999
    4263      ob       1    MUSC   O00hx       1     -1.05    15.999
    4264      ob       1    MUSC   O00hy       1     -1.05    15.999
    4265      ob       1    MUSC   O00hz       1     -1.05    15.999
    4266      ob       1    MUSC   O00i0       1     -1.05    15.999
    4267      ob       1    MUSC   O00i1       1     -1.05    15.999
    4268      ob       1    MUSC   O00i2       1     -1.05    15.999
    4269      ob       1    MUSC   O00i3       1     -1.05    15.999
    4270      ob       1    MUSC   O00i4       1     -1.05    15.999
    4271      ob       1    MUSC   O00i5       1     -1.05    15.999
    4272      ob       1    MUSC   O00i6       1     -1.05    15.999
    4273      ob       1    MUSC   O00i7       1     -1.05    15.999
    4274      ob       1    MUSC   O00i8       1     -1.05    15.999
    4275       K       1    MUSC   K002l       1       1.0    39.098
    4276       K       1    MUSC   K002m       1       1.0    39.098
    4277       K       1    MUSC   K002n       1       1.0    39.098
    4278       K       1    MUSC   K002o       1       1.0    39.098
    4279      ao       1    MUSC   Al07N       1     1.575    26.982
    4280      ao       1    MUSC   Al07O       1     1.575    26.982
    4281      ao       1    MUSC   Al07P       1     1.575    26.982
    4282      ao       1    MUSC   Al07Q       1     1.575    26.982
    4283      ao       1    MUSC   Al07R       1     1.575    26.982
    4284      ao       1    MUSC   Al07S       1     1.575    26.982
    4285      ao       1    MUSC   Al07T       1     1.575    26.982
    4286      ao       1    MUSC   Al07U       1     1.575    26.982
    4287      st       1    MUSC   Si0Ej       1       2.1    28.086
    4288      st       1    MUSC   Si0Ek       1       2.1    28.086
    4289      st       1    MUSC   Si0El       1       2.1    28.086
    4290      st       1    MUSC   Si0Em       1       2.1    28.086
    4291      st       1    MUSC   Si0En       1       2.1    28.086
    4292      st       1    MUSC   Si0Eo       1       2.1    28.086
    4293      st       1    MUSC   Si0Ep       1       2.1    28.086
    4294      st       1    MUSC   Si0Eq       1       2.1    28.086
    4295      st       1    MUSC   Si0Er       1       2.1    28.086
    4296      st       1    MUSC   Si0Es       1       2.1    28.086
    4297      st       1    MUSC   Si0Et       1       2.1    28.086
    4298      st       1    MUSC   Si0Eu       1       2.1    28.086
    4299      st       1    MUSC   Si0Ev       1       2.1    28.086
    4300      st       1    MUSC   Si0Ew       1       2.1    28.086
    4301      st       1    MUSC   Si0Ex       1       2.1    28.086
    4302      st       1    MUSC   Si0Ey       1       2.1    28.086
    4303      ob       1    MUSC   O00i9       1     -1.05    15.999
    4304      ob       1    MUSC   O00iA       1     -1.05    15.999
    4305      ob       1    MUSC   O00iB       1     -1.05    15.999
    4306      ob       1    MUSC   O00iC       1     -1.05    15.999
    4307      oh       1    MUSC   O00iD       1     -0.95    15.999
    4308      oh       1    MUSC   O00iE       1     -0.95    15.999
    4309      oh       1    MUSC   O00iF       1     -0.95    15.999
    4310      oh       1    MUSC   O00iG       1     -0.95    15.999
    4311      ob       1    MUSC   O00iH       1     -1.05    15.999
    4312      ob       1    MUSC   O00iI       1     -1.05    15.999
    4313      ob       1    MUSC   O00iJ       1     -1.05    15.999
    4314      ob       1    MUSC   O00iK       1     -1.05    15.999
    4315      ob       1    MUSC   O00iL       1     -1.05    15.999
    4316      ob       1    MUSC   O00iM       1     -1.05    15.999
    4317      ob       1    MUSC   O00iN       1     -1.05    15.999
    4318      ob       1    MUSC   O00iO       1     -1.05    15.999
    4319      ob       1    MUSC   O00iP       1     -1.05    15.999
    4320      ob       1    MUSC   O00iQ       1     -1.05    15.999
    4321      ob       1    MUSC   O00iR       1     -1.05    15.999
    4322      ob       1    MUSC   O00iS       1     -1.05    15.999
    4323      ob       1    MUSC   O00iT       1     -1.05    15.999
    4324      ob       1    MUSC   O00iU       1     -1.05    15.999
    4325      ob       1    MUSC   O00iV       1     -1.05    15.999
    4326      ob       1    MUSC   O00iW       1     -1.05    15.999
    4327      ob       1    MUSC   O00iX       1     -1.05    15.999
    4328      ob       1    MUSC   O00iY       1     -1.05    15.999
    4329      ob       1    MUSC   O00iZ       1     -1.05    15.999
    4330      ob       1    MUSC   O00ia       1     -1.05    15.999
    4331      oh       1    MUSC   O00ib       1     -0.95    15.999
    4332      oh       1    MUSC   O00ic       1     -0.95    15.999
    4333      oh       1    MUSC   O00id       1     -0.95    15.999
    4334      oh       1    MUSC   O00ie       1     -0.95    15.999
    4335      ob       1    MUSC   O00if       1     -1.05    15.999
    4336      ob       1    MUSC   O00ig       1     -1.05    15.999
    4337      ob       1    MUSC   O00ih       1     -1.05    15.999
    4338      ob       1    MUSC   O00ii       1     -1.05    15.999
    4339      ob       1    MUSC   O00ij       1     -1.05    15.999
    4340      ob       1    MUSC   O00ik       1     -1.05    15.999
    4341      ob       1    MUSC   O00il       1     -1.05    15.999
    4342      ob       1    MUSC   O00im       1     -1.05    15.999
    4343      ob       1    MUSC   O00in       1     -1.05    15.999
    4344      ob       1    MUSC   O00io       1     -1.05    15.999
    4345      ob       1    MUSC   O00ip       1     -1.05    15.999
    4346      ob       1    MUSC   O00iq       1     -1.05    15.999
    4347      ob       1    MUSC   O00ir       1     -1.05    15.999
    4348      ob       1    MUSC   O00is       1     -1.05    15.999
    4349      ob       1    MUSC   O00it       1     -1.05    15.999
    4350      ob       1    MUSC   O00iu       1     -1.05    15.999
    4351       K       1    MUSC   K002p       1       1.0    39.098
    4352       K       1    MUSC   K002q       1       1.0    39.098
    4353      ao       1    MUSC   Al07V       1     1.575    26.982
    4354      ao       1    MUSC   Al07W       1     1.575    26.982
    4355      ao       1    MUSC   Al07X       1     1.575    26.982
    4356      ao       1    MUSC   Al07Y       1     1.575    26.982
    4357      ao       1    MUSC   Al07Z       1     1.575    26.982
    4358      ao       1    MUSC   Al07a       1     1.575    26.982
    4359      ao       1    MUSC   Al07b       1     1.575    26.982
    4360      ao       1    MUSC   Al07c       1     1.575    26.982
    4361      st       1    MUSC   Si0Ez       1       2.1    28.086
    4362      st       1    MUSC   Si0F0       1       2.1    28.086
    4363      st       1    MUSC   Si0F1       1       2.1    28.086
    4364      st       1    MUSC   Si0F2       1       2.1    28.086
    4365      st       1    MUSC   Si0F3       1       2.1    28.086
    4366      st       1    MUSC   Si0F4       1       2.1    28.086
    4367      st       1    MUSC   Si0F5       1       2.1    28.086
    4368      st       1    MUSC   Si0F6       1       2.1    28.086
    4369      st       1    MUSC   Si0F7       1       2.1    28.086
    4370      st       1    MUSC   Si0F8       1       2.1    28.086
    4371      st       1    MUSC   Si0F9       1       2.1    28.086
    4372      st       1    MUSC   Si0FA       1       2.1    28.086
    4373      st       1    MUSC   Si0FB       1       2.1    28.086
    4374      st       1    MUSC   Si0FC       1       2.1    28.086
    4375      st       1    MUSC   Si0FD       1       2.1    28.086
    4376      st       1    MUSC   Si0FE       1       2.1    28.086
    4377      ob       1    MUSC   O00iv       1     -1.05    15.999
    4378      ob       1    MUSC   O00iw       1     -1.05    15.999
    4379      ob       1    MUSC   O00ix       1     -1.05    15.999
    4380      ob       1    MUSC   O00iy       1     -1.05    15.999
    4381      oh       1    MUSC   O00iz       1     -0.95    15.999
    4382      oh       1    MUSC   O00j0       1     -0.95    15.999
    4383      oh       1    MUSC   O00j1       1     -0.95    15.999
    4384      oh       1    MUSC   O00j2       1     -0.95    15.999
    4385      ob       1    MUSC   O00j3       1     -1.05    15.999
    4386      ob       1    MUSC   O00j4       1     -1.05    15.999
    4387      ob       1    MUSC   O00j5       1     -1.05    15.999
    4388      ob       1    MUSC   O00j6       1     -1.05    15.999
    4389      ob       1    MUSC   O00j7       1     -1.05    15.999
    4390      ob       1    MUSC   O00j8       1     -1.05    15.999
    4391      ob       1    MUSC   O00j9       1     -1.05    15.999
    4392      ob       1    MUSC   O00jA       1     -1.05    15.999
    4393      ob       1    MUSC   O00jB       1     -1.05    15.999
    4394      ob       1    MUSC   O00jC       1     -1.05    15.999
    4395      ob       1    MUSC   O00jD       1     -1.05    15.999
    4396      ob       1    MUSC   O00jE       1     -1.05    15.999
    4397      ob       1    MUSC   O00jF       1     -1.05    15.999
    4398      ob       1    MUSC   O00jG       1     -1.05    15.999
    4399      ob       1    MUSC   O00jH       1     -1.05    15.999
    4400      ob       1    MUSC   O00jI       1     -1.05    15.999
    4401      ob       1    MUSC   O00jJ       1     -1.05    15.999
    4402      ob       1    MUSC   O00jK       1     -1.05    15.999
    4403      ob       1    MUSC   O00jL       1     -1.05    15.999
    4404      ob       1    MUSC   O00jM       1     -1.05    15.999
    4405      oh       1    MUSC   O00jN       1     -0.95    15.999
    4406      oh       1    MUSC   O00jO       1     -0.95    15.999
    4407      oh       1    MUSC   O00jP       1     -0.95    15.999
    4408      oh       1    MUSC   O00jQ       1     -0.95    15.999
    4409      ob       1    MUSC   O00jR       1     -1.05    15.999
    4410      ob       1    MUSC   O00jS       1     -1.05    15.999
    4411      ob       1    MUSC   O00jT       1     -1.05    15.999
    4412      ob       1    MUSC   O00jU       1     -1.05    15.999
    4413      ob       1    MUSC   O00jV       1     -1.05    15.999
    4414      ob       1    MUSC   O00jW       1     -1.05    15.999
    4415      ob       1    MUSC   O00jX       1     -1.05    15.999
    4416      ob       1    MUSC   O00jY       1     -1.05    15.999
    4417      ob       1    MUSC   O00jZ       1     -1.05    15.999
    4418      ob       1    MUSC   O00ja       1     -1.05    15.999
    4419      ob       1    MUSC   O00jb       1     -1.05    15.999
    4420      ob       1    MUSC   O00jc       1     -1.05    15.999
    4421      ob       1    MUSC   O00jd       1     -1.05    15.999
    4422      ob       1    MUSC   O00je       1     -1.05    15.999
    4423      ob       1    MUSC   O00jf       1     -1.05    15.999
    4424      ob       1    MUSC   O00jg       1     -1.05    15.999
    4425       K       1    MUSC   K002r       1       1.0    39.098
    4426       K       1    MUSC   K002s       1       1.0    39.098
    4427       K       1    MUSC   K002t       1       1.0    39.098
    4428       K       1    MUSC   K002u       1       1.0    39.098
    4429      ao       1    MUSC   Al07d       1     1.575    26.982
    4430      ao       1    MUSC   Al07e       1     1.575    26.982
    4431      ao       1    MUSC   Al07f       1     1.575    26.982
    4432      ao       1    MUSC   Al07g       1     1.575    26.982
    4433      ao       1    MUSC   Al07h       1     1.575    26.982
    4434      ao       1    MUSC   Al07i       1     1.575    26.982
    4435      ao       1    MUSC   Al07j       1     1.575    26.982
    4436      ao       1    MUSC   Al07k       1     1.575    26.982
    4437      st       1    MUSC   Si0FF       1       2.1    28.086
    4438      st       1    MUSC   Si0FG       1       2.1    28.086
    4439      st       1    MUSC   Si0FH       1       2.1    28.086
    4440      st       1    MUSC   Si0FI       1       2.1    28.086
    4441      st       1    MUSC   Si0FJ       1       2.1    28.086
    4442      st       1    MUSC   Si0FK       1       2.1    28.086
    4443      st       1    MUSC   Si0FL       1       2.1    28.086
    4444      st       1    MUSC   Si0FM       1       2.1    28.086
    4445      st       1    MUSC   Si0FN       1       2.1    28.086
    4446      st       1    MUSC   Si0FO       1       2.1    28.086
    4447      st       1    MUSC   Si0FP       1       2.1    28.086
    4448      st       1    MUSC   Si0FQ       1       2.1    28.086
    4449      st       1    MUSC   Si0FR       1       2.1    28.086
    4450      st       1    MUSC   Si0FS       1       2.1    28.086
    4451      st       1    MUSC   Si0FT       1       2.1    28.086
    4452      st       1    MUSC   Si0FU       1       2.1    28.086
    4453      ob       1    MUSC   O00jh       1     -1.05    15.999
    4454      ob       1    MUSC   O00ji       1     -1.05    15.999
    4455      ob       1    MUSC   O00jj       1     -1.05    15.999
    4456      ob       1    MUSC   O00jk       1     -1.05    15.999
    4457      oh       1    MUSC   O00jl       1     -0.95    15.999
    4458      oh       1    MUSC   O00jm       1     -0.95    15.999
    4459      oh       1    MUSC   O00jn       1     -0.95    15.999
    4460      oh       1    MUSC   O00jo       1     -0.95    15.999
    4461      ob       1    MUSC   O00jp       1     -1.05    15.999
    4462      ob       1    MUSC   O00jq       1     -1.05    15.999
    4463      ob       1    MUSC   O00jr       1     -1.05    15.999
    4464      ob       1    MUSC   O00js       1     -1.05    15.999
    4465      ob       1    MUSC   O00jt       1     -1.05    15.999
    4466      ob       1    MUSC   O00ju       1     -1.05    15.999
    4467      ob       1    MUSC   O00jv       1     -1.05    15.999
    4468      ob       1    MUSC   O00jw       1     -1.05    15.999
    4469      ob       1    MUSC   O00jx       1     -1.05    15.999
    4470      ob       1    MUSC   O00jy       1     -1.05    15.999
    4471      ob       1    MUSC   O00jz       1     -1.05    15.999
    4472      ob       1    MUSC   O00k0       1     -1.05    15.999
    4473      ob       1    MUSC   O00k1       1     -1.05    15.999
    4474      ob       1    MUSC   O00k2       1     -1.05    15.999
    4475      ob       1    MUSC   O00k3       1     -1.05    15.999
    4476      ob       1    MUSC   O00k4       1     -1.05    15.999
    4477      ob       1    MUSC   O00k5       1     -1.05    15.999
    4478      ob       1    MUSC   O00k6       1     -1.05    15.999
    4479      ob       1    MUSC   O00k7       1     -1.05    15.999
    4480      ob       1    MUSC   O00k8       1     -1.05    15.999
    4481      oh       1    MUSC   O00k9       1     -0.95    15.999
    4482      oh       1    MUSC   O00kA       1     -0.95    15.999
    4483      oh       1    MUSC   O00kB       1     -0.95    15.999
    4484      oh       1    MUSC   O00kC       1     -0.95    15.999
    4485      ob       1    MUSC   O00kD       1     -1.05    15.999
    4486      ob       1    MUSC   O00kE       1     -1.05    15.999
    4487      ob       1    MUSC   O00kF       1     -1.05    15.999
    4488      ob       1    MUSC   O00kG       1     -1.05    15.999
    4489      ob       1    MUSC   O00kH       1     -1.05    15.999
    4490      ob       1    MUSC   O00kI       1     -1.05    15.999
    4491      ob       1    MUSC   O00kJ       1     -1.05    15.999
    4492      ob       1    MUSC   O00kK       1     -1.05    15.999
    4493      ob       1    MUSC   O00kL       1     -1.05    15.999
    4494      ob       1    MUSC   O00kM       1     -1.05    15.999
    4495      ob       1    MUSC   O00kN       1     -1.05    15.999
    4496      ob       1    MUSC   O00kO       1     -1.05    15.999
    4497      ob       1    MUSC   O00kP       1     -1.05    15.999
    4498      ob       1    MUSC   O00kQ       1     -1.05    15.999
    4499      ob       1    MUSC   O00kR       1     -1.05    15.999
    4500      ob       1    MUSC   O00kS       1     -1.05    15.999
    4501       K       1    MUSC   K002v       1       1.0    39.098
    4502       K       1    MUSC   K002w       1       1.0    39.098
    4503      ao       1    MUSC   Al07l       1     1.575    26.982
    4504      ao       1    MUSC   Al07m       1     1.575    26.982
    4505      ao       1    MUSC   Al07n       1     1.575    26.982
    4506      ao       1    MUSC   Al07o       1     1.575    26.982
    4507      ao       1    MUSC   Al07p       1     1.575    26.982
    4508      ao       1    MUSC   Al07q       1     1.575    26.982
    4509      ao       1    MUSC   Al07r       1     1.575    26.982
    4510      ao       1    MUSC   Al07s       1     1.575    26.982
    4511      st       1    MUSC   Si0FV       1       2.1    28.086
    4512      st       1    MUSC   Si0FW       1       2.1    28.086
    4513      st       1    MUSC   Si0FX       1       2.1    28.086
    4514      st       1    MUSC   Si0FY       1       2.1    28.086
    4515      st       1    MUSC   Si0FZ       1       2.1    28.086
    4516      st       1    MUSC   Si0Fa       1       2.1    28.086
    4517      st       1    MUSC   Si0Fb       1       2.1    28.086
    4518      st       1    MUSC   Si0Fc       1       2.1    28.086
    4519      st       1    MUSC   Si0Fd       1       2.1    28.086
    4520      st       1    MUSC   Si0Fe       1       2.1    28.086
    4521      st       1    MUSC   Si0Ff       1       2.1    28.086
    4522      st       1    MUSC   Si0Fg       1       2.1    28.086
    4523      st       1    MUSC   Si0Fh       1       2.1    28.086
    4524      st       1    MUSC   Si0Fi       1       2.1    28.086
    4525      st       1    MUSC   Si0Fj       1       2.1    28.086
    4526      st       1    MUSC   Si0Fk       1       2.1    28.086
    4527      ob       1    MUSC   O00kT       1     -1.05    15.999
    4528      ob       1    MUSC   O00kU       1     -1.05    15.999
    4529      ob       1    MUSC   O00kV       1     -1.05    15.999
    4530      ob       1    MUSC   O00kW       1     -1.05    15.999
    4531      oh       1    MUSC   O00kX       1     -0.95    15.999
    4532      oh       1    MUSC   O00kY       1     -0.95    15.999
    4533      oh       1    MUSC   O00kZ       1     -0.95    15.999
    4534      oh       1    MUSC   O00ka       1     -0.95    15.999
    4535      ob       1    MUSC   O00kb       1     -1.05    15.999
    4536      ob       1    MUSC   O00kc       1     -1.05    15.999
    4537      ob       1    MUSC   O00kd       1     -1.05    15.999
    4538      ob       1    MUSC   O00ke       1     -1.05    15.999
    4539      ob       1    MUSC   O00kf       1     -1.05    15.999
    4540      ob       1    MUSC   O00kg       1     -1.05    15.999
    4541      ob       1    MUSC   O00kh       1     -1.05    15.999
    4542      ob       1    MUSC   O00ki       1     -1.05    15.999
    4543      ob       1    MUSC   O00kj       1     -1.05    15.999
    4544      ob       1    MUSC   O00kk       1     -1.05    15.999
    4545      ob       1    MUSC   O00kl       1     -1.05    15.999
    4546      ob       1    MUSC   O00km       1     -1.05    15.999
    4547      ob       1    MUSC   O00kn       1     -1.05    15.999
    4548      ob       1    MUSC   O00ko       1     -1.05    15.999
    4549      ob       1    MUSC   O00kp       1     -1.05    15.999
    4550      ob       1    MUSC   O00kq       1     -1.05    15.999
    4551      ob       1    MUSC   O00kr       1     -1.05    15.999
    4552      ob       1    MUSC   O00ks       1     -1.05    15.999
    4553      ob       1    MUSC   O00kt       1     -1.05    15.999
    4554      ob       1    MUSC   O00ku       1     -1.05    15.999
    4555      oh       1    MUSC   O00kv       1     -0.95    15.999
    4556      oh       1    MUSC   O00kw       1     -0.95    15.999
    4557      oh       1    MUSC   O00kx       1     -0.95    15.999
    4558      oh       1    MUSC   O00ky       1     -0.95    15.999
    4559      ob       1    MUSC   O00kz       1     -1.05    15.999
    4560      ob       1    MUSC   O00l0       1     -1.05    15.999
    4561      ob       1    MUSC   O00l1       1     -1.05    15.999
    4562      ob       1    MUSC   O00l2       1     -1.05    15.999
    4563      ob       1    MUSC   O00l3       1     -1.05    15.999
    4564      ob       1    MUSC   O00l4       1     -1.05    15.999
    4565      ob       1    MUSC   O00l5       1     -1.05    15.999
    4566      ob       1    MUSC   O00l6       1     -1.05    15.999
    4567      ob       1    MUSC   O00l7       1     -1.05    15.999
    4568      ob       1    MUSC   O00l8       1     -1.05    15.999
    4569      ob       1    MUSC   O00l9       1     -1.05    15.999
    4570      ob       1    MUSC   O00lA       1     -1.05    15.999
    4571      ob       1    MUSC   O00lB       1     -1.05    15.999
    4572      ob       1    MUSC   O00lC       1     -1.05    15.999
    4573      ob       1    MUSC   O00lD       1     -1.05    15.999
    4574      ob       1    MUSC   O00lE       1     -1.05    15.999
    4575       K       1    MUSC   K002x       1       1.0    39.098
    4576       K       1    MUSC   K002y       1       1.0    39.098
    4577       K       1    MUSC   K002z       1       1.0    39.098
    4578       K       1    MUSC   K0030       1       1.0    39.098
    4579      ao       1    MUSC   Al07t       1     1.575    26.982
    4580      ao       1    MUSC   Al07u       1     1.575    26.982
    4581      ao       1    MUSC   Al07v       1     1.575    26.982
    4582      ao       1    MUSC   Al07w       1     1.575    26.982
    4583      ao       1    MUSC   Al07x       1     1.575    26.982
    4584      ao       1    MUSC   Al07y       1     1.575    26.982
    4585      ao       1    MUSC   Al07z       1     1.575    26.982
    4586      ao       1    MUSC   Al080       1     1.575    26.982
    4587      st       1    MUSC   Si0Fl       1       2.1    28.086
    4588      st       1    MUSC   Si0Fm       1       2.1    28.086
    4589      st       1    MUSC   Si0Fn       1       2.1    28.086
    4590      st       1    MUSC   Si0Fo       1       2.1    28.086
    4591      st       1    MUSC   Si0Fp       1       2.1    28.086
    4592      st       1    MUSC   Si0Fq       1       2.1    28.086
    4593      st       1    MUSC   Si0Fr       1       2.1    28.086
    4594      st       1    MUSC   Si0Fs       1       2.1    28.086
    4595      st       1    MUSC   Si0Ft       1       2.1    28.086
    4596      st       1    MUSC   Si0Fu       1       2.1    28.086
    4597      st       1    MUSC   Si0Fv       1       2.1    28.086
    4598      st       1    MUSC   Si0Fw       1       2.1    28.086
    4599      st       1    MUSC   Si0Fx       1       2.1    28.086
    4600      st       1    MUSC   Si0Fy       1       2.1    28.086
    4601      st       1    MUSC   Si0Fz       1       2.1    28.086
    4602      st       1    MUSC   Si0G0       1       2.1    28.086
    4603      ob       1    MUSC   O00lF       1     -1.05    15.999
    4604      ob       1    MUSC   O00lG       1     -1.05    15.999
    4605      ob       1    MUSC   O00lH       1     -1.05    15.999
    4606      ob       1    MUSC   O00lI       1     -1.05    15.999
    4607      oh       1    MUSC   O00lJ       1     -0.95    15.999
    4608      oh       1    MUSC   O00lK       1     -0.95    15.999
    4609      oh       1    MUSC   O00lL       1     -0.95    15.999
    4610      oh       1    MUSC   O00lM       1     -0.95    15.999
    4611      ob       1    MUSC   O00lN       1     -1.05    15.999
    4612      ob       1    MUSC   O00lO       1     -1.05    15.999
    4613      ob       1    MUSC   O00lP       1     -1.05    15.999
    4614      ob       1    MUSC   O00lQ       1     -1.05    15.999
    4615      ob       1    MUSC   O00lR       1     -1.05    15.999
    4616      ob       1    MUSC   O00lS       1     -1.05    15.999
    4617      ob       1    MUSC   O00lT       1     -1.05    15.999
    4618      ob       1    MUSC   O00lU       1     -1.05    15.999
    4619      ob       1    MUSC   O00lV       1     -1.05    15.999
    4620      ob       1    MUSC   O00lW       1     -1.05    15.999
    4621      ob       1    MUSC   O00lX       1     -1.05    15.999
    4622      ob       1    MUSC   O00lY       1     -1.05    15.999
    4623      ob       1    MUSC   O00lZ       1     -1.05    15.999
    4624      ob       1    MUSC   O00la       1     -1.05    15.999
    4625      ob       1    MUSC   O00lb       1     -1.05    15.999
    4626      ob       1    MUSC   O00lc       1     -1.05    15.999
    4627      ob       1    MUSC   O00ld       1     -1.05    15.999
    4628      ob       1    MUSC   O00le       1     -1.05    15.999
    4629      ob       1    MUSC   O00lf       1     -1.05    15.999
    4630      ob       1    MUSC   O00lg       1     -1.05    15.999
    4631      oh       1    MUSC   O00lh       1     -0.95    15.999
    4632      oh       1    MUSC   O00li       1     -0.95    15.999
    4633      oh       1    MUSC   O00lj       1     -0.95    15.999
    4634      oh       1    MUSC   O00lk       1     -0.95    15.999
    4635      ob       1    MUSC   O00ll       1     -1.05    15.999
    4636      ob       1    MUSC   O00lm       1     -1.05    15.999
    4637      ob       1    MUSC   O00ln       1     -1.05    15.999
    4638      ob       1    MUSC   O00lo       1     -1.05    15.999
    4639      ob       1    MUSC   O00lp       1     -1.05    15.999
    4640      ob       1    MUSC   O00lq       1     -1.05    15.999
    4641      ob       1    MUSC   O00lr       1     -1.05    15.999
    4642      ob       1    MUSC   O00ls       1     -1.05    15.999
    4643      ob       1    MUSC   O00lt       1     -1.05    15.999
    4644      ob       1    MUSC   O00lu       1     -1.05    15.999
    4645      ob       1    MUSC   O00lv       1     -1.05    15.999
    4646      ob       1    MUSC   O00lw       1     -1.05    15.999
    4647      ob       1    MUSC   O00lx       1     -1.05    15.999
    4648      ob       1    MUSC   O00ly       1     -1.05    15.999
    4649      ob       1    MUSC   O00lz       1     -1.05    15.999
    4650      ob       1    MUSC   O00m0       1     -1.05    15.999
    4651       K       1    MUSC   K0031       1       1.0    39.098
    4652       K       1    MUSC   K0032       1       1.0    39.098
    4653      ao       1    MUSC   Al081       1     1.575    26.982
    4654      ao       1    MUSC   Al082       1     1.575    26.982
    4655      ao       1    MUSC   Al083       1     1.575    26.982
    4656      ao       1    MUSC   Al084       1     1.575    26.982
    4657      ao       1    MUSC   Al085       1     1.575    26.982
    4658      ao       1    MUSC   Al086       1     1.575    26.982
    4659      ao       1    MUSC   Al087       1     1.575    26.982
    4660      ao       1    MUSC   Al088       1     1.575    26.982
    4661      st       1    MUSC   Si0G1       1       2.1    28.086
    4662      st       1    MUSC   Si0G2       1       2.1    28.086
    4663      st       1    MUSC   Si0G3       1       2.1    28.086
    4664      st       1    MUSC   Si0G4       1       2.1    28.086
    4665      st       1    MUSC   Si0G5       1       2.1    28.086
    4666      st       1    MUSC   Si0G6       1       2.1    28.086
    4667      st       1    MUSC   Si0G7       1       2.1    28.086
    4668      st       1    MUSC   Si0G8       1       2.1    28.086
    4669      st       1    MUSC   Si0G9       1       2.1    28.086
    4670      st       1    MUSC   Si0GA       1       2.1    28.086
    4671      st       1    MUSC   Si0GB       1       2.1    28.086
    4672      st       1    MUSC   Si0GC       1       2.1    28.086
    4673      st       1    MUSC   Si0GD       1       2.1    28.086
    4674      st       1    MUSC   Si0GE       1       2.1    28.086
    4675      st       1    MUSC   Si0GF       1       2.1    28.086
    4676      st       1    MUSC   Si0GG       1       2.1    28.086
    4677      ob       1    MUSC   O00m1       1     -1.05    15.999
    4678      ob       1    MUSC   O00m2       1     -1.05    15.999
    4679      ob       1    MUSC   O00m3       1     -1.05    15.999
    4680      ob       1    MUSC   O00m4       1     -1.05    15.999
    4681      oh       1    MUSC   O00m5       1     -0.95    15.999
    4682      oh       1    MUSC   O00m6       1     -0.95    15.999
    4683      oh       1    MUSC   O00m7       1     -0.95    15.999
    4684      oh       1    MUSC   O00m8       1     -0.95    15.999
    4685      ob       1    MUSC   O00m9       1     -1.05    15.999
    4686      ob       1    MUSC   O00mA       1     -1.05    15.999
    4687      ob       1    MUSC   O00mB       1     -1.05    15.999
    4688      ob       1    MUSC   O00mC       1     -1.05    15.999
    4689      ob       1    MUSC   O00mD       1     -1.05    15.999
    4690      ob       1    MUSC   O00mE       1     -1.05    15.999
    4691      ob       1    MUSC   O00mF       1     -1.05    15.999
    4692      ob       1    MUSC   O00mG       1     -1.05    15.999
    4693      ob       1    MUSC   O00mH       1     -1.05    15.999
    4694      ob       1    MUSC   O00mI       1     -1.05    15.999
    4695      ob       1    MUSC   O00mJ       1     -1.05    15.999
    4696      ob       1    MUSC   O00mK       1     -1.05    15.999
    4697      ob       1    MUSC   O00mL       1     -1.05    15.999
    4698      ob       1    MUSC   O00mM       1     -1.05    15.999
    4699      ob       1    MUSC   O00mN       1     -1.05    15.999
    4700      ob       1    MUSC   O00mO       1     -1.05    15.999
    4701      ob       1    MUSC   O00mP       1     -1.05    15.999
    4702      ob       1    MUSC   O00mQ       1     -1.05    15.999
    4703      ob       1    MUSC   O00mR       1     -1.05    15.999
    4704      ob       1    MUSC   O00mS       1     -1.05    15.999
    4705      oh       1    MUSC   O00mT       1     -0.95    15.999
    4706      oh       1    MUSC   O00mU       1     -0.95    15.999
    4707      oh       1    MUSC   O00mV       1     -0.95    15.999
    4708      oh       1    MUSC   O00mW       1     -0.95    15.999
    4709      ob       1    MUSC   O00mX       1     -1.05    15.999
    4710      ob       1    MUSC   O00mY       1     -1.05    15.999
    4711      ob       1    MUSC   O00mZ       1     -1.05    15.999
    4712      ob       1    MUSC   O00ma       1     -1.05    15.999
    4713      ob       1    MUSC   O00mb       1     -1.05    15.999
    4714      ob       1    MUSC   O00mc       1     -1.05    15.999
    4715      ob       1    MUSC   O00md       1     -1.05    15.999
    4716      ob       1    MUSC   O00me       1     -1.05    15.999
    4717      ob       1    MUSC   O00mf       1     -1.05    15.999
    4718      ob       1    MUSC   O00mg       1     -1.05    15.999
    4719      ob       1    MUSC   O00mh       1     -1.05    15.999
    4720      ob       1    MUSC   O00mi       1     -1.05    15.999
    4721      ob       1    MUSC   O00mj       1     -1.05    15.999
    4722      ob       1    MUSC   O00mk       1     -1.05    15.999
    4723      ob       1    MUSC   O00ml       1     -1.05    15.999
    4724      ob       1    MUSC   O00mm       1     -1.05    15.999
    4725       K       1    MUSC   K0033       1       1.0    39.098
    4726       K       1    MUSC   K0034       1       1.0    39.098
    4727       K       1    MUSC   K0035       1       1.0    39.098
    4728       K       1    MUSC   K0036       1       1.0    39.098
    4729      ao       1    MUSC   Al089       1     1.575    26.982
    4730      ao       1    MUSC   Al08A       1     1.575    26.982
    4731      ao       1    MUSC   Al08B       1     1.575    26.982
    4732      ao       1    MUSC   Al08C       1     1.575    26.982
    4733      ao       1    MUSC   Al08D       1     1.575    26.982
    4734      ao       1    MUSC   Al08E       1     1.575    26.982
    4735      ao       1    MUSC   Al08F       1     1.575    26.982
    4736      ao       1    MUSC   Al08G       1     1.575    26.982
    4737      st       1    MUSC   Si0GH       1       2.1    28.086
    4738      st       1    MUSC   Si0GI       1       2.1    28.086
    4739      st       1    MUSC   Si0GJ       1       2.1    28.086
    4740      st       1    MUSC   Si0GK       1       2.1    28.086
    4741      st       1    MUSC   Si0GL       1       2.1    28.086
    4742      st       1    MUSC   Si0GM       1       2.1    28.086
    4743      st       1    MUSC   Si0GN       1       2.1    28.086
    4744      st       1    MUSC   Si0GO       1       2.1    28.086
    4745      st       1    MUSC   Si0GP       1       2.1    28.086
    4746      st       1    MUSC   Si0GQ       1       2.1    28.086
    4747      st       1    MUSC   Si0GR       1       2.1    28.086
    4748      st       1    MUSC   Si0GS       1       2.1    28.086
    4749      st       1    MUSC   Si0GT       1       2.1    28.086
    4750      st       1    MUSC   Si0GU       1       2.1    28.086
    4751      st       1    MUSC   Si0GV       1       2.1    28.086
    4752      st       1    MUSC   Si0GW       1       2.1    28.086
    4753      ob       1    MUSC   O00mn       1     -1.05    15.999
    4754      ob       1    MUSC   O00mo       1     -1.05    15.999
    4755      ob       1    MUSC   O00mp       1     -1.05    15.999
    4756      ob       1    MUSC   O00mq       1     -1.05    15.999
    4757      oh       1    MUSC   O00mr       1     -0.95    15.999
    4758      oh       1    MUSC   O00ms       1     -0.95    15.999
    4759      oh       1    MUSC   O00mt       1     -0.95    15.999
    4760      oh       1    MUSC   O00mu       1     -0.95    15.999
    4761      ob       1    MUSC   O00mv       1     -1.05    15.999
    4762      ob       1    MUSC   O00mw       1     -1.05    15.999
    4763      ob       1    MUSC   O00mx       1     -1.05    15.999
    4764      ob       1    MUSC   O00my       1     -1.05    15.999
    4765      ob       1    MUSC   O00mz       1     -1.05    15.999
    4766      ob       1    MUSC   O00n0       1     -1.05    15.999
    4767      ob       1    MUSC   O00n1       1     -1.05    15.999
    4768      ob       1    MUSC   O00n2       1     -1.05    15.999
    4769      ob       1    MUSC   O00n3       1     -1.05    15.999
    4770      ob       1    MUSC   O00n4       1     -1.05    15.999
    4771      ob       1    MUSC   O00n5       1     -1.05    15.999
    4772      ob       1    MUSC   O00n6       1     -1.05    15.999
    4773      ob       1    MUSC   O00n7       1     -1.05    15.999
    4774      ob       1    MUSC   O00n8       1     -1.05    15.999
    4775      ob       1    MUSC   O00n9       1     -1.05    15.999
    4776      ob       1    MUSC   O00nA       1     -1.05    15.999
    4777      ob       1    MUSC   O00nB       1     -1.05    15.999
    4778      ob       1    MUSC   O00nC       1     -1.05    15.999
    4779      ob       1    MUSC   O00nD       1     -1.05    15.999
    4780      ob       1    MUSC   O00nE       1     -1.05    15.999
    4781      oh       1    MUSC   O00nF       1     -0.95    15.999
    4782      oh       1    MUSC   O00nG       1     -0.95    15.999
    4783      oh       1    MUSC   O00nH       1     -0.95    15.999
    4784      oh       1    MUSC   O00nI       1     -0.95    15.999
    4785      ob       1    MUSC   O00nJ       1     -1.05    15.999
    4786      ob       1    MUSC   O00nK       1     -1.05    15.999
    4787      ob       1    MUSC   O00nL       1     -1.05    15.999
    4788      ob       1    MUSC   O00nM       1     -1.05    15.999
    4789      ob       1    MUSC   O00nN       1     -1.05    15.999
    4790      ob       1    MUSC   O00nO       1     -1.05    15.999
    4791      ob       1    MUSC   O00nP       1     -1.05    15.999
    4792      ob       1    MUSC   O00nQ       1     -1.05    15.999
    4793      ob       1    MUSC   O00nR       1     -1.05    15.999
    4794      ob       1    MUSC   O00nS       1     -1.05    15.999
    4795      ob       1    MUSC   O00nT       1     -1.05    15.999
    4796      ob       1    MUSC   O00nU       1     -1.05    15.999
    4797      ob       1    MUSC   O00nV       1     -1.05    15.999
    4798      ob       1    MUSC   O00nW       1     -1.05    15.999
    4799      ob       1    MUSC   O00nX       1     -1.05    15.999
    4800      ob       1    MUSC   O00nY       1     -1.05    15.999
    4801       K       1    MUSC   K0037       1       1.0    39.098
    4802       K       1    MUSC   K0038       1       1.0    39.098
    4803      ao       1    MUSC   Al08H       1     1.575    26.982
    4804      ao       1    MUSC   Al08I       1     1.575    26.982
    4805      ao       1    MUSC   Al08J       1     1.575    26.982
    4806      ao       1    MUSC   Al08K       1     1.575    26.982
    4807      ao       1    MUSC   Al08L       1     1.575    26.982
    4808      ao       1    MUSC   Al08M       1     1.575    26.982
    4809      ao       1    MUSC   Al08N       1     1.575    26.982
    4810      ao       1    MUSC   Al08O       1     1.575    26.982
    4811      st       1    MUSC   Si0GX       1       2.1    28.086
    4812      st       1    MUSC   Si0GY       1       2.1    28.086
    4813      st       1    MUSC   Si0GZ       1       2.1    28.086
    4814      st       1    MUSC   Si0Ga       1       2.1    28.086
    4815      st       1    MUSC   Si0Gb       1       2.1    28.086
    4816      st       1    MUSC   Si0Gc       1       2.1    28.086
    4817      st       1    MUSC   Si0Gd       1       2.1    28.086
    4818      st       1    MUSC   Si0Ge       1       2.1    28.086
    4819      st       1    MUSC   Si0Gf       1       2.1    28.086
    4820      st       1    MUSC   Si0Gg       1       2.1    28.086
    4821      st       1    MUSC   Si0Gh       1       2.1    28.086
    4822      st       1    MUSC   Si0Gi       1       2.1    28.086
    4823      st       1    MUSC   Si0Gj       1       2.1    28.086
    4824      st       1    MUSC   Si0Gk       1       2.1    28.086
    4825      st       1    MUSC   Si0Gl       1       2.1    28.086
    4826      st       1    MUSC   Si0Gm       1       2.1    28.086
    4827      ob       1    MUSC   O00nZ       1     -1.05    15.999
    4828      ob       1    MUSC   O00na       1     -1.05    15.999
    4829      ob       1    MUSC   O00nb       1     -1.05    15.999
    4830      ob       1    MUSC   O00nc       1     -1.05    15.999
    4831      oh       1    MUSC   O00nd       1     -0.95    15.999
    4832      oh       1    MUSC   O00ne       1     -0.95    15.999
    4833      oh       1    MUSC   O00nf       1     -0.95    15.999
    4834      oh       1    MUSC   O00ng       1     -0.95    15.999
    4835      ob       1    MUSC   O00nh       1     -1.05    15.999
    4836      ob       1    MUSC   O00ni       1     -1.05    15.999
    4837      ob       1    MUSC   O00nj       1     -1.05    15.999
    4838      ob       1    MUSC   O00nk       1     -1.05    15.999
    4839      ob       1    MUSC   O00nl       1     -1.05    15.999
    4840      ob       1    MUSC   O00nm       1     -1.05    15.999
    4841      ob       1    MUSC   O00nn       1     -1.05    15.999
    4842      ob       1    MUSC   O00no       1     -1.05    15.999
    4843      ob       1    MUSC   O00np       1     -1.05    15.999
    4844      ob       1    MUSC   O00nq       1     -1.05    15.999
    4845      ob       1    MUSC   O00nr       1     -1.05    15.999
    4846      ob       1    MUSC   O00ns       1     -1.05    15.999
    4847      ob       1    MUSC   O00nt       1     -1.05    15.999
    4848      ob       1    MUSC   O00nu       1     -1.05    15.999
    4849      ob       1    MUSC   O00nv       1     -1.05    15.999
    4850      ob       1    MUSC   O00nw       1     -1.05    15.999
    4851      ob       1    MUSC   O00nx       1     -1.05    15.999
    4852      ob       1    MUSC   O00ny       1     -1.05    15.999
    4853      ob       1    MUSC   O00nz       1     -1.05    15.999
    4854      ob       1    MUSC   O00o0       1     -1.05    15.999
    4855      oh       1    MUSC   O00o1       1     -0.95    15.999
    4856      oh       1    MUSC   O00o2       1     -0.95    15.999
    4857      oh       1    MUSC   O00o3       1     -0.95    15.999
    4858      oh       1    MUSC   O00o4       1     -0.95    15.999
    4859      ob       1    MUSC   O00o5       1     -1.05    15.999
    4860      ob       1    MUSC   O00o6       1     -1.05    15.999
    4861      ob       1    MUSC   O00o7       1     -1.05    15.999
    4862      ob       1    MUSC   O00o8       1     -1.05    15.999
    4863      ob       1    MUSC   O00o9       1     -1.05    15.999
    4864      ob       1    MUSC   O00oA       1     -1.05    15.999
    4865      ob       1    MUSC   O00oB       1     -1.05    15.999
    4866      ob       1    MUSC   O00oC       1     -1.05    15.999
    4867      ob       1    MUSC   O00oD       1     -1.05    15.999
    4868      ob       1    MUSC   O00oE       1     -1.05    15.999
    4869      ob       1    MUSC   O00oF       1     -1.05    15.999
    4870      ob       1    MUSC   O00oG       1     -1.05    15.999
    4871      ob       1    MUSC   O00oH       1     -1.05    15.999
    4872      ob       1    MUSC   O00oI       1     -1.05    15.999
    4873      ob       1    MUSC   O00oJ       1     -1.05    15.999
    4874      ob       1    MUSC   O00oK       1     -1.05    15.999
    4875       K       1    MUSC   K0039       1       1.0    39.098
    4876       K       1    MUSC   K003A       1       1.0    39.098
    4877       K       1    MUSC   K003B       1       1.0    39.098
    4878       K       1    MUSC   K003C       1       1.0    39.098
    4879      ao       1    MUSC   Al08P       1     1.575    26.982
    4880      ao       1    MUSC   Al08Q       1     1.575    26.982
    4881      ao       1    MUSC   Al08R       1     1.575    26.982
    4882      ao       1    MUSC   Al08S       1     1.575    26.982
    4883      ao       1    MUSC   Al08T       1     1.575    26.982
    4884      ao       1    MUSC   Al08U       1     1.575    26.982
    4885      ao       1    MUSC   Al08V       1     1.575    26.982
    4886      ao       1    MUSC   Al08W       1     1.575    26.982
    4887      st       1    MUSC   Si0Gn       1       2.1    28.086
    4888      st       1    MUSC   Si0Go       1       2.1    28.086
    4889      st       1    MUSC   Si0Gp       1       2.1    28.086
    4890      st       1    MUSC   Si0Gq       1       2.1    28.086
    4891      st       1    MUSC   Si0Gr       1       2.1    28.086
    4892      st       1    MUSC   Si0Gs       1       2.1    28.086
    4893      st       1    MUSC   Si0Gt       1       2.1    28.086
    4894      st       1    MUSC   Si0Gu       1       2.1    28.086
    4895      st       1    MUSC   Si0Gv       1       2.1    28.086
    4896      st       1    MUSC   Si0Gw       1       2.1    28.086
    4897      st       1    MUSC   Si0Gx       1       2.1    28.086
    4898      st       1    MUSC   Si0Gy       1       2.1    28.086
    4899      st       1    MUSC   Si0Gz       1       2.1    28.086
    4900      st       1    MUSC   Si0H0       1       2.1    28.086
    4901      st       1    MUSC   Si0H1       1       2.1    28.086
    4902      st       1    MUSC   Si0H2       1       2.1    28.086
    4903      ob       1    MUSC   O00oL       1     -1.05    15.999
    4904      ob       1    MUSC   O00oM       1     -1.05    15.999
    4905      ob       1    MUSC   O00oN       1     -1.05    15.999
    4906      ob       1    MUSC   O00oO       1     -1.05    15.999
    4907      oh       1    MUSC   O00oP       1     -0.95    15.999
    4908      oh       1    MUSC   O00oQ       1     -0.95    15.999
    4909      oh       1    MUSC   O00oR       1     -0.95    15.999
    4910      oh       1    MUSC   O00oS       1     -0.95    15.999
    4911      ob       1    MUSC   O00oT       1     -1.05    15.999
    4912      ob       1    MUSC   O00oU       1     -1.05    15.999
    4913      ob       1    MUSC   O00oV       1     -1.05    15.999
    4914      ob       1    MUSC   O00oW       1     -1.05    15.999
    4915      ob       1    MUSC   O00oX       1     -1.05    15.999
    4916      ob       1    MUSC   O00oY       1     -1.05    15.999
    4917      ob       1    MUSC   O00oZ       1     -1.05    15.999
    4918      ob       1    MUSC   O00oa       1     -1.05    15.999
    4919      ob       1    MUSC   O00ob       1     -1.05    15.999
    4920      ob       1    MUSC   O00oc       1     -1.05    15.999
    4921      ob       1    MUSC   O00od       1     -1.05    15.999
    4922      ob       1    MUSC   O00oe       1     -1.05    15.999
    4923      ob       1    MUSC   O00of       1     -1.05    15.999
    4924      ob       1    MUSC   O00og       1     -1.05    15.999
    4925      ob       1    MUSC   O00oh       1     -1.05    15.999
    4926      ob       1    MUSC   O00oi       1     -1.05    15.999
    4927      ob       1    MUSC   O00oj       1     -1.05    15.999
    4928      ob       1    MUSC   O00ok       1     -1.05    15.999
    4929      ob       1    MUSC   O00ol       1     -1.05    15.999
    4930      ob       1    MUSC   O00om       1     -1.05    15.999
    4931      oh       1    MUSC   O00on       1     -0.95    15.999
    4932      oh       1    MUSC   O00oo       1     -0.95    15.999
    4933      oh       1    MUSC   O00op       1     -0.95    15.999
    4934      oh       1    MUSC   O00oq       1     -0.95    15.999
    4935      ob       1    MUSC   O00or       1     -1.05    15.999
    4936      ob       1    MUSC   O00os       1     -1.05    15.999
    4937      ob       1    MUSC   O00ot       1     -1.05    15.999
    4938      ob       1    MUSC   O00ou       1     -1.05    15.999
    4939      ob       1    MUSC   O00ov       1     -1.05    15.999
    4940      ob       1    MUSC   O00ow       1     -1.05    15.999
    4941      ob       1    MUSC   O00ox       1     -1.05    15.999
    4942      ob       1    MUSC   O00oy       1     -1.05    15.999
    4943      ob       1    MUSC   O00oz       1     -1.05    15.999
    4944      ob       1    MUSC   O00p0       1     -1.05    15.999
    4945      ob       1    MUSC   O00p1       1     -1.05    15.999
    4946      ob       1    MUSC   O00p2       1     -1.05    15.999
    4947      ob       1    MUSC   O00p3       1     -1.05    15.999
    4948      ob       1    MUSC   O00p4       1     -1.05    15.999
    4949      ob       1    MUSC   O00p5       1     -1.05    15.999
    4950      ob       1    MUSC   O00p6       1     -1.05    15.999
    4951       K       1    MUSC   K003D       1       1.0    39.098
    4952       K       1    MUSC   K003E       1       1.0    39.098
    4953      ao       1    MUSC   Al08X       1     1.575    26.982
    4954      ao       1    MUSC   Al08Y       1     1.575    26.982
    4955      ao       1    MUSC   Al08Z       1     1.575    26.982
    4956      ao       1    MUSC   Al08a       1     1.575    26.982
    4957      ao       1    MUSC   Al08b       1     1.575    26.982
    4958      ao       1    MUSC   Al08c       1     1.575    26.982
    4959      ao       1    MUSC   Al08d       1     1.575    26.982
    4960      ao       1    MUSC   Al08e       1     1.575    26.982
    4961      st       1    MUSC   Si0H3       1       2.1    28.086
    4962      st       1    MUSC   Si0H4       1       2.1    28.086
    4963      st       1    MUSC   Si0H5       1       2.1    28.086
    4964      st       1    MUSC   Si0H6       1       2.1    28.086
    4965      st       1    MUSC   Si0H7       1       2.1    28.086
    4966      st       1    MUSC   Si0H8       1       2.1    28.086
    4967      st       1    MUSC   Si0H9       1       2.1    28.086
    4968      st       1    MUSC   Si0HA       1       2.1    28.086
    4969      st       1    MUSC   Si0HB       1       2.1    28.086
    4970      st       1    MUSC   Si0HC       1       2.1    28.086
    4971      st       1    MUSC   Si0HD       1       2.1    28.086
    4972      st       1    MUSC   Si0HE       1       2.1    28.086
    4973      st       1    MUSC   Si0HF       1       2.1    28.086
    4974      st       1    MUSC   Si0HG       1       2.1    28.086
    4975      st       1    MUSC   Si0HH       1       2.1    28.086
    4976      st       1    MUSC   Si0HI       1       2.1    28.086
    4977      ob       1    MUSC   O00p7       1     -1.05    15.999
    4978      ob       1    MUSC   O00p8       1     -1.05    15.999
    4979      ob       1    MUSC   O00p9       1     -1.05    15.999
    4980      ob       1    MUSC   O00pA       1     -1.05    15.999
    4981      oh       1    MUSC   O00pB       1     -0.95    15.999
    4982      oh       1    MUSC   O00pC       1     -0.95    15.999
    4983      oh       1    MUSC   O00pD       1     -0.95    15.999
    4984      oh       1    MUSC   O00pE       1     -0.95    15.999
    4985      ob       1    MUSC   O00pF       1     -1.05    15.999
    4986      ob       1    MUSC   O00pG       1     -1.05    15.999
    4987      ob       1    MUSC   O00pH       1     -1.05    15.999
    4988      ob       1    MUSC   O00pI       1     -1.05    15.999
    4989      ob       1    MUSC   O00pJ       1     -1.05    15.999
    4990      ob       1    MUSC   O00pK       1     -1.05    15.999
    4991      ob       1    MUSC   O00pL       1     -1.05    15.999
    4992      ob       1    MUSC   O00pM       1     -1.05    15.999
    4993      ob       1    MUSC   O00pN       1     -1.05    15.999
    4994      ob       1    MUSC   O00pO       1     -1.05    15.999
    4995      ob       1    MUSC   O00pP       1     -1.05    15.999
    4996      ob       1    MUSC   O00pQ       1     -1.05    15.999
    4997      ob       1    MUSC   O00pR       1     -1.05    15.999
    4998      ob       1    MUSC   O00pS       1     -1.05    15.999
    4999      ob       1    MUSC   O00pT       1     -1.05    15.999
    5000      ob       1    MUSC   O00pU       1     -1.05    15.999
    5001      ob       1    MUSC   O00pV       1     -1.05    15.999
    5002      ob       1    MUSC   O00pW       1     -1.05    15.999
    5003      ob       1    MUSC   O00pX       1     -1.05    15.999
    5004      ob       1    MUSC   O00pY       1     -1.05    15.999
    5005      oh       1    MUSC   O00pZ       1     -0.95    15.999
    5006      oh       1    MUSC   O00pa       1     -0.95    15.999
    5007      oh       1    MUSC   O00pb       1     -0.95    15.999
    5008      oh       1    MUSC   O00pc       1     -0.95    15.999
    5009      ob       1    MUSC   O00pd       1     -1.05    15.999
    5010      ob       1    MUSC   O00pe       1     -1.05    15.999
    5011      ob       1    MUSC   O00pf       1     -1.05    15.999
    5012      ob       1    MUSC   O00pg       1     -1.05    15.999
    5013      ob       1    MUSC   O00ph       1     -1.05    15.999
    5014      ob       1    MUSC   O00pi       1     -1.05    15.999
    5015      ob       1    MUSC   O00pj       1     -1.05    15.999
    5016      ob       1    MUSC   O00pk       1     -1.05    15.999
    5017      ob       1    MUSC   O00pl       1     -1.05    15.999
    5018      ob       1    MUSC   O00pm       1     -1.05    15.999
    5019      ob       1    MUSC   O00pn       1     -1.05    15.999
    5020      ob       1    MUSC   O00po       1     -1.05    15.999
    5021      ob       1    MUSC   O00pp       1     -1.05    15.999
    5022      ob       1    MUSC   O00pq       1     -1.05    15.999
    5023      ob       1    MUSC   O00pr       1     -1.05    15.999
    5024      ob       1    MUSC   O00ps       1     -1.05    15.999
    5025       K       1    MUSC   K003F       1       1.0    39.098
    5026       K       1    MUSC   K003G       1       1.0    39.098
    5027       K       1    MUSC   K003H       1       1.0    39.098
    5028       K       1    MUSC   K003I       1       1.0    39.098
    5029      ao       1    MUSC   Al08f       1     1.575    26.982
    5030      ao       1    MUSC   Al08g       1     1.575    26.982
    5031      ao       1    MUSC   Al08h       1     1.575    26.982
    5032      ao       1    MUSC   Al08i       1     1.575    26.982
    5033      ao       1    MUSC   Al08j       1     1.575    26.982
    5034      ao       1    MUSC   Al08k       1     1.575    26.982
    5035      ao       1    MUSC   Al08l       1     1.575    26.982
    5036      ao       1    MUSC   Al08m       1     1.575    26.982
    5037      st       1    MUSC   Si0HJ       1       2.1    28.086
    5038      st       1    MUSC   Si0HK       1       2.1    28.086
    5039      st       1    MUSC   Si0HL       1       2.1    28.086
    5040      st       1    MUSC   Si0HM       1       2.1    28.086
    5041      st       1    MUSC   Si0HN       1       2.1    28.086
    5042      st       1    MUSC   Si0HO       1       2.1    28.086
    5043      st       1    MUSC   Si0HP       1       2.1    28.086
    5044      st       1    MUSC   Si0HQ       1       2.1    28.086
    5045      st       1    MUSC   Si0HR       1       2.1    28.086
    5046      st       1    MUSC   Si0HS       1       2.1    28.086
    5047      st       1    MUSC   Si0HT       1       2.1    28.086
    5048      st       1    MUSC   Si0HU       1       2.1    28.086
    5049      st       1    MUSC   Si0HV       1       2.1    28.086
    5050      st       1    MUSC   Si0HW       1       2.1    28.086
    5051      st       1    MUSC   Si0HX       1       2.1    28.086
    5052      st       1    MUSC   Si0HY       1       2.1    28.086
    5053      ob       1    MUSC   O00pt       1     -1.05    15.999
    5054      ob       1    MUSC   O00pu       1     -1.05    15.999
    5055      ob       1    MUSC   O00pv       1     -1.05    15.999
    5056      ob       1    MUSC   O00pw       1     -1.05    15.999
    5057      oh       1    MUSC   O00px       1     -0.95    15.999
    5058      oh       1    MUSC   O00py       1     -0.95    15.999
    5059      oh       1    MUSC   O00pz       1     -0.95    15.999
    5060      oh       1    MUSC   O00q0       1     -0.95    15.999
    5061      ob       1    MUSC   O00q1       1     -1.05    15.999
    5062      ob       1    MUSC   O00q2       1     -1.05    15.999
    5063      ob       1    MUSC   O00q3       1     -1.05    15.999
    5064      ob       1    MUSC   O00q4       1     -1.05    15.999
    5065      ob       1    MUSC   O00q5       1     -1.05    15.999
    5066      ob       1    MUSC   O00q6       1     -1.05    15.999
    5067      ob       1    MUSC   O00q7       1     -1.05    15.999
    5068      ob       1    MUSC   O00q8       1     -1.05    15.999
    5069      ob       1    MUSC   O00q9       1     -1.05    15.999
    5070      ob       1    MUSC   O00qA       1     -1.05    15.999
    5071      ob       1    MUSC   O00qB       1     -1.05    15.999
    5072      ob       1    MUSC   O00qC       1     -1.05    15.999
    5073      ob       1    MUSC   O00qD       1     -1.05    15.999
    5074      ob       1    MUSC   O00qE       1     -1.05    15.999
    5075      ob       1    MUSC   O00qF       1     -1.05    15.999
    5076      ob       1    MUSC   O00qG       1     -1.05    15.999
    5077      ob       1    MUSC   O00qH       1     -1.05    15.999
    5078      ob       1    MUSC   O00qI       1     -1.05    15.999
    5079      ob       1    MUSC   O00qJ       1     -1.05    15.999
    5080      ob       1    MUSC   O00qK       1     -1.05    15.999
    5081      oh       1    MUSC   O00qL       1     -0.95    15.999
    5082      oh       1    MUSC   O00qM       1     -0.95    15.999
    5083      oh       1    MUSC   O00qN       1     -0.95    15.999
    5084      oh       1    MUSC   O00qO       1     -0.95    15.999
    5085      ob       1    MUSC   O00qP       1     -1.05    15.999
    5086      ob       1    MUSC   O00qQ       1     -1.05    15.999
    5087      ob       1    MUSC   O00qR       1     -1.05    15.999
    5088      ob       1    MUSC   O00qS       1     -1.05    15.999
    5089      ob       1    MUSC   O00qT       1     -1.05    15.999
    5090      ob       1    MUSC   O00qU       1     -1.05    15.999
    5091      ob       1    MUSC   O00qV       1     -1.05    15.999
    5092      ob       1    MUSC   O00qW       1     -1.05    15.999
    5093      ob       1    MUSC   O00qX       1     -1.05    15.999
    5094      ob       1    MUSC   O00qY       1     -1.05    15.999
    5095      ob       1    MUSC   O00qZ       1     -1.05    15.999
    5096      ob       1    MUSC   O00qa       1     -1.05    15.999
    5097      ob       1    MUSC   O00qb       1     -1.05    15.999
    5098      ob       1    MUSC   O00qc       1     -1.05    15.999
    5099      ob       1    MUSC   O00qd       1     -1.05    15.999
    5100      ob       1    MUSC   O00qe       1     -1.05    15.999
    5101       K       1    MUSC   K003J       1       1.0    39.098
    5102       K       1    MUSC   K003K       1       1.0    39.098
    5103      ao       1    MUSC   Al08n       1     1.575    26.982
    5104      ao       1    MUSC   Al08o       1     1.575    26.982
    5105      ao       1    MUSC   Al08p       1     1.575    26.982
    5106      ao       1    MUSC   Al08q       1     1.575    26.982
    5107      ao       1    MUSC   Al08r       1     1.575    26.982
    5108      ao       1    MUSC   Al08s       1     1.575    26.982
    5109      ao       1    MUSC   Al08t       1     1.575    26.982
    5110      ao       1    MUSC   Al08u       1     1.575    26.982
    5111      st       1    MUSC   Si0HZ       1       2.1    28.086
    5112      st       1    MUSC   Si0Ha       1       2.1    28.086
    5113      st       1    MUSC   Si0Hb       1       2.1    28.086
    5114      st       1    MUSC   Si0Hc       1       2.1    28.086
    5115      st       1    MUSC   Si0Hd       1       2.1    28.086
    5116      st       1    MUSC   Si0He       1       2.1    28.086
    5117      st       1    MUSC   Si0Hf       1       2.1    28.086
    5118      st       1    MUSC   Si0Hg       1       2.1    28.086
    5119      st       1    MUSC   Si0Hh       1       2.1    28.086
    5120      st       1    MUSC   Si0Hi       1       2.1    28.086
    5121      st       1    MUSC   Si0Hj       1       2.1    28.086
    5122      st       1    MUSC   Si0Hk       1       2.1    28.086
    5123      st       1    MUSC   Si0Hl       1       2.1    28.086
    5124      st       1    MUSC   Si0Hm       1       2.1    28.086
    5125      st       1    MUSC   Si0Hn       1       2.1    28.086
    5126      st       1    MUSC   Si0Ho       1       2.1    28.086
    5127      ob       1    MUSC   O00qf       1     -1.05    15.999
    5128      ob       1    MUSC   O00qg       1     -1.05    15.999
    5129      ob       1    MUSC   O00qh       1     -1.05    15.999
    5130      ob       1    MUSC   O00qi       1     -1.05    15.999
    5131      oh       1    MUSC   O00qj       1     -0.95    15.999
    5132      oh       1    MUSC   O00qk       1     -0.95    15.999
    5133      oh       1    MUSC   O00ql       1     -0.95    15.999
    5134      oh       1    MUSC   O00qm       1     -0.95    15.999
    5135      ob       1    MUSC   O00qn       1     -1.05    15.999
    5136      ob       1    MUSC   O00qo       1     -1.05    15.999
    5137      ob       1    MUSC   O00qp       1     -1.05    15.999
    5138      ob       1    MUSC   O00qq       1     -1.05    15.999
    5139      ob       1    MUSC   O00qr       1     -1.05    15.999
    5140      ob       1    MUSC   O00qs       1     -1.05    15.999
    5141      ob       1    MUSC   O00qt       1     -1.05    15.999
    5142      ob       1    MUSC   O00qu       1     -1.05    15.999
    5143      ob       1    MUSC   O00qv       1     -1.05    15.999
    5144      ob       1    MUSC   O00qw       1     -1.05    15.999
    5145      ob       1    MUSC   O00qx       1     -1.05    15.999
    5146      ob       1    MUSC   O00qy       1     -1.05    15.999
    5147      ob       1    MUSC   O00qz       1     -1.05    15.999
    5148      ob       1    MUSC   O00r0       1     -1.05    15.999
    5149      ob       1    MUSC   O00r1       1     -1.05    15.999
    5150      ob       1    MUSC   O00r2       1     -1.05    15.999
    5151      ob       1    MUSC   O00r3       1     -1.05    15.999
    5152      ob       1    MUSC   O00r4       1     -1.05    15.999
    5153      ob       1    MUSC   O00r5       1     -1.05    15.999
    5154      ob       1    MUSC   O00r6       1     -1.05    15.999
    5155      oh       1    MUSC   O00r7       1     -0.95    15.999
    5156      oh       1    MUSC   O00r8       1     -0.95    15.999
    5157      oh       1    MUSC   O00r9       1     -0.95    15.999
    5158      oh       1    MUSC   O00rA       1     -0.95    15.999
    5159      ob       1    MUSC   O00rB       1     -1.05    15.999
    5160      ob       1    MUSC   O00rC       1     -1.05    15.999
    5161      ob       1    MUSC   O00rD       1     -1.05    15.999
    5162      ob       1    MUSC   O00rE       1     -1.05    15.999
    5163      ob       1    MUSC   O00rF       1     -1.05    15.999
    5164      ob       1    MUSC   O00rG       1     -1.05    15.999
    5165      ob       1    MUSC   O00rH       1     -1.05    15.999
    5166      ob       1    MUSC   O00rI       1     -1.05    15.999
    5167      ob       1    MUSC   O00rJ       1     -1.05    15.999
    5168      ob       1    MUSC   O00rK       1     -1.05    15.999
    5169      ob       1    MUSC   O00rL       1     -1.05    15.999
    5170      ob       1    MUSC   O00rM       1     -1.05    15.999
    5171      ob       1    MUSC   O00rN       1     -1.05    15.999
    5172      ob       1    MUSC   O00rO       1     -1.05    15.999
    5173      ob       1    MUSC   O00rP       1     -1.05    15.999
    5174      ob       1    MUSC   O00rQ       1     -1.05    15.999
    5175       K       1    MUSC   K003L       1       1.0    39.098
    5176       K       1    MUSC   K003M       1       1.0    39.098
    5177       K       1    MUSC   K003N       1       1.0    39.098
    5178       K       1    MUSC   K003O       1       1.0    39.098
    5179      ao       1    MUSC   Al08v       1     1.575    26.982
    5180      ao       1    MUSC   Al08w       1     1.575    26.982
    5181      ao       1    MUSC   Al08x       1     1.575    26.982
    5182      ao       1    MUSC   Al08y       1     1.575    26.982
    5183      ao       1    MUSC   Al08z       1     1.575    26.982
    5184      ao       1    MUSC   Al090       1     1.575    26.982
    5185      ao       1    MUSC   Al091       1     1.575    26.982
    5186      ao       1    MUSC   Al092       1     1.575    26.982
    5187      st       1    MUSC   Si0Hp       1       2.1    28.086
    5188      st       1    MUSC   Si0Hq       1       2.1    28.086
    5189      st       1    MUSC   Si0Hr       1       2.1    28.086
    5190      st       1    MUSC   Si0Hs       1       2.1    28.086
    5191      st       1    MUSC   Si0Ht       1       2.1    28.086
    5192      st       1    MUSC   Si0Hu       1       2.1    28.086
    5193      st       1    MUSC   Si0Hv       1       2.1    28.086
    5194      st       1    MUSC   Si0Hw       1       2.1    28.086
    5195      st       1    MUSC   Si0Hx       1       2.1    28.086
    5196      st       1    MUSC   Si0Hy       1       2.1    28.086
    5197      st       1    MUSC   Si0Hz       1       2.1    28.086
    5198      st       1    MUSC   Si0I0       1       2.1    28.086
    5199      st       1    MUSC   Si0I1       1       2.1    28.086
    5200      st       1    MUSC   Si0I2       1       2.1    28.086
    5201      st       1    MUSC   Si0I3       1       2.1    28.086
    5202      st       1    MUSC   Si0I4       1       2.1    28.086
    5203      ob       1    MUSC   O00rR       1     -1.05    15.999
    5204      ob       1    MUSC   O00rS       1     -1.05    15.999
    5205      ob       1    MUSC   O00rT       1     -1.05    15.999
    5206      ob       1    MUSC   O00rU       1     -1.05    15.999
    5207      oh       1    MUSC   O00rV       1     -0.95    15.999
    5208      oh       1    MUSC   O00rW       1     -0.95    15.999
    5209      oh       1    MUSC   O00rX       1     -0.95    15.999
    5210      oh       1    MUSC   O00rY       1     -0.95    15.999
    5211      ob       1    MUSC   O00rZ       1     -1.05    15.999
    5212      ob       1    MUSC   O00ra       1     -1.05    15.999
    5213      ob       1    MUSC   O00rb       1     -1.05    15.999
    5214      ob       1    MUSC   O00rc       1     -1.05    15.999
    5215      ob       1    MUSC   O00rd       1     -1.05    15.999
    5216      ob       1    MUSC   O00re       1     -1.05    15.999
    5217      ob       1    MUSC   O00rf       1     -1.05    15.999
    5218      ob       1    MUSC   O00rg       1     -1.05    15.999
    5219      ob       1    MUSC   O00rh       1     -1.05    15.999
    5220      ob       1    MUSC   O00ri       1     -1.05    15.999
    5221      ob       1    MUSC   O00rj       1     -1.05    15.999
    5222      ob       1    MUSC   O00rk       1     -1.05    15.999
    5223      ob       1    MUSC   O00rl       1     -1.05    15.999
    5224      ob       1    MUSC   O00rm       1     -1.05    15.999
    5225      ob       1    MUSC   O00rn       1     -1.05    15.999
    5226      ob       1    MUSC   O00ro       1     -1.05    15.999
    5227      ob       1    MUSC   O00rp       1     -1.05    15.999
    5228      ob       1    MUSC   O00rq       1     -1.05    15.999
    5229      ob       1    MUSC   O00rr       1     -1.05    15.999
    5230      ob       1    MUSC   O00rs       1     -1.05    15.999
    5231      oh       1    MUSC   O00rt       1     -0.95    15.999
    5232      oh       1    MUSC   O00ru       1     -0.95    15.999
    5233      oh       1    MUSC   O00rv       1     -0.95    15.999
    5234      oh       1    MUSC   O00rw       1     -0.95    15.999
    5235      ob       1    MUSC   O00rx       1     -1.05    15.999
    5236      ob       1    MUSC   O00ry       1     -1.05    15.999
    5237      ob       1    MUSC   O00rz       1     -1.05    15.999
    5238      ob       1    MUSC   O00s0       1     -1.05    15.999
    5239      ob       1    MUSC   O00s1       1     -1.05    15.999
    5240      ob       1    MUSC   O00s2       1     -1.05    15.999
    5241      ob       1    MUSC   O00s3       1     -1.05    15.999
    5242      ob       1    MUSC   O00s4       1     -1.05    15.999
    5243      ob       1    MUSC   O00s5       1     -1.05    15.999
    5244      ob       1    MUSC   O00s6       1     -1.05    15.999
    5245      ob       1    MUSC   O00s7       1     -1.05    15.999
    5246      ob       1    MUSC   O00s8       1     -1.05    15.999
    5247      ob       1    MUSC   O00s9       1     -1.05    15.999
    5248      ob       1    MUSC   O00sA       1     -1.05    15.999
    5249      ob       1    MUSC   O00sB       1     -1.05    15.999
    5250      ob       1    MUSC   O00sC       1     -1.05    15.999
    5251       K       1    MUSC   K003P       1       1.0    39.098
    5252       K       1    MUSC   K003Q       1       1.0    39.098
    5253      ao       1    MUSC   Al093       1     1.575    26.982
    5254      ao       1    MUSC   Al094       1     1.575    26.982
    5255      ao       1    MUSC   Al095       1     1.575    26.982
    5256      ao       1    MUSC   Al096       1     1.575    26.982
    5257      ao       1    MUSC   Al097       1     1.575    26.982
    5258      ao       1    MUSC   Al098       1     1.575    26.982
    5259      ao       1    MUSC   Al099       1     1.575    26.982
    5260      ao       1    MUSC   Al09A       1     1.575    26.982
    5261      st       1    MUSC   Si0I5       1       2.1    28.086
    5262      st       1    MUSC   Si0I6       1       2.1    28.086
    5263      st       1    MUSC   Si0I7       1       2.1    28.086
    5264      st       1    MUSC   Si0I8       1       2.1    28.086
    5265      st       1    MUSC   Si0I9       1       2.1    28.086
    5266      st       1    MUSC   Si0IA       1       2.1    28.086
    5267      st       1    MUSC   Si0IB       1       2.1    28.086
    5268      st       1    MUSC   Si0IC       1       2.1    28.086
    5269      st       1    MUSC   Si0ID       1       2.1    28.086
    5270      st       1    MUSC   Si0IE       1       2.1    28.086
    5271      st       1    MUSC   Si0IF       1       2.1    28.086
    5272      st       1    MUSC   Si0IG       1       2.1    28.086
    5273      st       1    MUSC   Si0IH       1       2.1    28.086
    5274      st       1    MUSC   Si0II       1       2.1    28.086
    5275      st       1    MUSC   Si0IJ       1       2.1    28.086
    5276      st       1    MUSC   Si0IK       1       2.1    28.086
    5277      ob       1    MUSC   O00sD       1     -1.05    15.999
    5278      ob       1    MUSC   O00sE       1     -1.05    15.999
    5279      ob       1    MUSC   O00sF       1     -1.05    15.999
    5280      ob       1    MUSC   O00sG       1     -1.05    15.999
    5281      oh       1    MUSC   O00sH       1     -0.95    15.999
    5282      oh       1    MUSC   O00sI       1     -0.95    15.999
    5283      oh       1    MUSC   O00sJ       1     -0.95    15.999
    5284      oh       1    MUSC   O00sK       1     -0.95    15.999
    5285      ob       1    MUSC   O00sL       1     -1.05    15.999
    5286      ob       1    MUSC   O00sM       1     -1.05    15.999
    5287      ob       1    MUSC   O00sN       1     -1.05    15.999
    5288      ob       1    MUSC   O00sO       1     -1.05    15.999
    5289      ob       1    MUSC   O00sP       1     -1.05    15.999
    5290      ob       1    MUSC   O00sQ       1     -1.05    15.999
    5291      ob       1    MUSC   O00sR       1     -1.05    15.999
    5292      ob       1    MUSC   O00sS       1     -1.05    15.999
    5293      ob       1    MUSC   O00sT       1     -1.05    15.999
    5294      ob       1    MUSC   O00sU       1     -1.05    15.999
    5295      ob       1    MUSC   O00sV       1     -1.05    15.999
    5296      ob       1    MUSC   O00sW       1     -1.05    15.999
    5297      ob       1    MUSC   O00sX       1     -1.05    15.999
    5298      ob       1    MUSC   O00sY       1     -1.05    15.999
    5299      ob       1    MUSC   O00sZ       1     -1.05    15.999
    5300      ob       1    MUSC   O00sa       1     -1.05    15.999
    5301      ob       1    MUSC   O00sb       1     -1.05    15.999
    5302      ob       1    MUSC   O00sc       1     -1.05    15.999
    5303      ob       1    MUSC   O00sd       1     -1.05    15.999
    5304      ob       1    MUSC   O00se       1     -1.05    15.999
    5305      oh       1    MUSC   O00sf       1     -0.95    15.999
    5306      oh       1    MUSC   O00sg       1     -0.95    15.999
    5307      oh       1    MUSC   O00sh       1     -0.95    15.999
    5308      oh       1    MUSC   O00si       1     -0.95    15.999
    5309      ob       1    MUSC   O00sj       1     -1.05    15.999
    5310      ob       1    MUSC   O00sk       1     -1.05    15.999
    5311      ob       1    MUSC   O00sl       1     -1.05    15.999
    5312      ob       1    MUSC   O00sm       1     -1.05    15.999
    5313      ob       1    MUSC   O00sn       1     -1.05    15.999
    5314      ob       1    MUSC   O00so       1     -1.05    15.999
    5315      ob       1    MUSC   O00sp       1     -1.05    15.999
    5316      ob       1    MUSC   O00sq       1     -1.05    15.999
    5317      ob       1    MUSC   O00sr       1     -1.05    15.999
    5318      ob       1    MUSC   O00ss       1     -1.05    15.999
    5319      ob       1    MUSC   O00st       1     -1.05    15.999
    5320      ob       1    MUSC   O00su       1     -1.05    15.999
    5321      ob       1    MUSC   O00sv       1     -1.05    15.999
    5322      ob       1    MUSC   O00sw       1     -1.05    15.999
    5323      ob       1    MUSC   O00sx       1     -1.05    15.999
    5324      ob       1    MUSC   O00sy       1     -1.05    15.999
    5325       K       1    MUSC   K003R       1       1.0    39.098
    5326       K       1    MUSC   K003S       1       1.0    39.098
    5327       K       1    MUSC   K003T       1       1.0    39.098
    5328       K       1    MUSC   K003U       1       1.0    39.098
    5329      ao       1    MUSC   Al09B       1     1.575    26.982
    5330      ao       1    MUSC   Al09C       1     1.575    26.982
    5331      ao       1    MUSC   Al09D       1     1.575    26.982
    5332      ao       1    MUSC   Al09E       1     1.575    26.982
    5333      ao       1    MUSC   Al09F       1     1.575    26.982
    5334      ao       1    MUSC   Al09G       1     1.575    26.982
    5335      ao       1    MUSC   Al09H       1     1.575    26.982
    5336      ao       1    MUSC   Al09I       1     1.575    26.982
    5337      st       1    MUSC   Si0IL       1       2.1    28.086
    5338      st       1    MUSC   Si0IM       1       2.1    28.086
    5339      st       1    MUSC   Si0IN       1       2.1    28.086
    5340      st       1    MUSC   Si0IO       1       2.1    28.086
    5341      st       1    MUSC   Si0IP       1       2.1    28.086
    5342      st       1    MUSC   Si0IQ       1       2.1    28.086
    5343      st       1    MUSC   Si0IR       1       2.1    28.086
    5344      st       1    MUSC   Si0IS       1       2.1    28.086
    5345      st       1    MUSC   Si0IT       1       2.1    28.086
    5346      st       1    MUSC   Si0IU       1       2.1    28.086
    5347      st       1    MUSC   Si0IV       1       2.1    28.086
    5348      st       1    MUSC   Si0IW       1       2.1    28.086
    5349      st       1    MUSC   Si0IX       1       2.1    28.086
    5350      st       1    MUSC   Si0IY       1       2.1    28.086
    5351      st       1    MUSC   Si0IZ       1       2.1    28.086
    5352      st       1    MUSC   Si0Ia       1       2.1    28.086
    5353      ob       1    MUSC   O00sz       1     -1.05    15.999
    5354      ob       1    MUSC   O00t0       1     -1.05    15.999
    5355      ob       1    MUSC   O00t1       1     -1.05    15.999
    5356      ob       1    MUSC   O00t2       1     -1.05    15.999
    5357      oh       1    MUSC   O00t3       1     -0.95    15.999
    5358      oh       1    MUSC   O00t4       1     -0.95    15.999
    5359      oh       1    MUSC   O00t5       1     -0.95    15.999
    5360      oh       1    MUSC   O00t6       1     -0.95    15.999
    5361      ob       1    MUSC   O00t7       1     -1.05    15.999
    5362      ob       1    MUSC   O00t8       1     -1.05    15.999
    5363      ob       1    MUSC   O00t9       1     -1.05    15.999
    5364      ob       1    MUSC   O00tA       1     -1.05    15.999
    5365      ob       1    MUSC   O00tB       1     -1.05    15.999
    5366      ob       1    MUSC   O00tC       1     -1.05    15.999
    5367      ob       1    MUSC   O00tD       1     -1.05    15.999
    5368      ob       1    MUSC   O00tE       1     -1.05    15.999
    5369      ob       1    MUSC   O00tF       1     -1.05    15.999
    5370      ob       1    MUSC   O00tG       1     -1.05    15.999
    5371      ob       1    MUSC   O00tH       1     -1.05    15.999
    5372      ob       1    MUSC   O00tI       1     -1.05    15.999
    5373      ob       1    MUSC   O00tJ       1     -1.05    15.999
    5374      ob       1    MUSC   O00tK       1     -1.05    15.999
    5375      ob       1    MUSC   O00tL       1     -1.05    15.999
    5376      ob       1    MUSC   O00tM       1     -1.05    15.999
    5377      ob       1    MUSC   O00tN       1     -1.05    15.999
    5378      ob       1    MUSC   O00tO       1     -1.05    15.999
    5379      ob       1    MUSC   O00tP       1     -1.05    15.999
    5380      ob       1    MUSC   O00tQ       1     -1.05    15.999
    5381      oh       1    MUSC   O00tR       1     -0.95    15.999
    5382      oh       1    MUSC   O00tS       1     -0.95    15.999
    5383      oh       1    MUSC   O00tT       1     -0.95    15.999
    5384      oh       1    MUSC   O00tU       1     -0.95    15.999
    5385      ob       1    MUSC   O00tV       1     -1.05    15.999
    5386      ob       1    MUSC   O00tW       1     -1.05    15.999
    5387      ob       1    MUSC   O00tX       1     -1.05    15.999
    5388      ob       1    MUSC   O00tY       1     -1.05    15.999
    5389      ob       1    MUSC   O00tZ       1     -1.05    15.999
    5390      ob       1    MUSC   O00ta       1     -1.05    15.999
    5391      ob       1    MUSC   O00tb       1     -1.05    15.999
    5392      ob       1    MUSC   O00tc       1     -1.05    15.999
    5393      ob       1    MUSC   O00td       1     -1.05    15.999
    5394      ob       1    MUSC   O00te       1     -1.05    15.999
    5395      ob       1    MUSC   O00tf       1     -1.05    15.999
    5396      ob       1    MUSC   O00tg       1     -1.05    15.999
    5397      ob       1    MUSC   O00th       1     -1.05    15.999
    5398      ob       1    MUSC   O00ti       1     -1.05    15.999
    5399      ob       1    MUSC   O00tj       1     -1.05    15.999
    5400      ob       1    MUSC   O00tk       1     -1.05    15.999
    5401       K       1    MUSC   K003V       1       1.0    39.098
    5402       K       1    MUSC   K003W       1       1.0    39.098
    5403      ao       1    MUSC   Al09J       1     1.575    26.982
    5404      ao       1    MUSC   Al09K       1     1.575    26.982
    5405      ao       1    MUSC   Al09L       1     1.575    26.982
    5406      ao       1    MUSC   Al09M       1     1.575    26.982
    5407      ao       1    MUSC   Al09N       1     1.575    26.982
    5408      ao       1    MUSC   Al09O       1     1.575    26.982
    5409      ao       1    MUSC   Al09P       1     1.575    26.982
    5410      ao       1    MUSC   Al09Q       1     1.575    26.982
    5411      st       1    MUSC   Si0Ib       1       2.1    28.086
    5412      st       1    MUSC   Si0Ic       1       2.1    28.086
    5413      st       1    MUSC   Si0Id       1       2.1    28.086
    5414      st       1    MUSC   Si0Ie       1       2.1    28.086
    5415      st       1    MUSC   Si0If       1       2.1    28.086
    5416      st       1    MUSC   Si0Ig       1       2.1    28.086
    5417      st       1    MUSC   Si0Ih       1       2.1    28.086
    5418      st       1    MUSC   Si0Ii       1       2.1    28.086
    5419      st       1    MUSC   Si0Ij       1       2.1    28.086
    5420      st       1    MUSC   Si0Ik       1       2.1    28.086
    5421      st       1    MUSC   Si0Il       1       2.1    28.086
    5422      st       1    MUSC   Si0Im       1       2.1    28.086
    5423      st       1    MUSC   Si0In       1       2.1    28.086
    5424      st       1    MUSC   Si0Io       1       2.1    28.086
    5425      st       1    MUSC   Si0Ip       1       2.1    28.086
    5426      st       1    MUSC   Si0Iq       1       2.1    28.086
    5427      ob       1    MUSC   O00tl       1     -1.05    15.999
    5428      ob       1    MUSC   O00tm       1     -1.05    15.999
    5429      ob       1    MUSC   O00tn       1     -1.05    15.999
    5430      ob       1    MUSC   O00to       1     -1.05    15.999
    5431      oh       1    MUSC   O00tp       1     -0.95    15.999
    5432      oh       1    MUSC   O00tq       1     -0.95    15.999
    5433      oh       1    MUSC   O00tr       1     -0.95    15.999
    5434      oh       1    MUSC   O00ts       1     -0.95    15.999
    5435      ob       1    MUSC   O00tt       1     -1.05    15.999
    5436      ob       1    MUSC   O00tu       1     -1.05    15.999
    5437      ob       1    MUSC   O00tv       1     -1.05    15.999
    5438      ob       1    MUSC   O00tw       1     -1.05    15.999
    5439      ob       1    MUSC   O00tx       1     -1.05    15.999
    5440      ob       1    MUSC   O00ty       1     -1.05    15.999
    5441      ob       1    MUSC   O00tz       1     -1.05    15.999
    5442      ob       1    MUSC   O00u0       1     -1.05    15.999
    5443      ob       1    MUSC   O00u1       1     -1.05    15.999
    5444      ob       1    MUSC   O00u2       1     -1.05    15.999
    5445      ob       1    MUSC   O00u3       1     -1.05    15.999
    5446      ob       1    MUSC   O00u4       1     -1.05    15.999
    5447      ob       1    MUSC   O00u5       1     -1.05    15.999
    5448      ob       1    MUSC   O00u6       1     -1.05    15.999
    5449      ob       1    MUSC   O00u7       1     -1.05    15.999
    5450      ob       1    MUSC   O00u8       1     -1.05    15.999
    5451      ob       1    MUSC   O00u9       1     -1.05    15.999
    5452      ob       1    MUSC   O00uA       1     -1.05    15.999
    5453      ob       1    MUSC   O00uB       1     -1.05    15.999
    5454      ob       1    MUSC   O00uC       1     -1.05    15.999
    5455      oh       1    MUSC   O00uD       1     -0.95    15.999
    5456      oh       1    MUSC   O00uE       1     -0.95    15.999
    5457      oh       1    MUSC   O00uF       1     -0.95    15.999
    5458      oh       1    MUSC   O00uG       1     -0.95    15.999
    5459      ob       1    MUSC   O00uH       1     -1.05    15.999
    5460      ob       1    MUSC   O00uI       1     -1.05    15.999
    5461      ob       1    MUSC   O00uJ       1     -1.05    15.999
    5462      ob       1    MUSC   O00uK       1     -1.05    15.999
    5463      ob       1    MUSC   O00uL       1     -1.05    15.999
    5464      ob       1    MUSC   O00uM       1     -1.05    15.999
    5465      ob       1    MUSC   O00uN       1     -1.05    15.999
    5466      ob       1    MUSC   O00uO       1     -1.05    15.999
    5467      ob       1    MUSC   O00uP       1     -1.05    15.999
    5468      ob       1    MUSC   O00uQ       1     -1.05    15.999
    5469      ob       1    MUSC   O00uR       1     -1.05    15.999
    5470      ob       1    MUSC   O00uS       1     -1.05    15.999
    5471      ob       1    MUSC   O00uT       1     -1.05    15.999
    5472      ob       1    MUSC   O00uU       1     -1.05    15.999
    5473      ob       1    MUSC   O00uV       1     -1.05    15.999
    5474      ob       1    MUSC   O00uW       1     -1.05    15.999
    5475       K       1    MUSC   K003X       1       1.0    39.098
    5476       K       1    MUSC   K003Y       1       1.0    39.098
    5477       K       1    MUSC   K003Z       1       1.0    39.098
    5478       K       1    MUSC   K003a       1       1.0    39.098
    5479      ao       1    MUSC   Al09R       1     1.575    26.982
    5480      ao       1    MUSC   Al09S       1     1.575    26.982
    5481      ao       1    MUSC   Al09T       1     1.575    26.982
    5482      ao       1    MUSC   Al09U       1     1.575    26.982
    5483      ao       1    MUSC   Al09V       1     1.575    26.982
    5484      ao       1    MUSC   Al09W       1     1.575    26.982
    5485      ao       1    MUSC   Al09X       1     1.575    26.982
    5486      ao       1    MUSC   Al09Y       1     1.575    26.982
    5487      st       1    MUSC   Si0Ir       1       2.1    28.086
    5488      st       1    MUSC   Si0Is       1       2.1    28.086
    5489      st       1    MUSC   Si0It       1       2.1    28.086
    5490      st       1    MUSC   Si0Iu       1       2.1    28.086
    5491      st       1    MUSC   Si0Iv       1       2.1    28.086
    5492      st       1    MUSC   Si0Iw       1       2.1    28.086
    5493      st       1    MUSC   Si0Ix       1       2.1    28.086
    5494      st       1    MUSC   Si0Iy       1       2.1    28.086
    5495      st       1    MUSC   Si0Iz       1       2.1    28.086
    5496      st       1    MUSC   Si0J0       1       2.1    28.086
    5497      st       1    MUSC   Si0J1       1       2.1    28.086
    5498      st       1    MUSC   Si0J2       1       2.1    28.086
    5499      st       1    MUSC   Si0J3       1       2.1    28.086
    5500      st       1    MUSC   Si0J4       1       2.1    28.086
    5501      st       1    MUSC   Si0J5       1       2.1    28.086
    5502      st       1    MUSC   Si0J6       1       2.1    28.086
    5503      ob       1    MUSC   O00uX       1     -1.05    15.999
    5504      ob       1    MUSC   O00uY       1     -1.05    15.999
    5505      ob       1    MUSC   O00uZ       1     -1.05    15.999
    5506      ob       1    MUSC   O00ua       1     -1.05    15.999
    5507      oh       1    MUSC   O00ub       1     -0.95    15.999
    5508      oh       1    MUSC   O00uc       1     -0.95    15.999
    5509      oh       1    MUSC   O00ud       1     -0.95    15.999
    5510      oh       1    MUSC   O00ue       1     -0.95    15.999
    5511      ob       1    MUSC   O00uf       1     -1.05    15.999
    5512      ob       1    MUSC   O00ug       1     -1.05    15.999
    5513      ob       1    MUSC   O00uh       1     -1.05    15.999
    5514      ob       1    MUSC   O00ui       1     -1.05    15.999
    5515      ob       1    MUSC   O00uj       1     -1.05    15.999
    5516      ob       1    MUSC   O00uk       1     -1.05    15.999
    5517      ob       1    MUSC   O00ul       1     -1.05    15.999
    5518      ob       1    MUSC   O00um       1     -1.05    15.999
    5519      ob       1    MUSC   O00un       1     -1.05    15.999
    5520      ob       1    MUSC   O00uo       1     -1.05    15.999
    5521      ob       1    MUSC   O00up       1     -1.05    15.999
    5522      ob       1    MUSC   O00uq       1     -1.05    15.999
    5523      ob       1    MUSC   O00ur       1     -1.05    15.999
    5524      ob       1    MUSC   O00us       1     -1.05    15.999
    5525      ob       1    MUSC   O00ut       1     -1.05    15.999
    5526      ob       1    MUSC   O00uu       1     -1.05    15.999
    5527      ob       1    MUSC   O00uv       1     -1.05    15.999
    5528      ob       1    MUSC   O00uw       1     -1.05    15.999
    5529      ob       1    MUSC   O00ux       1     -1.05    15.999
    5530      ob       1    MUSC   O00uy       1     -1.05    15.999
    5531      oh       1    MUSC   O00uz       1     -0.95    15.999
    5532      oh       1    MUSC   O00v0       1     -0.95    15.999
    5533      oh       1    MUSC   O00v1       1     -0.95    15.999
    5534      oh       1    MUSC   O00v2       1     -0.95    15.999
    5535      ob       1    MUSC   O00v3       1     -1.05    15.999
    5536      ob       1    MUSC   O00v4       1     -1.05    15.999
    5537      ob       1    MUSC   O00v5       1     -1.05    15.999
    5538      ob       1    MUSC   O00v6       1     -1.05    15.999
    5539      ob       1    MUSC   O00v7       1     -1.05    15.999
    5540      ob       1    MUSC   O00v8       1     -1.05    15.999
    5541      ob       1    MUSC   O00v9       1     -1.05    15.999
    5542      ob       1    MUSC   O00vA       1     -1.05    15.999
    5543      ob       1    MUSC   O00vB       1     -1.05    15.999
    5544      ob       1    MUSC   O00vC       1     -1.05    15.999
    5545      ob       1    MUSC   O00vD       1     -1.05    15.999
    5546      ob       1    MUSC   O00vE       1     -1.05    15.999
    5547      ob       1    MUSC   O00vF       1     -1.05    15.999
    5548      ob       1    MUSC   O00vG       1     -1.05    15.999
    5549      ob       1    MUSC   O00vH       1     -1.05    15.999
    5550      ob       1    MUSC   O00vI       1     -1.05    15.999
    5551       K       1    MUSC   K003b       1       1.0    39.098
    5552       K       1    MUSC   K003c       1       1.0    39.098
    5553      ao       1    MUSC   Al09Z       1     1.575    26.982
    5554      ao       1    MUSC   Al09a       1     1.575    26.982
    5555      ao       1    MUSC   Al09b       1     1.575    26.982
    5556      ao       1    MUSC   Al09c       1     1.575    26.982
    5557      ao       1    MUSC   Al09d       1     1.575    26.982
    5558      ao       1    MUSC   Al09e       1     1.575    26.982
    5559      ao       1    MUSC   Al09f       1     1.575    26.982
    5560      ao       1    MUSC   Al09g       1     1.575    26.982
    5561      st       1    MUSC   Si0J7       1       2.1    28.086
    5562      st       1    MUSC   Si0J8       1       2.1    28.086
    5563      st       1    MUSC   Si0J9       1       2.1    28.086
    5564      st       1    MUSC   Si0JA       1       2.1    28.086
    5565      st       1    MUSC   Si0JB       1       2.1    28.086
    5566      st       1    MUSC   Si0JC       1       2.1    28.086
    5567      st       1    MUSC   Si0JD       1       2.1    28.086
    5568      st       1    MUSC   Si0JE       1       2.1    28.086
    5569      st       1    MUSC   Si0JF       1       2.1    28.086
    5570      st       1    MUSC   Si0JG       1       2.1    28.086
    5571      st       1    MUSC   Si0JH       1       2.1    28.086
    5572      st       1    MUSC   Si0JI       1       2.1    28.086
    5573      st       1    MUSC   Si0JJ       1       2.1    28.086
    5574      st       1    MUSC   Si0JK       1       2.1    28.086
    5575      st       1    MUSC   Si0JL       1       2.1    28.086
    5576      st       1    MUSC   Si0JM       1       2.1    28.086
    5577      ob       1    MUSC   O00vJ       1     -1.05    15.999
    5578      ob       1    MUSC   O00vK       1     -1.05    15.999
    5579      ob       1    MUSC   O00vL       1     -1.05    15.999
    5580      ob       1    MUSC   O00vM       1     -1.05    15.999
    5581      oh       1    MUSC   O00vN       1     -0.95    15.999
    5582      oh       1    MUSC   O00vO       1     -0.95    15.999
    5583      oh       1    MUSC   O00vP       1     -0.95    15.999
    5584      oh       1    MUSC   O00vQ       1     -0.95    15.999
    5585      ob       1    MUSC   O00vR       1     -1.05    15.999
    5586      ob       1    MUSC   O00vS       1     -1.05    15.999
    5587      ob       1    MUSC   O00vT       1     -1.05    15.999
    5588      ob       1    MUSC   O00vU       1     -1.05    15.999
    5589      ob       1    MUSC   O00vV       1     -1.05    15.999
    5590      ob       1    MUSC   O00vW       1     -1.05    15.999
    5591      ob       1    MUSC   O00vX       1     -1.05    15.999
    5592      ob       1    MUSC   O00vY       1     -1.05    15.999
    5593      ob       1    MUSC   O00vZ       1     -1.05    15.999
    5594      ob       1    MUSC   O00va       1     -1.05    15.999
    5595      ob       1    MUSC   O00vb       1     -1.05    15.999
    5596      ob       1    MUSC   O00vc       1     -1.05    15.999
    5597      ob       1    MUSC   O00vd       1     -1.05    15.999
    5598      ob       1    MUSC   O00ve       1     -1.05    15.999
    5599      ob       1    MUSC   O00vf       1     -1.05    15.999
    5600      ob       1    MUSC   O00vg       1     -1.05    15.999
    5601      ob       1    MUSC   O00vh       1     -1.05    15.999
    5602      ob       1    MUSC   O00vi       1     -1.05    15.999
    5603      ob       1    MUSC   O00vj       1     -1.05    15.999
    5604      ob       1    MUSC   O00vk       1     -1.05    15.999
    5605      oh       1    MUSC   O00vl       1     -0.95    15.999
    5606      oh       1    MUSC   O00vm       1     -0.95    15.999
    5607      oh       1    MUSC   O00vn       1     -0.95    15.999
    5608      oh       1    MUSC   O00vo       1     -0.95    15.999
    5609      ob       1    MUSC   O00vp       1     -1.05    15.999
    5610      ob       1    MUSC   O00vq       1     -1.05    15.999
    5611      ob       1    MUSC   O00vr       1     -1.05    15.999
    5612      ob       1    MUSC   O00vs       1     -1.05    15.999
    5613      ob       1    MUSC   O00vt       1     -1.05    15.999
    5614      ob       1    MUSC   O00vu       1     -1.05    15.999
    5615      ob       1    MUSC   O00vv       1     -1.05    15.999
    5616      ob       1    MUSC   O00vw       1     -1.05    15.999
    5617      ob       1    MUSC   O00vx       1     -1.05    15.999
    5618      ob       1    MUSC   O00vy       1     -1.05    15.999
    5619      ob       1    MUSC   O00vz       1     -1.05    15.999
    5620      ob       1    MUSC   O00w0       1     -1.05    15.999
    5621      ob       1    MUSC   O00w1       1     -1.05    15.999
    5622      ob       1    MUSC   O00w2       1     -1.05    15.999
    5623      ob       1    MUSC   O00w3       1     -1.05    15.999
    5624      ob       1    MUSC   O00w4       1     -1.05    15.999
    5625       K       1    MUSC   K003d       1       1.0    39.098
    5626       K       1    MUSC   K003e       1       1.0    39.098
    5627       K       1    MUSC   K003f       1       1.0    39.098
    5628       K       1    MUSC   K003g       1       1.0    39.098
    5629      ao       1    MUSC   Al09h       1     1.575    26.982
    5630      ao       1    MUSC   Al09i       1     1.575    26.982
    5631      ao       1    MUSC   Al09j       1     1.575    26.982
    5632      ao       1    MUSC   Al09k       1     1.575    26.982
    5633      ao       1    MUSC   Al09l       1     1.575    26.982
    5634      ao       1    MUSC   Al09m       1     1.575    26.982
    5635      ao       1    MUSC   Al09n       1     1.575    26.982
    5636      ao       1    MUSC   Al09o       1     1.575    26.982
    5637      st       1    MUSC   Si0JN       1       2.1    28.086
    5638      st       1    MUSC   Si0JO       1       2.1    28.086
    5639      st       1    MUSC   Si0JP       1       2.1    28.086
    5640      st       1    MUSC   Si0JQ       1       2.1    28.086
    5641      st       1    MUSC   Si0JR       1       2.1    28.086
    5642      st       1    MUSC   Si0JS       1       2.1    28.086
    5643      st       1    MUSC   Si0JT       1       2.1    28.086
    5644      st       1    MUSC   Si0JU       1       2.1    28.086
    5645      st       1    MUSC   Si0JV       1       2.1    28.086
    5646      st       1    MUSC   Si0JW       1       2.1    28.086
    5647      st       1    MUSC   Si0JX       1       2.1    28.086
    5648      st       1    MUSC   Si0JY       1       2.1    28.086
    5649      st       1    MUSC   Si0JZ       1       2.1    28.086
    5650      st       1    MUSC   Si0Ja       1       2.1    28.086
    5651      st       1    MUSC   Si0Jb       1       2.1    28.086
    5652      st       1    MUSC   Si0Jc       1       2.1    28.086
    5653      ob       1    MUSC   O00w5       1     -1.05    15.999
    5654      ob       1    MUSC   O00w6       1     -1.05    15.999
    5655      ob       1    MUSC   O00w7       1     -1.05    15.999
    5656      ob       1    MUSC   O00w8       1     -1.05    15.999
    5657      oh       1    MUSC   O00w9       1     -0.95    15.999
    5658      oh       1    MUSC   O00wA       1     -0.95    15.999
    5659      oh       1    MUSC   O00wB       1     -0.95    15.999
    5660      oh       1    MUSC   O00wC       1     -0.95    15.999
    5661      ob       1    MUSC   O00wD       1     -1.05    15.999
    5662      ob       1    MUSC   O00wE       1     -1.05    15.999
    5663      ob       1    MUSC   O00wF       1     -1.05    15.999
    5664      ob       1    MUSC   O00wG       1     -1.05    15.999
    5665      ob       1    MUSC   O00wH       1     -1.05    15.999
    5666      ob       1    MUSC   O00wI       1     -1.05    15.999
    5667      ob       1    MUSC   O00wJ       1     -1.05    15.999
    5668      ob       1    MUSC   O00wK       1     -1.05    15.999
    5669      ob       1    MUSC   O00wL       1     -1.05    15.999
    5670      ob       1    MUSC   O00wM       1     -1.05    15.999
    5671      ob       1    MUSC   O00wN       1     -1.05    15.999
    5672      ob       1    MUSC   O00wO       1     -1.05    15.999
    5673      ob       1    MUSC   O00wP       1     -1.05    15.999
    5674      ob       1    MUSC   O00wQ       1     -1.05    15.999
    5675      ob       1    MUSC   O00wR       1     -1.05    15.999
    5676      ob       1    MUSC   O00wS       1     -1.05    15.999
    5677      ob       1    MUSC   O00wT       1     -1.05    15.999
    5678      ob       1    MUSC   O00wU       1     -1.05    15.999
    5679      ob       1    MUSC   O00wV       1     -1.05    15.999
    5680      ob       1    MUSC   O00wW       1     -1.05    15.999
    5681      oh       1    MUSC   O00wX       1     -0.95    15.999
    5682      oh       1    MUSC   O00wY       1     -0.95    15.999
    5683      oh       1    MUSC   O00wZ       1     -0.95    15.999
    5684      oh       1    MUSC   O00wa       1     -0.95    15.999
    5685      ob       1    MUSC   O00wb       1     -1.05    15.999
    5686      ob       1    MUSC   O00wc       1     -1.05    15.999
    5687      ob       1    MUSC   O00wd       1     -1.05    15.999
    5688      ob       1    MUSC   O00we       1     -1.05    15.999
    5689      ob       1    MUSC   O00wf       1     -1.05    15.999
    5690      ob       1    MUSC   O00wg       1     -1.05    15.999
    5691      ob       1    MUSC   O00wh       1     -1.05    15.999
    5692      ob       1    MUSC   O00wi       1     -1.05    15.999
    5693      ob       1    MUSC   O00wj       1     -1.05    15.999
    5694      ob       1    MUSC   O00wk       1     -1.05    15.999
    5695      ob       1    MUSC   O00wl       1     -1.05    15.999
    5696      ob       1    MUSC   O00wm       1     -1.05    15.999
    5697      ob       1    MUSC   O00wn       1     -1.05    15.999
    5698      ob       1    MUSC   O00wo       1     -1.05    15.999
    5699      ob       1    MUSC   O00wp       1     -1.05    15.999
    5700      ob       1    MUSC   O00wq       1     -1.05    15.999
    5701       K       1    MUSC   K003h       1       1.0    39.098
    5702       K       1    MUSC   K003i       1       1.0    39.098
    5703      ao       1    MUSC   Al09p       1     1.575    26.982
    5704      ao       1    MUSC   Al09q       1     1.575    26.982
    5705      ao       1    MUSC   Al09r       1     1.575    26.982
    5706      ao       1    MUSC   Al09s       1     1.575    26.982
    5707      ao       1    MUSC   Al09t       1     1.575    26.982
    5708      ao       1    MUSC   Al09u       1     1.575    26.982
    5709      ao       1    MUSC   Al09v       1     1.575    26.982
    5710      ao       1    MUSC   Al09w       1     1.575    26.982
    5711      st       1    MUSC   Si0Jd       1       2.1    28.086
    5712      st       1    MUSC   Si0Je       1       2.1    28.086
    5713      st       1    MUSC   Si0Jf       1       2.1    28.086
    5714      st       1    MUSC   Si0Jg       1       2.1    28.086
    5715      st       1    MUSC   Si0Jh       1       2.1    28.086
    5716      st       1    MUSC   Si0Ji       1       2.1    28.086
    5717      st       1    MUSC   Si0Jj       1       2.1    28.086
    5718      st       1    MUSC   Si0Jk       1       2.1    28.086
    5719      st       1    MUSC   Si0Jl       1       2.1    28.086
    5720      st       1    MUSC   Si0Jm       1       2.1    28.086
    5721      st       1    MUSC   Si0Jn       1       2.1    28.086
    5722      st       1    MUSC   Si0Jo       1       2.1    28.086
    5723      st       1    MUSC   Si0Jp       1       2.1    28.086
    5724      st       1    MUSC   Si0Jq       1       2.1    28.086
    5725      st       1    MUSC   Si0Jr       1       2.1    28.086
    5726      st       1    MUSC   Si0Js       1       2.1    28.086
    5727      ob       1    MUSC   O00wr       1     -1.05    15.999
    5728      ob       1    MUSC   O00ws       1     -1.05    15.999
    5729      ob       1    MUSC   O00wt       1     -1.05    15.999
    5730      ob       1    MUSC   O00wu       1     -1.05    15.999
    5731      oh       1    MUSC   O00wv       1     -0.95    15.999
    5732      oh       1    MUSC   O00ww       1     -0.95    15.999
    5733      oh       1    MUSC   O00wx       1     -0.95    15.999
    5734      oh       1    MUSC   O00wy       1     -0.95    15.999
    5735      ob       1    MUSC   O00wz       1     -1.05    15.999
    5736      ob       1    MUSC   O00x0       1     -1.05    15.999
    5737      ob       1    MUSC   O00x1       1     -1.05    15.999
    5738      ob       1    MUSC   O00x2       1     -1.05    15.999
    5739      ob       1    MUSC   O00x3       1     -1.05    15.999
    5740      ob       1    MUSC   O00x4       1     -1.05    15.999
    5741      ob       1    MUSC   O00x5       1     -1.05    15.999
    5742      ob       1    MUSC   O00x6       1     -1.05    15.999
    5743      ob       1    MUSC   O00x7       1     -1.05    15.999
    5744      ob       1    MUSC   O00x8       1     -1.05    15.999
    5745      ob       1    MUSC   O00x9       1     -1.05    15.999
    5746      ob       1    MUSC   O00xA       1     -1.05    15.999
    5747      ob       1    MUSC   O00xB       1     -1.05    15.999
    5748      ob       1    MUSC   O00xC       1     -1.05    15.999
    5749      ob       1    MUSC   O00xD       1     -1.05    15.999
    5750      ob       1    MUSC   O00xE       1     -1.05    15.999
    5751      ob       1    MUSC   O00xF       1     -1.05    15.999
    5752      ob       1    MUSC   O00xG       1     -1.05    15.999
    5753      ob       1    MUSC   O00xH       1     -1.05    15.999
    5754      ob       1    MUSC   O00xI       1     -1.05    15.999
    5755      oh       1    MUSC   O00xJ       1     -0.95    15.999
    5756      oh       1    MUSC   O00xK       1     -0.95    15.999
    5757      oh       1    MUSC   O00xL       1     -0.95    15.999
    5758      oh       1    MUSC   O00xM       1     -0.95    15.999
    5759      ob       1    MUSC   O00xN       1     -1.05    15.999
    5760      ob       1    MUSC   O00xO       1     -1.05    15.999
    5761      ob       1    MUSC   O00xP       1     -1.05    15.999
    5762      ob       1    MUSC   O00xQ       1     -1.05    15.999
    5763      ob       1    MUSC   O00xR       1     -1.05    15.999
    5764      ob       1    MUSC   O00xS       1     -1.05    15.999
    5765      ob       1    MUSC   O00xT       1     -1.05    15.999
    5766      ob       1    MUSC   O00xU       1     -1.05    15.999
    5767      ob       1    MUSC   O00xV       1     -1.05    15.999
    5768      ob       1    MUSC   O00xW       1     -1.05    15.999
    5769      ob       1    MUSC   O00xX       1     -1.05    15.999
    5770      ob       1    MUSC   O00xY       1     -1.05    15.999
    5771      ob       1    MUSC   O00xZ       1     -1.05    15.999
    5772      ob       1    MUSC   O00xa       1     -1.05    15.999
    5773      ob       1    MUSC   O00xb       1     -1.05    15.999
    5774      ob       1    MUSC   O00xc       1     -1.05    15.999
    5775       K       1    MUSC   K003j       1       1.0    39.098
    5776       K       1    MUSC   K003k       1       1.0    39.098
    5777       K       1    MUSC   K003l       1       1.0    39.098
    5778       K       1    MUSC   K003m       1       1.0    39.098
    5779      ao       1    MUSC   Al09x       1     1.575    26.982
    5780      ao       1    MUSC   Al09y       1     1.575    26.982
    5781      ao       1    MUSC   Al09z       1     1.575    26.982
    5782      ao       1    MUSC   Al0A0       1     1.575    26.982
    5783      ao       1    MUSC   Al0A1       1     1.575    26.982
    5784      ao       1    MUSC   Al0A2       1     1.575    26.982
    5785      ao       1    MUSC   Al0A3       1     1.575    26.982
    5786      ao       1    MUSC   Al0A4       1     1.575    26.982
    5787      st       1    MUSC   Si0Jt       1       2.1    28.086
    5788      st       1    MUSC   Si0Ju       1       2.1    28.086
    5789      st       1    MUSC   Si0Jv       1       2.1    28.086
    5790      st       1    MUSC   Si0Jw       1       2.1    28.086
    5791      st       1    MUSC   Si0Jx       1       2.1    28.086
    5792      st       1    MUSC   Si0Jy       1       2.1    28.086
    5793      st       1    MUSC   Si0Jz       1       2.1    28.086
    5794      st       1    MUSC   Si0K0       1       2.1    28.086
    5795      st       1    MUSC   Si0K1       1       2.1    28.086
    5796      st       1    MUSC   Si0K2       1       2.1    28.086
    5797      st       1    MUSC   Si0K3       1       2.1    28.086
    5798      st       1    MUSC   Si0K4       1       2.1    28.086
    5799      st       1    MUSC   Si0K5       1       2.1    28.086
    5800      st       1    MUSC   Si0K6       1       2.1    28.086
    5801      st       1    MUSC   Si0K7       1       2.1    28.086
    5802      st       1    MUSC   Si0K8       1       2.1    28.086
    5803      ob       1    MUSC   O00xd       1     -1.05    15.999
    5804      ob       1    MUSC   O00xe       1     -1.05    15.999
    5805      ob       1    MUSC   O00xf       1     -1.05    15.999
    5806      ob       1    MUSC   O00xg       1     -1.05    15.999
    5807      oh       1    MUSC   O00xh       1     -0.95    15.999
    5808      oh       1    MUSC   O00xi       1     -0.95    15.999
    5809      oh       1    MUSC   O00xj       1     -0.95    15.999
    5810      oh       1    MUSC   O00xk       1     -0.95    15.999
    5811      ob       1    MUSC   O00xl       1     -1.05    15.999
    5812      ob       1    MUSC   O00xm       1     -1.05    15.999
    5813      ob       1    MUSC   O00xn       1     -1.05    15.999
    5814      ob       1    MUSC   O00xo       1     -1.05    15.999
    5815      ob       1    MUSC   O00xp       1     -1.05    15.999
    5816      ob       1    MUSC   O00xq       1     -1.05    15.999
    5817      ob       1    MUSC   O00xr       1     -1.05    15.999
    5818      ob       1    MUSC   O00xs       1     -1.05    15.999
    5819      ob       1    MUSC   O00xt       1     -1.05    15.999
    5820      ob       1    MUSC   O00xu       1     -1.05    15.999
    5821      ob       1    MUSC   O00xv       1     -1.05    15.999
    5822      ob       1    MUSC   O00xw       1     -1.05    15.999
    5823      ob       1    MUSC   O00xx       1     -1.05    15.999
    5824      ob       1    MUSC   O00xy       1     -1.05    15.999
    5825      ob       1    MUSC   O00xz       1     -1.05    15.999
    5826      ob       1    MUSC   O00y0       1     -1.05    15.999
    5827      ob       1    MUSC   O00y1       1     -1.05    15.999
    5828      ob       1    MUSC   O00y2       1     -1.05    15.999
    5829      ob       1    MUSC   O00y3       1     -1.05    15.999
    5830      ob       1    MUSC   O00y4       1     -1.05    15.999
    5831      oh       1    MUSC   O00y5       1     -0.95    15.999
    5832      oh       1    MUSC   O00y6       1     -0.95    15.999
    5833      oh       1    MUSC   O00y7       1     -0.95    15.999
    5834      oh       1    MUSC   O00y8       1     -0.95    15.999
    5835      ob       1    MUSC   O00y9       1     -1.05    15.999
    5836      ob       1    MUSC   O00yA       1     -1.05    15.999
    5837      ob       1    MUSC   O00yB       1     -1.05    15.999
    5838      ob       1    MUSC   O00yC       1     -1.05    15.999
    5839      ob       1    MUSC   O00yD       1     -1.05    15.999
    5840      ob       1    MUSC   O00yE       1     -1.05    15.999
    5841      ob       1    MUSC   O00yF       1     -1.05    15.999
    5842      ob       1    MUSC   O00yG       1     -1.05    15.999
    5843      ob       1    MUSC   O00yH       1     -1.05    15.999
    5844      ob       1    MUSC   O00yI       1     -1.05    15.999
    5845      ob       1    MUSC   O00yJ       1     -1.05    15.999
    5846      ob       1    MUSC   O00yK       1     -1.05    15.999
    5847      ob       1    MUSC   O00yL       1     -1.05    15.999
    5848      ob       1    MUSC   O00yM       1     -1.05    15.999
    5849      ob       1    MUSC   O00yN       1     -1.05    15.999
    5850      ob       1    MUSC   O00yO       1     -1.05    15.999
    5851       K       1    MUSC   K003n       1       1.0    39.098
    5852       K       1    MUSC   K003o       1       1.0    39.098
    5853      ao       1    MUSC   Al0A5       1     1.575    26.982
    5854      ao       1    MUSC   Al0A6       1     1.575    26.982
    5855      ao       1    MUSC   Al0A7       1     1.575    26.982
    5856      ao       1    MUSC   Al0A8       1     1.575    26.982
    5857      ao       1    MUSC   Al0A9       1     1.575    26.982
    5858      ao       1    MUSC   Al0AA       1     1.575    26.982
    5859      ao       1    MUSC   Al0AB       1     1.575    26.982
    5860      ao       1    MUSC   Al0AC       1     1.575    26.982
    5861      st       1    MUSC   Si0K9       1       2.1    28.086
    5862      st       1    MUSC   Si0KA       1       2.1    28.086
    5863      st       1    MUSC   Si0KB       1       2.1    28.086
    5864      st       1    MUSC   Si0KC       1       2.1    28.086
    5865      st       1    MUSC   Si0KD       1       2.1    28.086
    5866      st       1    MUSC   Si0KE       1       2.1    28.086
    5867      st       1    MUSC   Si0KF       1       2.1    28.086
    5868      st       1    MUSC   Si0KG       1       2.1    28.086
    5869      st       1    MUSC   Si0KH       1       2.1    28.086
    5870      st       1    MUSC   Si0KI       1       2.1    28.086
    5871      st       1    MUSC   Si0KJ       1       2.1    28.086
    5872      st       1    MUSC   Si0KK       1       2.1    28.086
    5873      st       1    MUSC   Si0KL       1       2.1    28.086
    5874      st       1    MUSC   Si0KM       1       2.1    28.086
    5875      st       1    MUSC   Si0KN       1       2.1    28.086
    5876      st       1    MUSC   Si0KO       1       2.1    28.086
    5877      ob       1    MUSC   O00yP       1     -1.05    15.999
    5878      ob       1    MUSC   O00yQ       1     -1.05    15.999
    5879      ob       1    MUSC   O00yR       1     -1.05    15.999
    5880      ob       1    MUSC   O00yS       1     -1.05    15.999
    5881      oh       1    MUSC   O00yT       1     -0.95    15.999
    5882      oh       1    MUSC   O00yU       1     -0.95    15.999
    5883      oh       1    MUSC   O00yV       1     -0.95    15.999
    5884      oh       1    MUSC   O00yW       1     -0.95    15.999
    5885      ob       1    MUSC   O00yX       1     -1.05    15.999
    5886      ob       1    MUSC   O00yY       1     -1.05    15.999
    5887      ob       1    MUSC   O00yZ       1     -1.05    15.999
    5888      ob       1    MUSC   O00ya       1     -1.05    15.999
    5889      ob       1    MUSC   O00yb       1     -1.05    15.999
    5890      ob       1    MUSC   O00yc       1     -1.05    15.999
    5891      ob       1    MUSC   O00yd       1     -1.05    15.999
    5892      ob       1    MUSC   O00ye       1     -1.05    15.999
    5893      ob       1    MUSC   O00yf       1     -1.05    15.999
    5894      ob       1    MUSC   O00yg       1     -1.05    15.999
    5895      ob       1    MUSC   O00yh       1     -1.05    15.999
    5896      ob       1    MUSC   O00yi       1     -1.05    15.999
    5897      ob       1    MUSC   O00yj       1     -1.05    15.999
    5898      ob       1    MUSC   O00yk       1     -1.05    15.999
    5899      ob       1    MUSC   O00yl       1     -1.05    15.999
    5900      ob       1    MUSC   O00ym       1     -1.05    15.999
    5901      ob       1    MUSC   O00yn       1     -1.05    15.999
    5902      ob       1    MUSC   O00yo       1     -1.05    15.999
    5903      ob       1    MUSC   O00yp       1     -1.05    15.999
    5904      ob       1    MUSC   O00yq       1     -1.05    15.999
    5905      oh       1    MUSC   O00yr       1     -0.95    15.999
    5906      oh       1    MUSC   O00ys       1     -0.95    15.999
    5907      oh       1    MUSC   O00yt       1     -0.95    15.999
    5908      oh       1    MUSC   O00yu       1     -0.95    15.999
    5909      ob       1    MUSC   O00yv       1     -1.05    15.999
    5910      ob       1    MUSC   O00yw       1     -1.05    15.999
    5911      ob       1    MUSC   O00yx       1     -1.05    15.999
    5912      ob       1    MUSC   O00yy       1     -1.05    15.999
    5913      ob       1    MUSC   O00yz       1     -1.05    15.999
    5914      ob       1    MUSC   O00z0       1     -1.05    15.999
    5915      ob       1    MUSC   O00z1       1     -1.05    15.999
    5916      ob       1    MUSC   O00z2       1     -1.05    15.999
    5917      ob       1    MUSC   O00z3       1     -1.05    15.999
    5918      ob       1    MUSC   O00z4       1     -1.05    15.999
    5919      ob       1    MUSC   O00z5       1     -1.05    15.999
    5920      ob       1    MUSC   O00z6       1     -1.05    15.999
    5921      ob       1    MUSC   O00z7       1     -1.05    15.999
    5922      ob       1    MUSC   O00z8       1     -1.05    15.999
    5923      ob       1    MUSC   O00z9       1     -1.05    15.999
    5924      ob       1    MUSC   O00zA       1     -1.05    15.999
    5925       K       1    MUSC   K003p       1       1.0    39.098
    5926       K       1    MUSC   K003q       1       1.0    39.098
    5927       K       1    MUSC   K003r       1       1.0    39.098
    5928       K       1    MUSC   K003s       1       1.0    39.098
    5929      ao       1    MUSC   Al0AD       1     1.575    26.982
    5930      ao       1    MUSC   Al0AE       1     1.575    26.982
    5931      ao       1    MUSC   Al0AF       1     1.575    26.982
    5932      ao       1    MUSC   Al0AG       1     1.575    26.982
    5933      ao       1    MUSC   Al0AH       1     1.575    26.982
    5934      ao       1    MUSC   Al0AI       1     1.575    26.982
    5935      ao       1    MUSC   Al0AJ       1     1.575    26.982
    5936      ao       1    MUSC   Al0AK       1     1.575    26.982
    5937      st       1    MUSC   Si0KP       1       2.1    28.086
    5938      st       1    MUSC   Si0KQ       1       2.1    28.086
    5939      st       1    MUSC   Si0KR       1       2.1    28.086
    5940      st       1    MUSC   Si0KS       1       2.1    28.086
    5941      st       1    MUSC   Si0KT       1       2.1    28.086
    5942      st       1    MUSC   Si0KU       1       2.1    28.086
    5943      st       1    MUSC   Si0KV       1       2.1    28.086
    5944      st       1    MUSC   Si0KW       1       2.1    28.086
    5945      st       1    MUSC   Si0KX       1       2.1    28.086
    5946      st       1    MUSC   Si0KY       1       2.1    28.086
    5947      st       1    MUSC   Si0KZ       1       2.1    28.086
    5948      st       1    MUSC   Si0Ka       1       2.1    28.086
    5949      st       1    MUSC   Si0Kb       1       2.1    28.086
    5950      st       1    MUSC   Si0Kc       1       2.1    28.086
    5951      st       1    MUSC   Si0Kd       1       2.1    28.086
    5952      st       1    MUSC   Si0Ke       1       2.1    28.086
    5953      ob       1    MUSC   O00zB       1     -1.05    15.999
    5954      ob       1    MUSC   O00zC       1     -1.05    15.999
    5955      ob       1    MUSC   O00zD       1     -1.05    15.999
    5956      ob       1    MUSC   O00zE       1     -1.05    15.999
    5957      oh       1    MUSC   O00zF       1     -0.95    15.999
    5958      oh       1    MUSC   O00zG       1     -0.95    15.999
    5959      oh       1    MUSC   O00zH       1     -0.95    15.999
    5960      oh       1    MUSC   O00zI       1     -0.95    15.999
    5961      ob       1    MUSC   O00zJ       1     -1.05    15.999
    5962      ob       1    MUSC   O00zK       1     -1.05    15.999
    5963      ob       1    MUSC   O00zL       1     -1.05    15.999
    5964      ob       1    MUSC   O00zM       1     -1.05    15.999
    5965      ob       1    MUSC   O00zN       1     -1.05    15.999
    5966      ob       1    MUSC   O00zO       1     -1.05    15.999
    5967      ob       1    MUSC   O00zP       1     -1.05    15.999
    5968      ob       1    MUSC   O00zQ       1     -1.05    15.999
    5969      ob       1    MUSC   O00zR       1     -1.05    15.999
    5970      ob       1    MUSC   O00zS       1     -1.05    15.999
    5971      ob       1    MUSC   O00zT       1     -1.05    15.999
    5972      ob       1    MUSC   O00zU       1     -1.05    15.999
    5973      ob       1    MUSC   O00zV       1     -1.05    15.999
    5974      ob       1    MUSC   O00zW       1     -1.05    15.999
    5975      ob       1    MUSC   O00zX       1     -1.05    15.999
    5976      ob       1    MUSC   O00zY       1     -1.05    15.999
    5977      ob       1    MUSC   O00zZ       1     -1.05    15.999
    5978      ob       1    MUSC   O00za       1     -1.05    15.999
    5979      ob       1    MUSC   O00zb       1     -1.05    15.999
    5980      ob       1    MUSC   O00zc       1     -1.05    15.999
    5981      oh       1    MUSC   O00zd       1     -0.95    15.999
    5982      oh       1    MUSC   O00ze       1     -0.95    15.999
    5983      oh       1    MUSC   O00zf       1     -0.95    15.999
    5984      oh       1    MUSC   O00zg       1     -0.95    15.999
    5985      ob       1    MUSC   O00zh       1     -1.05    15.999
    5986      ob       1    MUSC   O00zi       1     -1.05    15.999
    5987      ob       1    MUSC   O00zj       1     -1.05    15.999
    5988      ob       1    MUSC   O00zk       1     -1.05    15.999
    5989      ob       1    MUSC   O00zl       1     -1.05    15.999
    5990      ob       1    MUSC   O00zm       1     -1.05    15.999
    5991      ob       1    MUSC   O00zn       1     -1.05    15.999
    5992      ob       1    MUSC   O00zo       1     -1.05    15.999
    5993      ob       1    MUSC   O00zp       1     -1.05    15.999
    5994      ob       1    MUSC   O00zq       1     -1.05    15.999
    5995      ob       1    MUSC   O00zr       1     -1.05    15.999
    5996      ob       1    MUSC   O00zs       1     -1.05    15.999
    5997      ob       1    MUSC   O00zt       1     -1.05    15.999
    5998      ob       1    MUSC   O00zu       1     -1.05    15.999
    5999      ob       1    MUSC   O00zv       1     -1.05    15.999
    6000      ob       1    MUSC   O00zw       1     -1.05    15.999
    6001       K       1    MUSC   K003t       1       1.0    39.098
    6002       K       1    MUSC   K003u       1       1.0    39.098
    6003      ao       1    MUSC   Al0AL       1     1.575    26.982
    6004      ao       1    MUSC   Al0AM       1     1.575    26.982
    6005      ao       1    MUSC   Al0AN       1     1.575    26.982
    6006      ao       1    MUSC   Al0AO       1     1.575    26.982
    6007      ao       1    MUSC   Al0AP       1     1.575    26.982
    6008      ao       1    MUSC   Al0AQ       1     1.575    26.982
    6009      ao       1    MUSC   Al0AR       1     1.575    26.982
    6010      ao       1    MUSC   Al0AS       1     1.575    26.982
    6011      st       1    MUSC   Si0Kf       1       2.1    28.086
    6012      st       1    MUSC   Si0Kg       1       2.1    28.086
    6013      st       1    MUSC   Si0Kh       1       2.1    28.086
    6014      st       1    MUSC   Si0Ki       1       2.1    28.086
    6015      st       1    MUSC   Si0Kj       1       2.1    28.086
    6016      st       1    MUSC   Si0Kk       1       2.1    28.086
    6017      st       1    MUSC   Si0Kl       1       2.1    28.086
    6018      st       1    MUSC   Si0Km       1       2.1    28.086
    6019      st       1    MUSC   Si0Kn       1       2.1    28.086
    6020      st       1    MUSC   Si0Ko       1       2.1    28.086
    6021      st       1    MUSC   Si0Kp       1       2.1    28.086
    6022      st       1    MUSC   Si0Kq       1       2.1    28.086
    6023      st       1    MUSC   Si0Kr       1       2.1    28.086
    6024      st       1    MUSC   Si0Ks       1       2.1    28.086
    6025      st       1    MUSC   Si0Kt       1       2.1    28.086
    6026      st       1    MUSC   Si0Ku       1       2.1    28.086
    6027      ob       1    MUSC   O00zx       1     -1.05    15.999
    6028      ob       1    MUSC   O00zy       1     -1.05    15.999
    6029      ob       1    MUSC   O00zz       1     -1.05    15.999
    6030      ob       1    MUSC   O0100       1     -1.05    15.999
    6031      oh       1    MUSC   O0101       1     -0.95    15.999
    6032      oh       1    MUSC   O0102       1     -0.95    15.999
    6033      oh       1    MUSC   O0103       1     -0.95    15.999
    6034      oh       1    MUSC   O0104       1     -0.95    15.999
    6035      ob       1    MUSC   O0105       1     -1.05    15.999
    6036      ob       1    MUSC   O0106       1     -1.05    15.999
    6037      ob       1    MUSC   O0107       1     -1.05    15.999
    6038      ob       1    MUSC   O0108       1     -1.05    15.999
    6039      ob       1    MUSC   O0109       1     -1.05    15.999
    6040      ob       1    MUSC   O010A       1     -1.05    15.999
    6041      ob       1    MUSC   O010B       1     -1.05    15.999
    6042      ob       1    MUSC   O010C       1     -1.05    15.999
    6043      ob       1    MUSC   O010D       1     -1.05    15.999
    6044      ob       1    MUSC   O010E       1     -1.05    15.999
    6045      ob       1    MUSC   O010F       1     -1.05    15.999
    6046      ob       1    MUSC   O010G       1     -1.05    15.999
    6047      ob       1    MUSC   O010H       1     -1.05    15.999
    6048      ob       1    MUSC   O010I       1     -1.05    15.999
    6049      ob       1    MUSC   O010J       1     -1.05    15.999
    6050      ob       1    MUSC   O010K       1     -1.05    15.999
    6051      ob       1    MUSC   O010L       1     -1.05    15.999
    6052      ob       1    MUSC   O010M       1     -1.05    15.999
    6053      ob       1    MUSC   O010N       1     -1.05    15.999
    6054      ob       1    MUSC   O010O       1     -1.05    15.999
    6055      oh       1    MUSC   O010P       1     -0.95    15.999
    6056      oh       1    MUSC   O010Q       1     -0.95    15.999
    6057      oh       1    MUSC   O010R       1     -0.95    15.999
    6058      oh       1    MUSC   O010S       1     -0.95    15.999
    6059      ob       1    MUSC   O010T       1     -1.05    15.999
    6060      ob       1    MUSC   O010U       1     -1.05    15.999
    6061      ob       1    MUSC   O010V       1     -1.05    15.999
    6062      ob       1    MUSC   O010W       1     -1.05    15.999
    6063      ob       1    MUSC   O010X       1     -1.05    15.999
    6064      ob       1    MUSC   O010Y       1     -1.05    15.999
    6065      ob       1    MUSC   O010Z       1     -1.05    15.999
    6066      ob       1    MUSC   O010a       1     -1.05    15.999
    6067      ob       1    MUSC   O010b       1     -1.05    15.999
    6068      ob       1    MUSC   O010c       1     -1.05    15.999
    6069      ob       1    MUSC   O010d       1     -1.05    15.999
    6070      ob       1    MUSC   O010e       1     -1.05    15.999
    6071      ob       1    MUSC   O010f       1     -1.05    15.999
    6072      ob       1    MUSC   O010g       1     -1.05    15.999
    6073      ob       1    MUSC   O010h       1     -1.05    15.999
    6074      ob       1    MUSC   O010i       1     -1.05    15.999
    6075       K       1    MUSC   K003v       1       1.0    39.098
    6076       K       1    MUSC   K003w       1       1.0    39.098
    6077       K       1    MUSC   K003x       1       1.0    39.098
    6078       K       1    MUSC   K003y       1       1.0    39.098
    6079      ao       1    MUSC   Al0AT       1     1.575    26.982
    6080      ao       1    MUSC   Al0AU       1     1.575    26.982
    6081      ao       1    MUSC   Al0AV       1     1.575    26.982
    6082      ao       1    MUSC   Al0AW       1     1.575    26.982
    6083      ao       1    MUSC   Al0AX       1     1.575    26.982
    6084      ao       1    MUSC   Al0AY       1     1.575    26.982
    6085      ao       1    MUSC   Al0AZ       1     1.575    26.982
    6086      ao       1    MUSC   Al0Aa       1     1.575    26.982
    6087      st       1    MUSC   Si0Kv       1       2.1    28.086
    6088      st       1    MUSC   Si0Kw       1       2.1    28.086
    6089      st       1    MUSC   Si0Kx       1       2.1    28.086
    6090      st       1    MUSC   Si0Ky       1       2.1    28.086
    6091      st       1    MUSC   Si0Kz       1       2.1    28.086
    6092      st       1    MUSC   Si0L0       1       2.1    28.086
    6093      st       1    MUSC   Si0L1       1       2.1    28.086
    6094      st       1    MUSC   Si0L2       1       2.1    28.086
    6095      st       1    MUSC   Si0L3       1       2.1    28.086
    6096      st       1    MUSC   Si0L4       1       2.1    28.086
    6097      st       1    MUSC   Si0L5       1       2.1    28.086
    6098      st       1    MUSC   Si0L6       1       2.1    28.086
    6099      st       1    MUSC   Si0L7       1       2.1    28.086
    6100      st       1    MUSC   Si0L8       1       2.1    28.086
    6101      st       1    MUSC   Si0L9       1       2.1    28.086
    6102      st       1    MUSC   Si0LA       1       2.1    28.086
    6103      ob       1    MUSC   O010j       1     -1.05    15.999
    6104      ob       1    MUSC   O010k       1     -1.05    15.999
    6105      ob       1    MUSC   O010l       1     -1.05    15.999
    6106      ob       1    MUSC   O010m       1     -1.05    15.999
    6107      oh       1    MUSC   O010n       1     -0.95    15.999
    6108      oh       1    MUSC   O010o       1     -0.95    15.999
    6109      oh       1    MUSC   O010p       1     -0.95    15.999
    6110      oh       1    MUSC   O010q       1     -0.95    15.999
    6111      ob       1    MUSC   O010r       1     -1.05    15.999
    6112      ob       1    MUSC   O010s       1     -1.05    15.999
    6113      ob       1    MUSC   O010t       1     -1.05    15.999
    6114      ob       1    MUSC   O010u       1     -1.05    15.999
    6115      ob       1    MUSC   O010v       1     -1.05    15.999
    6116      ob       1    MUSC   O010w       1     -1.05    15.999
    6117      ob       1    MUSC   O010x       1     -1.05    15.999
    6118      ob       1    MUSC   O010y       1     -1.05    15.999
    6119      ob       1    MUSC   O010z       1     -1.05    15.999
    6120      ob       1    MUSC   O0110       1     -1.05    15.999
    6121      ob       1    MUSC   O0111       1     -1.05    15.999
    6122      ob       1    MUSC   O0112       1     -1.05    15.999
    6123      ob       1    MUSC   O0113       1     -1.05    15.999
    6124      ob       1    MUSC   O0114       1     -1.05    15.999
    6125      ob       1    MUSC   O0115       1     -1.05    15.999
    6126      ob       1    MUSC   O0116       1     -1.05    15.999
    6127      ob       1    MUSC   O0117       1     -1.05    15.999
    6128      ob       1    MUSC   O0118       1     -1.05    15.999
    6129      ob       1    MUSC   O0119       1     -1.05    15.999
    6130      ob       1    MUSC   O011A       1     -1.05    15.999
    6131      oh       1    MUSC   O011B       1     -0.95    15.999
    6132      oh       1    MUSC   O011C       1     -0.95    15.999
    6133      oh       1    MUSC   O011D       1     -0.95    15.999
    6134      oh       1    MUSC   O011E       1     -0.95    15.999
    6135      ob       1    MUSC   O011F       1     -1.05    15.999
    6136      ob       1    MUSC   O011G       1     -1.05    15.999
    6137      ob       1    MUSC   O011H       1     -1.05    15.999
    6138      ob       1    MUSC   O011I       1     -1.05    15.999
    6139      ob       1    MUSC   O011J       1     -1.05    15.999
    6140      ob       1    MUSC   O011K       1     -1.05    15.999
    6141      ob       1    MUSC   O011L       1     -1.05    15.999
    6142      ob       1    MUSC   O011M       1     -1.05    15.999
    6143      ob       1    MUSC   O011N       1     -1.05    15.999
    6144      ob       1    MUSC   O011O       1     -1.05    15.999
    6145      ob       1    MUSC   O011P       1     -1.05    15.999
    6146      ob       1    MUSC   O011Q       1     -1.05    15.999
    6147      ob       1    MUSC   O011R       1     -1.05    15.999
    6148      ob       1    MUSC   O011S       1     -1.05    15.999
    6149      ob       1    MUSC   O011T       1     -1.05    15.999
    6150      ob       1    MUSC   O011U       1     -1.05    15.999
    6151       K       1    MUSC   K003z       1       1.0    39.098
    6152       K       1    MUSC   K0040       1       1.0    39.098
    6153      ao       1    MUSC   Al0Ab       1     1.575    26.982
    6154      ao       1    MUSC   Al0Ac       1     1.575    26.982
    6155      ao       1    MUSC   Al0Ad       1     1.575    26.982
    6156      ao       1    MUSC   Al0Ae       1     1.575    26.982
    6157      ao       1    MUSC   Al0Af       1     1.575    26.982
    6158      ao       1    MUSC   Al0Ag       1     1.575    26.982
    6159      ao       1    MUSC   Al0Ah       1     1.575    26.982
    6160      ao       1    MUSC   Al0Ai       1     1.575    26.982
    6161      st       1    MUSC   Si0LB       1       2.1    28.086
    6162      st       1    MUSC   Si0LC       1       2.1    28.086
    6163      st       1    MUSC   Si0LD       1       2.1    28.086
    6164      st       1    MUSC   Si0LE       1       2.1    28.086
    6165      st       1    MUSC   Si0LF       1       2.1    28.086
    6166      st       1    MUSC   Si0LG       1       2.1    28.086
    6167      st       1    MUSC   Si0LH       1       2.1    28.086
    6168      st       1    MUSC   Si0LI       1       2.1    28.086
    6169      st       1    MUSC   Si0LJ       1       2.1    28.086
    6170      st       1    MUSC   Si0LK       1       2.1    28.086
    6171      st       1    MUSC   Si0LL       1       2.1    28.086
    6172      st       1    MUSC   Si0LM       1       2.1    28.086
    6173      st       1    MUSC   Si0LN       1       2.1    28.086
    6174      st       1    MUSC   Si0LO       1       2.1    28.086
    6175      st       1    MUSC   Si0LP       1       2.1    28.086
    6176      st       1    MUSC   Si0LQ       1       2.1    28.086
    6177      ob       1    MUSC   O011V       1     -1.05    15.999
    6178      ob       1    MUSC   O011W       1     -1.05    15.999
    6179      ob       1    MUSC   O011X       1     -1.05    15.999
    6180      ob       1    MUSC   O011Y       1     -1.05    15.999
    6181      oh       1    MUSC   O011Z       1     -0.95    15.999
    6182      oh       1    MUSC   O011a       1     -0.95    15.999
    6183      oh       1    MUSC   O011b       1     -0.95    15.999
    6184      oh       1    MUSC   O011c       1     -0.95    15.999
    6185      ob       1    MUSC   O011d       1     -1.05    15.999
    6186      ob       1    MUSC   O011e       1     -1.05    15.999
    6187      ob       1    MUSC   O011f       1     -1.05    15.999
    6188      ob       1    MUSC   O011g       1     -1.05    15.999
    6189      ob       1    MUSC   O011h       1     -1.05    15.999
    6190      ob       1    MUSC   O011i       1     -1.05    15.999
    6191      ob       1    MUSC   O011j       1     -1.05    15.999
    6192      ob       1    MUSC   O011k       1     -1.05    15.999
    6193      ob       1    MUSC   O011l       1     -1.05    15.999
    6194      ob       1    MUSC   O011m       1     -1.05    15.999
    6195      ob       1    MUSC   O011n       1     -1.05    15.999
    6196      ob       1    MUSC   O011o       1     -1.05    15.999
    6197      ob       1    MUSC   O011p       1     -1.05    15.999
    6198      ob       1    MUSC   O011q       1     -1.05    15.999
    6199      ob       1    MUSC   O011r       1     -1.05    15.999
    6200      ob       1    MUSC   O011s       1     -1.05    15.999
    6201      ob       1    MUSC   O011t       1     -1.05    15.999
    6202      ob       1    MUSC   O011u       1     -1.05    15.999
    6203      ob       1    MUSC   O011v       1     -1.05    15.999
    6204      ob       1    MUSC   O011w       1     -1.05    15.999
    6205      oh       1    MUSC   O011x       1     -0.95    15.999
    6206      oh       1    MUSC   O011y       1     -0.95    15.999
    6207      oh       1    MUSC   O011z       1     -0.95    15.999
    6208      oh       1    MUSC   O0120       1     -0.95    15.999
    6209      ob       1    MUSC   O0121       1     -1.05    15.999
    6210      ob       1    MUSC   O0122       1     -1.05    15.999
    6211      ob       1    MUSC   O0123       1     -1.05    15.999
    6212      ob       1    MUSC   O0124       1     -1.05    15.999
    6213      ob       1    MUSC   O0125       1     -1.05    15.999
    6214      ob       1    MUSC   O0126       1     -1.05    15.999
    6215      ob       1    MUSC   O0127       1     -1.05    15.999
    6216      ob       1    MUSC   O0128       1     -1.05    15.999
    6217      ob       1    MUSC   O0129       1     -1.05    15.999
    6218      ob       1    MUSC   O012A       1     -1.05    15.999
    6219      ob       1    MUSC   O012B       1     -1.05    15.999
    6220      ob       1    MUSC   O012C       1     -1.05    15.999
    6221      ob       1    MUSC   O012D       1     -1.05    15.999
    6222      ob       1    MUSC   O012E       1     -1.05    15.999
    6223      ob       1    MUSC   O012F       1     -1.05    15.999
    6224      ob       1    MUSC   O012G       1     -1.05    15.999
    6225       K       1    MUSC   K0041       1       1.0    39.098
    6226       K       1    MUSC   K0042       1       1.0    39.098
    6227       K       1    MUSC   K0043       1       1.0    39.098
    6228       K       1    MUSC   K0044       1       1.0    39.098
    6229      ao       1    MUSC   Al0Aj       1     1.575    26.982
    6230      ao       1    MUSC   Al0Ak       1     1.575    26.982
    6231      ao       1    MUSC   Al0Al       1     1.575    26.982
    6232      ao       1    MUSC   Al0Am       1     1.575    26.982
    6233      ao       1    MUSC   Al0An       1     1.575    26.982
    6234      ao       1    MUSC   Al0Ao       1     1.575    26.982
    6235      ao       1    MUSC   Al0Ap       1     1.575    26.982
    6236      ao       1    MUSC   Al0Aq       1     1.575    26.982
    6237      st       1    MUSC   Si0LR       1       2.1    28.086
    6238      st       1    MUSC   Si0LS       1       2.1    28.086
    6239      st       1    MUSC   Si0LT       1       2.1    28.086
    6240      st       1    MUSC   Si0LU       1       2.1    28.086
    6241      st       1    MUSC   Si0LV       1       2.1    28.086
    6242      st       1    MUSC   Si0LW       1       2.1    28.086
    6243      st       1    MUSC   Si0LX       1       2.1    28.086
    6244      st       1    MUSC   Si0LY       1       2.1    28.086
    6245      st       1    MUSC   Si0LZ       1       2.1    28.086
    6246      st       1    MUSC   Si0La       1       2.1    28.086
    6247      st       1    MUSC   Si0Lb       1       2.1    28.086
    6248      st       1    MUSC   Si0Lc       1       2.1    28.086
    6249      st       1    MUSC   Si0Ld       1       2.1    28.086
    6250      st       1    MUSC   Si0Le       1       2.1    28.086
    6251      st       1    MUSC   Si0Lf       1       2.1    28.086
    6252      st       1    MUSC   Si0Lg       1       2.1    28.086
    6253      ob       1    MUSC   O012H       1     -1.05    15.999
    6254      ob       1    MUSC   O012I       1     -1.05    15.999
    6255      ob       1    MUSC   O012J       1     -1.05    15.999
    6256      ob       1    MUSC   O012K       1     -1.05    15.999
    6257      oh       1    MUSC   O012L       1     -0.95    15.999
    6258      oh       1    MUSC   O012M       1     -0.95    15.999
    6259      oh       1    MUSC   O012N       1     -0.95    15.999
    6260      oh       1    MUSC   O012O       1     -0.95    15.999
    6261      ob       1    MUSC   O012P       1     -1.05    15.999
    6262      ob       1    MUSC   O012Q       1     -1.05    15.999
    6263      ob       1    MUSC   O012R       1     -1.05    15.999
    6264      ob       1    MUSC   O012S       1     -1.05    15.999
    6265      ob       1    MUSC   O012T       1     -1.05    15.999
    6266      ob       1    MUSC   O012U       1     -1.05    15.999
    6267      ob       1    MUSC   O012V       1     -1.05    15.999
    6268      ob       1    MUSC   O012W       1     -1.05    15.999
    6269      ob       1    MUSC   O012X       1     -1.05    15.999
    6270      ob       1    MUSC   O012Y       1     -1.05    15.999
    6271      ob       1    MUSC   O012Z       1     -1.05    15.999
    6272      ob       1    MUSC   O012a       1     -1.05    15.999
    6273      ob       1    MUSC   O012b       1     -1.05    15.999
    6274      ob       1    MUSC   O012c       1     -1.05    15.999
    6275      ob       1    MUSC   O012d       1     -1.05    15.999
    6276      ob       1    MUSC   O012e       1     -1.05    15.999
    6277      ob       1    MUSC   O012f       1     -1.05    15.999
    6278      ob       1    MUSC   O012g       1     -1.05    15.999
    6279      ob       1    MUSC   O012h       1     -1.05    15.999
    6280      ob       1    MUSC   O012i       1     -1.05    15.999
    6281      oh       1    MUSC   O012j       1     -0.95    15.999
    6282      oh       1    MUSC   O012k       1     -0.95    15.999
    6283      oh       1    MUSC   O012l       1     -0.95    15.999
    6284      oh       1    MUSC   O012m       1     -0.95    15.999
    6285      ob       1    MUSC   O012n       1     -1.05    15.999
    6286      ob       1    MUSC   O012o       1     -1.05    15.999
    6287      ob       1    MUSC   O012p       1     -1.05    15.999
    6288      ob       1    MUSC   O012q       1     -1.05    15.999
    6289      ob       1    MUSC   O012r       1     -1.05    15.999
    6290      ob       1    MUSC   O012s       1     -1.05    15.999
    6291      ob       1    MUSC   O012t       1     -1.05    15.999
    6292      ob       1    MUSC   O012u       1     -1.05    15.999
    6293      ob       1    MUSC   O012v       1     -1.05    15.999
    6294      ob       1    MUSC   O012w       1     -1.05    15.999
    6295      ob       1    MUSC   O012x       1     -1.05    15.999
    6296      ob       1    MUSC   O012y       1     -1.05    15.999
    6297      ob       1    MUSC   O012z       1     -1.05    15.999
    6298      ob       1    MUSC   O0130       1     -1.05    15.999
    6299      ob       1    MUSC   O0131       1     -1.05    15.999
    6300      ob       1    MUSC   O0132       1     -1.05    15.999
    6301       K       1    MUSC   K0045       1       1.0    39.098
    6302       K       1    MUSC   K0046       1       1.0    39.098
    6303      ao       1    MUSC   Al0Ar       1     1.575    26.982
    6304      ao       1    MUSC   Al0As       1     1.575    26.982
    6305      ao       1    MUSC   Al0At       1     1.575    26.982
    6306      ao       1    MUSC   Al0Au       1     1.575    26.982
    6307      ao       1    MUSC   Al0Av       1     1.575    26.982
    6308      ao       1    MUSC   Al0Aw       1     1.575    26.982
    6309      ao       1    MUSC   Al0Ax       1     1.575    26.982
    6310      ao       1    MUSC   Al0Ay       1     1.575    26.982
    6311      st       1    MUSC   Si0Lh       1       2.1    28.086
    6312      st       1    MUSC   Si0Li       1       2.1    28.086
    6313      st       1    MUSC   Si0Lj       1       2.1    28.086
    6314      st       1    MUSC   Si0Lk       1       2.1    28.086
    6315      st       1    MUSC   Si0Ll       1       2.1    28.086
    6316      st       1    MUSC   Si0Lm       1       2.1    28.086
    6317      st       1    MUSC   Si0Ln       1       2.1    28.086
    6318      st       1    MUSC   Si0Lo       1       2.1    28.086
    6319      st       1    MUSC   Si0Lp       1       2.1    28.086
    6320      st       1    MUSC   Si0Lq       1       2.1    28.086
    6321      st       1    MUSC   Si0Lr       1       2.1    28.086
    6322      st       1    MUSC   Si0Ls       1       2.1    28.086
    6323      st       1    MUSC   Si0Lt       1       2.1    28.086
    6324      st       1    MUSC   Si0Lu       1       2.1    28.086
    6325      st       1    MUSC   Si0Lv       1       2.1    28.086
    6326      st       1    MUSC   Si0Lw       1       2.1    28.086
    6327      ob       1    MUSC   O0133       1     -1.05    15.999
    6328      ob       1    MUSC   O0134       1     -1.05    15.999
    6329      ob       1    MUSC   O0135       1     -1.05    15.999
    6330      ob       1    MUSC   O0136       1     -1.05    15.999
    6331      oh       1    MUSC   O0137       1     -0.95    15.999
    6332      oh       1    MUSC   O0138       1     -0.95    15.999
    6333      oh       1    MUSC   O0139       1     -0.95    15.999
    6334      oh       1    MUSC   O013A       1     -0.95    15.999
    6335      ob       1    MUSC   O013B       1     -1.05    15.999
    6336      ob       1    MUSC   O013C       1     -1.05    15.999
    6337      ob       1    MUSC   O013D       1     -1.05    15.999
    6338      ob       1    MUSC   O013E       1     -1.05    15.999
    6339      ob       1    MUSC   O013F       1     -1.05    15.999
    6340      ob       1    MUSC   O013G       1     -1.05    15.999
    6341      ob       1    MUSC   O013H       1     -1.05    15.999
    6342      ob       1    MUSC   O013I       1     -1.05    15.999
    6343      ob       1    MUSC   O013J       1     -1.05    15.999
    6344      ob       1    MUSC   O013K       1     -1.05    15.999
    6345      ob       1    MUSC   O013L       1     -1.05    15.999
    6346      ob       1    MUSC   O013M       1     -1.05    15.999
    6347      ob       1    MUSC   O013N       1     -1.05    15.999
    6348      ob       1    MUSC   O013O       1     -1.05    15.999
    6349      ob       1    MUSC   O013P       1     -1.05    15.999
    6350      ob       1    MUSC   O013Q       1     -1.05    15.999
    6351      ob       1    MUSC   O013R       1     -1.05    15.999
    6352      ob       1    MUSC   O013S       1     -1.05    15.999
    6353      ob       1    MUSC   O013T       1     -1.05    15.999
    6354      ob       1    MUSC   O013U       1     -1.05    15.999
    6355      oh       1    MUSC   O013V       1     -0.95    15.999
    6356      oh       1    MUSC   O013W       1     -0.95    15.999
    6357      oh       1    MUSC   O013X       1     -0.95    15.999
    6358      oh       1    MUSC   O013Y       1     -0.95    15.999
    6359      ob       1    MUSC   O013Z       1     -1.05    15.999
    6360      ob       1    MUSC   O013a       1     -1.05    15.999
    6361      ob       1    MUSC   O013b       1     -1.05    15.999
    6362      ob       1    MUSC   O013c       1     -1.05    15.999
    6363      ob       1    MUSC   O013d       1     -1.05    15.999
    6364      ob       1    MUSC   O013e       1     -1.05    15.999
    6365      ob       1    MUSC   O013f       1     -1.05    15.999
    6366      ob       1    MUSC   O013g       1     -1.05    15.999
    6367      ob       1    MUSC   O013h       1     -1.05    15.999
    6368      ob       1    MUSC   O013i       1     -1.05    15.999
    6369      ob       1    MUSC   O013j       1     -1.05    15.999
    6370      ob       1    MUSC   O013k       1     -1.05    15.999
    6371      ob       1    MUSC   O013l       1     -1.05    15.999
    6372      ob       1    MUSC   O013m       1     -1.05    15.999
    6373      ob       1    MUSC   O013n       1     -1.05    15.999
    6374      ob       1    MUSC   O013o       1     -1.05    15.999
    6375       K       1    MUSC   K0047       1       1.0    39.098
    6376       K       1    MUSC   K0048       1       1.0    39.098
    6377       K       1    MUSC   K0049       1       1.0    39.098
    6378       K       1    MUSC   K004A       1       1.0    39.098
    6379      ao       1    MUSC   Al0Az       1     1.575    26.982
    6380      ao       1    MUSC   Al0B0       1     1.575    26.982
    6381      ao       1    MUSC   Al0B1       1     1.575    26.982
    6382      ao       1    MUSC   Al0B2       1     1.575    26.982
    6383      ao       1    MUSC   Al0B3       1     1.575    26.982
    6384      ao       1    MUSC   Al0B4       1     1.575    26.982
    6385      ao       1    MUSC   Al0B5       1     1.575    26.982
    6386      ao       1    MUSC   Al0B6       1     1.575    26.982
    6387      st       1    MUSC   Si0Lx       1       2.1    28.086
    6388      st       1    MUSC   Si0Ly       1       2.1    28.086
    6389      st       1    MUSC   Si0Lz       1       2.1    28.086
    6390      st       1    MUSC   Si0M0       1       2.1    28.086
    6391      st       1    MUSC   Si0M1       1       2.1    28.086
    6392      st       1    MUSC   Si0M2       1       2.1    28.086
    6393      st       1    MUSC   Si0M3       1       2.1    28.086
    6394      st       1    MUSC   Si0M4       1       2.1    28.086
    6395      st       1    MUSC   Si0M5       1       2.1    28.086
    6396      st       1    MUSC   Si0M6       1       2.1    28.086
    6397      st       1    MUSC   Si0M7       1       2.1    28.086
    6398      st       1    MUSC   Si0M8       1       2.1    28.086
    6399      st       1    MUSC   Si0M9       1       2.1    28.086
    6400      st       1    MUSC   Si0MA       1       2.1    28.086
    6401      st       1    MUSC   Si0MB       1       2.1    28.086
    6402      st       1    MUSC   Si0MC       1       2.1    28.086
    6403      ob       1    MUSC   O013p       1     -1.05    15.999
    6404      ob       1    MUSC   O013q       1     -1.05    15.999
    6405      ob       1    MUSC   O013r       1     -1.05    15.999
    6406      ob       1    MUSC   O013s       1     -1.05    15.999
    6407      oh       1    MUSC   O013t       1     -0.95    15.999
    6408      oh       1    MUSC   O013u       1     -0.95    15.999
    6409      oh       1    MUSC   O013v       1     -0.95    15.999
    6410      oh       1    MUSC   O013w       1     -0.95    15.999
    6411      ob       1    MUSC   O013x       1     -1.05    15.999
    6412      ob       1    MUSC   O013y       1     -1.05    15.999
    6413      ob       1    MUSC   O013z       1     -1.05    15.999
    6414      ob       1    MUSC   O0140       1     -1.05    15.999
    6415      ob       1    MUSC   O0141       1     -1.05    15.999
    6416      ob       1    MUSC   O0142       1     -1.05    15.999
    6417      ob       1    MUSC   O0143       1     -1.05    15.999
    6418      ob       1    MUSC   O0144       1     -1.05    15.999
    6419      ob       1    MUSC   O0145       1     -1.05    15.999
    6420      ob       1    MUSC   O0146       1     -1.05    15.999
    6421      ob       1    MUSC   O0147       1     -1.05    15.999
    6422      ob       1    MUSC   O0148       1     -1.05    15.999
    6423      ob       1    MUSC   O0149       1     -1.05    15.999
    6424      ob       1    MUSC   O014A       1     -1.05    15.999
    6425      ob       1    MUSC   O014B       1     -1.05    15.999
    6426      ob       1    MUSC   O014C       1     -1.05    15.999
    6427      ob       1    MUSC   O014D       1     -1.05    15.999
    6428      ob       1    MUSC   O014E       1     -1.05    15.999
    6429      ob       1    MUSC   O014F       1     -1.05    15.999
    6430      ob       1    MUSC   O014G       1     -1.05    15.999
    6431      oh       1    MUSC   O014H       1     -0.95    15.999
    6432      oh       1    MUSC   O014I       1     -0.95    15.999
    6433      oh       1    MUSC   O014J       1     -0.95    15.999
    6434      oh       1    MUSC   O014K       1     -0.95    15.999
    6435      ob       1    MUSC   O014L       1     -1.05    15.999
    6436      ob       1    MUSC   O014M       1     -1.05    15.999
    6437      ob       1    MUSC   O014N       1     -1.05    15.999
    6438      ob       1    MUSC   O014O       1     -1.05    15.999
    6439      ob       1    MUSC   O014P       1     -1.05    15.999
    6440      ob       1    MUSC   O014Q       1     -1.05    15.999
    6441      ob       1    MUSC   O014R       1     -1.05    15.999
    6442      ob       1    MUSC   O014S       1     -1.05    15.999
    6443      ob       1    MUSC   O014T       1     -1.05    15.999
    6444      ob       1    MUSC   O014U       1     -1.05    15.999
    6445      ob       1    MUSC   O014V       1     -1.05    15.999
    6446      ob       1    MUSC   O014W       1     -1.05    15.999
    6447      ob       1    MUSC   O014X       1     -1.05    15.999
    6448      ob       1    MUSC   O014Y       1     -1.05    15.999
    6449      ob       1    MUSC   O014Z       1     -1.05    15.999
    6450      ob       1    MUSC   O014a       1     -1.05    15.999
    6451       K       1    MUSC   K004B       1       1.0    39.098
    6452       K       1    MUSC   K004C       1       1.0    39.098
    6453      ao       1    MUSC   Al0B7       1     1.575    26.982
    6454      ao       1    MUSC   Al0B8       1     1.575    26.982
    6455      ao       1    MUSC   Al0B9       1     1.575    26.982
    6456      ao       1    MUSC   Al0BA       1     1.575    26.982
    6457      ao       1    MUSC   Al0BB       1     1.575    26.982
    6458      ao       1    MUSC   Al0BC       1     1.575    26.982
    6459      ao       1    MUSC   Al0BD       1     1.575    26.982
    6460      ao       1    MUSC   Al0BE       1     1.575    26.982
    6461      st       1    MUSC   Si0MD       1       2.1    28.086
    6462      st       1    MUSC   Si0ME       1       2.1    28.086
    6463      st       1    MUSC   Si0MF       1       2.1    28.086
    6464      st       1    MUSC   Si0MG       1       2.1    28.086
    6465      st       1    MUSC   Si0MH       1       2.1    28.086
    6466      st       1    MUSC   Si0MI       1       2.1    28.086
    6467      st       1    MUSC   Si0MJ       1       2.1    28.086
    6468      st       1    MUSC   Si0MK       1       2.1    28.086
    6469      st       1    MUSC   Si0ML       1       2.1    28.086
    6470      st       1    MUSC   Si0MM       1       2.1    28.086
    6471      st       1    MUSC   Si0MN       1       2.1    28.086
    6472      st       1    MUSC   Si0MO       1       2.1    28.086
    6473      st       1    MUSC   Si0MP       1       2.1    28.086
    6474      st       1    MUSC   Si0MQ       1       2.1    28.086
    6475      st       1    MUSC   Si0MR       1       2.1    28.086
    6476      st       1    MUSC   Si0MS       1       2.1    28.086
    6477      ob       1    MUSC   O014b       1     -1.05    15.999
    6478      ob       1    MUSC   O014c       1     -1.05    15.999
    6479      ob       1    MUSC   O014d       1     -1.05    15.999
    6480      ob       1    MUSC   O014e       1     -1.05    15.999
    6481      oh       1    MUSC   O014f       1     -0.95    15.999
    6482      oh       1    MUSC   O014g       1     -0.95    15.999
    6483      oh       1    MUSC   O014h       1     -0.95    15.999
    6484      oh       1    MUSC   O014i       1     -0.95    15.999
    6485      ob       1    MUSC   O014j       1     -1.05    15.999
    6486      ob       1    MUSC   O014k       1     -1.05    15.999
    6487      ob       1    MUSC   O014l       1     -1.05    15.999
    6488      ob       1    MUSC   O014m       1     -1.05    15.999
    6489      ob       1    MUSC   O014n       1     -1.05    15.999
    6490      ob       1    MUSC   O014o       1     -1.05    15.999
    6491      ob       1    MUSC   O014p       1     -1.05    15.999
    6492      ob       1    MUSC   O014q       1     -1.05    15.999
    6493      ob       1    MUSC   O014r       1     -1.05    15.999
    6494      ob       1    MUSC   O014s       1     -1.05    15.999
    6495      ob       1    MUSC   O014t       1     -1.05    15.999
    6496      ob       1    MUSC   O014u       1     -1.05    15.999
    6497      ob       1    MUSC   O014v       1     -1.05    15.999
    6498      ob       1    MUSC   O014w       1     -1.05    15.999
    6499      ob       1    MUSC   O014x       1     -1.05    15.999
    6500      ob       1    MUSC   O014y       1     -1.05    15.999
    6501      ob       1    MUSC   O014z       1     -1.05    15.999
    6502      ob       1    MUSC   O0150       1     -1.05    15.999
    6503      ob       1    MUSC   O0151       1     -1.05    15.999
    6504      ob       1    MUSC   O0152       1     -1.05    15.999
    6505      oh       1    MUSC   O0153       1     -0.95    15.999
    6506      oh       1    MUSC   O0154       1     -0.95    15.999
    6507      oh       1    MUSC   O0155       1     -0.95    15.999
    6508      oh       1    MUSC   O0156       1     -0.95    15.999
    6509      ob       1    MUSC   O0157       1     -1.05    15.999
    6510      ob       1    MUSC   O0158       1     -1.05    15.999
    6511      ob       1    MUSC   O0159       1     -1.05    15.999
    6512      ob       1    MUSC   O015A       1     -1.05    15.999
    6513      ob       1    MUSC   O015B       1     -1.05    15.999
    6514      ob       1    MUSC   O015C       1     -1.05    15.999
    6515      ob       1    MUSC   O015D       1     -1.05    15.999
    6516      ob       1    MUSC   O015E       1     -1.05    15.999
    6517      ob       1    MUSC   O015F       1     -1.05    15.999
    6518      ob       1    MUSC   O015G       1     -1.05    15.999
    6519      ob       1    MUSC   O015H       1     -1.05    15.999
    6520      ob       1    MUSC   O015I       1     -1.05    15.999
    6521      ob       1    MUSC   O015J       1     -1.05    15.999
    6522      ob       1    MUSC   O015K       1     -1.05    15.999
    6523      ob       1    MUSC   O015L       1     -1.05    15.999
    6524      ob       1    MUSC   O015M       1     -1.05    15.999
    6525       K       1    MUSC   K004D       1       1.0    39.098
    6526       K       1    MUSC   K004E       1       1.0    39.098
    6527       K       1    MUSC   K004F       1       1.0    39.098
    6528       K       1    MUSC   K004G       1       1.0    39.098
    6529      ao       1    MUSC   Al0BF       1     1.575    26.982
    6530      ao       1    MUSC   Al0BG       1     1.575    26.982
    6531      ao       1    MUSC   Al0BH       1     1.575    26.982
    6532      ao       1    MUSC   Al0BI       1     1.575    26.982
    6533      ao       1    MUSC   Al0BJ       1     1.575    26.982
    6534      ao       1    MUSC   Al0BK       1     1.575    26.982
    6535      ao       1    MUSC   Al0BL       1     1.575    26.982
    6536      ao       1    MUSC   Al0BM       1     1.575    26.982
    6537      st       1    MUSC   Si0MT       1       2.1    28.086
    6538      st       1    MUSC   Si0MU       1       2.1    28.086
    6539      st       1    MUSC   Si0MV       1       2.1    28.086
    6540      st       1    MUSC   Si0MW       1       2.1    28.086
    6541      st       1    MUSC   Si0MX       1       2.1    28.086
    6542      st       1    MUSC   Si0MY       1       2.1    28.086
    6543      st       1    MUSC   Si0MZ       1       2.1    28.086
    6544      st       1    MUSC   Si0Ma       1       2.1    28.086
    6545      st       1    MUSC   Si0Mb       1       2.1    28.086
    6546      st       1    MUSC   Si0Mc       1       2.1    28.086
    6547      st       1    MUSC   Si0Md       1       2.1    28.086
    6548      st       1    MUSC   Si0Me       1       2.1    28.086
    6549      st       1    MUSC   Si0Mf       1       2.1    28.086
    6550      st       1    MUSC   Si0Mg       1       2.1    28.086
    6551      st       1    MUSC   Si0Mh       1       2.1    28.086
    6552      st       1    MUSC   Si0Mi       1       2.1    28.086
    6553      ob       1    MUSC   O015N       1     -1.05    15.999
    6554      ob       1    MUSC   O015O       1     -1.05    15.999
    6555      ob       1    MUSC   O015P       1     -1.05    15.999
    6556      ob       1    MUSC   O015Q       1     -1.05    15.999
    6557      oh       1    MUSC   O015R       1     -0.95    15.999
    6558      oh       1    MUSC   O015S       1     -0.95    15.999
    6559      oh       1    MUSC   O015T       1     -0.95    15.999
    6560      oh       1    MUSC   O015U       1     -0.95    15.999
    6561      ob       1    MUSC   O015V       1     -1.05    15.999
    6562      ob       1    MUSC   O015W       1     -1.05    15.999
    6563      ob       1    MUSC   O015X       1     -1.05    15.999
    6564      ob       1    MUSC   O015Y       1     -1.05    15.999
    6565      ob       1    MUSC   O015Z       1     -1.05    15.999
    6566      ob       1    MUSC   O015a       1     -1.05    15.999
    6567      ob       1    MUSC   O015b       1     -1.05    15.999
    6568      ob       1    MUSC   O015c       1     -1.05    15.999
    6569      ob       1    MUSC   O015d       1     -1.05    15.999
    6570      ob       1    MUSC   O015e       1     -1.05    15.999
    6571      ob       1    MUSC   O015f       1     -1.05    15.999
    6572      ob       1    MUSC   O015g       1     -1.05    15.999
    6573      ob       1    MUSC   O015h       1     -1.05    15.999
    6574      ob       1    MUSC   O015i       1     -1.05    15.999
    6575      ob       1    MUSC   O015j       1     -1.05    15.999
    6576      ob       1    MUSC   O015k       1     -1.05    15.999
    6577      ob       1    MUSC   O015l       1     -1.05    15.999
    6578      ob       1    MUSC   O015m       1     -1.05    15.999
    6579      ob       1    MUSC   O015n       1     -1.05    15.999
    6580      ob       1    MUSC   O015o       1     -1.05    15.999
    6581      oh       1    MUSC   O015p       1     -0.95    15.999
    6582      oh       1    MUSC   O015q       1     -0.95    15.999
    6583      oh       1    MUSC   O015r       1     -0.95    15.999
    6584      oh       1    MUSC   O015s       1     -0.95    15.999
    6585      ob       1    MUSC   O015t       1     -1.05    15.999
    6586      ob       1    MUSC   O015u       1     -1.05    15.999
    6587      ob       1    MUSC   O015v       1     -1.05    15.999
    6588      ob       1    MUSC   O015w       1     -1.05    15.999
    6589      ob       1    MUSC   O015x       1     -1.05    15.999
    6590      ob       1    MUSC   O015y       1     -1.05    15.999
    6591      ob       1    MUSC   O015z       1     -1.05    15.999
    6592      ob       1    MUSC   O0160       1     -1.05    15.999
    6593      ob       1    MUSC   O0161       1     -1.05    15.999
    6594      ob       1    MUSC   O0162       1     -1.05    15.999
    6595      ob       1    MUSC   O0163       1     -1.05    15.999
    6596      ob       1    MUSC   O0164       1     -1.05    15.999
    6597      ob       1    MUSC   O0165       1     -1.05    15.999
    6598      ob       1    MUSC   O0166       1     -1.05    15.999
    6599      ob       1    MUSC   O0167       1     -1.05    15.999
    6600      ob       1    MUSC   O0168       1     -1.05    15.999
    6601       K       1    MUSC   K004H       1       1.0    39.098
    6602       K       1    MUSC   K004I       1       1.0    39.098
    6603      ao       1    MUSC   Al0BN       1     1.575    26.982
    6604      ao       1    MUSC   Al0BO       1     1.575    26.982
    6605      ao       1    MUSC   Al0BP       1     1.575    26.982
    6606      ao       1    MUSC   Al0BQ       1     1.575    26.982
    6607      ao       1    MUSC   Al0BR       1     1.575    26.982
    6608      ao       1    MUSC   Al0BS       1     1.575    26.982
    6609      ao       1    MUSC   Al0BT       1     1.575    26.982
    6610      ao       1    MUSC   Al0BU       1     1.575    26.982
    6611      st       1    MUSC   Si0Mj       1       2.1    28.086
    6612      st       1    MUSC   Si0Mk       1       2.1    28.086
    6613      st       1    MUSC   Si0Ml       1       2.1    28.086
    6614      st       1    MUSC   Si0Mm       1       2.1    28.086
    6615      st       1    MUSC   Si0Mn       1       2.1    28.086
    6616      st       1    MUSC   Si0Mo       1       2.1    28.086
    6617      st       1    MUSC   Si0Mp       1       2.1    28.086
    6618      st       1    MUSC   Si0Mq       1       2.1    28.086
    6619      st       1    MUSC   Si0Mr       1       2.1    28.086
    6620      st       1    MUSC   Si0Ms       1       2.1    28.086
    6621      st       1    MUSC   Si0Mt       1       2.1    28.086
    6622      st       1    MUSC   Si0Mu       1       2.1    28.086
    6623      st       1    MUSC   Si0Mv       1       2.1    28.086
    6624      st       1    MUSC   Si0Mw       1       2.1    28.086
    6625      st       1    MUSC   Si0Mx       1       2.1    28.086
    6626      st       1    MUSC   Si0My       1       2.1    28.086
    6627      ob       1    MUSC   O0169       1     -1.05    15.999
    6628      ob       1    MUSC   O016A       1     -1.05    15.999
    6629      ob       1    MUSC   O016B       1     -1.05    15.999
    6630      ob       1    MUSC   O016C       1     -1.05    15.999
    6631      oh       1    MUSC   O016D       1     -0.95    15.999
    6632      oh       1    MUSC   O016E       1     -0.95    15.999
    6633      oh       1    MUSC   O016F       1     -0.95    15.999
    6634      oh       1    MUSC   O016G       1     -0.95    15.999
    6635      ob       1    MUSC   O016H       1     -1.05    15.999
    6636      ob       1    MUSC   O016I       1     -1.05    15.999
    6637      ob       1    MUSC   O016J       1     -1.05    15.999
    6638      ob       1    MUSC   O016K       1     -1.05    15.999
    6639      ob       1    MUSC   O016L       1     -1.05    15.999
    6640      ob       1    MUSC   O016M       1     -1.05    15.999
    6641      ob       1    MUSC   O016N       1     -1.05    15.999
    6642      ob       1    MUSC   O016O       1     -1.05    15.999
    6643      ob       1    MUSC   O016P       1     -1.05    15.999
    6644      ob       1    MUSC   O016Q       1     -1.05    15.999
    6645      ob       1    MUSC   O016R       1     -1.05    15.999
    6646      ob       1    MUSC   O016S       1     -1.05    15.999
    6647      ob       1    MUSC   O016T       1     -1.05    15.999
    6648      ob       1    MUSC   O016U       1     -1.05    15.999
    6649      ob       1    MUSC   O016V       1     -1.05    15.999
    6650      ob       1    MUSC   O016W       1     -1.05    15.999
    6651      ob       1    MUSC   O016X       1     -1.05    15.999
    6652      ob       1    MUSC   O016Y       1     -1.05    15.999
    6653      ob       1    MUSC   O016Z       1     -1.05    15.999
    6654      ob       1    MUSC   O016a       1     -1.05    15.999
    6655      oh       1    MUSC   O016b       1     -0.95    15.999
    6656      oh       1    MUSC   O016c       1     -0.95    15.999
    6657      oh       1    MUSC   O016d       1     -0.95    15.999
    6658      oh       1    MUSC   O016e       1     -0.95    15.999
    6659      ob       1    MUSC   O016f       1     -1.05    15.999
    6660      ob       1    MUSC   O016g       1     -1.05    15.999
    6661      ob       1    MUSC   O016h       1     -1.05    15.999
    6662      ob       1    MUSC   O016i       1     -1.05    15.999
    6663      ob       1    MUSC   O016j       1     -1.05    15.999
    6664      ob       1    MUSC   O016k       1     -1.05    15.999
    6665      ob       1    MUSC   O016l       1     -1.05    15.999
    6666      ob       1    MUSC   O016m       1     -1.05    15.999
    6667      ob       1    MUSC   O016n       1     -1.05    15.999
    6668      ob       1    MUSC   O016o       1     -1.05    15.999
    6669      ob       1    MUSC   O016p       1     -1.05    15.999
    6670      ob       1    MUSC   O016q       1     -1.05    15.999
    6671      ob       1    MUSC   O016r       1     -1.05    15.999
    6672      ob       1    MUSC   O016s       1     -1.05    15.999
    6673      ob       1    MUSC   O016t       1     -1.05    15.999
    6674      ob       1    MUSC   O016u       1     -1.05    15.999
    6675       K       1    MUSC   K004J       1       1.0    39.098
    6676       K       1    MUSC   K004K       1       1.0    39.098
    6677       K       1    MUSC   K004L       1       1.0    39.098
    6678       K       1    MUSC   K004M       1       1.0    39.098
    6679      ao       1    MUSC   Al0BV       1     1.575    26.982
    6680      ao       1    MUSC   Al0BW       1     1.575    26.982
    6681      ao       1    MUSC   Al0BX       1     1.575    26.982
    6682      ao       1    MUSC   Al0BY       1     1.575    26.982
    6683      ao       1    MUSC   Al0BZ       1     1.575    26.982
    6684      ao       1    MUSC   Al0Ba       1     1.575    26.982
    6685      ao       1    MUSC   Al0Bb       1     1.575    26.982
    6686      ao       1    MUSC   Al0Bc       1     1.575    26.982
    6687      st       1    MUSC   Si0Mz       1       2.1    28.086
    6688      st       1    MUSC   Si0N0       1       2.1    28.086
    6689      st       1    MUSC   Si0N1       1       2.1    28.086
    6690      st       1    MUSC   Si0N2       1       2.1    28.086
    6691      st       1    MUSC   Si0N3       1       2.1    28.086
    6692      st       1    MUSC   Si0N4       1       2.1    28.086
    6693      st       1    MUSC   Si0N5       1       2.1    28.086
    6694      st       1    MUSC   Si0N6       1       2.1    28.086
    6695      st       1    MUSC   Si0N7       1       2.1    28.086
    6696      st       1    MUSC   Si0N8       1       2.1    28.086
    6697      st       1    MUSC   Si0N9       1       2.1    28.086
    6698      st       1    MUSC   Si0NA       1       2.1    28.086
    6699      st       1    MUSC   Si0NB       1       2.1    28.086
    6700      st       1    MUSC   Si0NC       1       2.1    28.086
    6701      st       1    MUSC   Si0ND       1       2.1    28.086
    6702      st       1    MUSC   Si0NE       1       2.1    28.086
    6703      ob       1    MUSC   O016v       1     -1.05    15.999
    6704      ob       1    MUSC   O016w       1     -1.05    15.999
    6705      ob       1    MUSC   O016x       1     -1.05    15.999
    6706      ob       1    MUSC   O016y       1     -1.05    15.999
    6707      oh       1    MUSC   O016z       1     -0.95    15.999
    6708      oh       1    MUSC   O0170       1     -0.95    15.999
    6709      oh       1    MUSC   O0171       1     -0.95    15.999
    6710      oh       1    MUSC   O0172       1     -0.95    15.999
    6711      ob       1    MUSC   O0173       1     -1.05    15.999
    6712      ob       1    MUSC   O0174       1     -1.05    15.999
    6713      ob       1    MUSC   O0175       1     -1.05    15.999
    6714      ob       1    MUSC   O0176       1     -1.05    15.999
    6715      ob       1    MUSC   O0177       1     -1.05    15.999
    6716      ob       1    MUSC   O0178       1     -1.05    15.999
    6717      ob       1    MUSC   O0179       1     -1.05    15.999
    6718      ob       1    MUSC   O017A       1     -1.05    15.999
    6719      ob       1    MUSC   O017B       1     -1.05    15.999
    6720      ob       1    MUSC   O017C       1     -1.05    15.999
    6721      ob       1    MUSC   O017D       1     -1.05    15.999
    6722      ob       1    MUSC   O017E       1     -1.05    15.999
    6723      ob       1    MUSC   O017F       1     -1.05    15.999
    6724      ob       1    MUSC   O017G       1     -1.05    15.999
    6725      ob       1    MUSC   O017H       1     -1.05    15.999
    6726      ob       1    MUSC   O017I       1     -1.05    15.999
    6727      ob       1    MUSC   O017J       1     -1.05    15.999
    6728      ob       1    MUSC   O017K       1     -1.05    15.999
    6729      ob       1    MUSC   O017L       1     -1.05    15.999
    6730      ob       1    MUSC   O017M       1     -1.05    15.999
    6731      oh       1    MUSC   O017N       1     -0.95    15.999
    6732      oh       1    MUSC   O017O       1     -0.95    15.999
    6733      oh       1    MUSC   O017P       1     -0.95    15.999
    6734      oh       1    MUSC   O017Q       1     -0.95    15.999
    6735      ob       1    MUSC   O017R       1     -1.05    15.999
    6736      ob       1    MUSC   O017S       1     -1.05    15.999
    6737      ob       1    MUSC   O017T       1     -1.05    15.999
    6738      ob       1    MUSC   O017U       1     -1.05    15.999
    6739      ob       1    MUSC   O017V       1     -1.05    15.999
    6740      ob       1    MUSC   O017W       1     -1.05    15.999
    6741      ob       1    MUSC   O017X       1     -1.05    15.999
    6742      ob       1    MUSC   O017Y       1     -1.05    15.999
    6743      ob       1    MUSC   O017Z       1     -1.05    15.999
    6744      ob       1    MUSC   O017a       1     -1.05    15.999
    6745      ob       1    MUSC   O017b       1     -1.05    15.999
    6746      ob       1    MUSC   O017c       1     -1.05    15.999
    6747      ob       1    MUSC   O017d       1     -1.05    15.999
    6748      ob       1    MUSC   O017e       1     -1.05    15.999
    6749      ob       1    MUSC   O017f       1     -1.05    15.999
    6750      ob       1    MUSC   O017g       1     -1.05    15.999
    6751       K       1    MUSC   K004N       1       1.0    39.098
    6752       K       1    MUSC   K004O       1       1.0    39.098
    6753      ao       1    MUSC   Al0Bd       1     1.575    26.982
    6754      ao       1    MUSC   Al0Be       1     1.575    26.982
    6755      ao       1    MUSC   Al0Bf       1     1.575    26.982
    6756      ao       1    MUSC   Al0Bg       1     1.575    26.982
    6757      ao       1    MUSC   Al0Bh       1     1.575    26.982
    6758      ao       1    MUSC   Al0Bi       1     1.575    26.982
    6759      ao       1    MUSC   Al0Bj       1     1.575    26.982
    6760      ao       1    MUSC   Al0Bk       1     1.575    26.982
    6761      st       1    MUSC   Si0NF       1       2.1    28.086
    6762      st       1    MUSC   Si0NG       1       2.1    28.086
    6763      st       1    MUSC   Si0NH       1       2.1    28.086
    6764      st       1    MUSC   Si0NI       1       2.1    28.086
    6765      st       1    MUSC   Si0NJ       1       2.1    28.086
    6766      st       1    MUSC   Si0NK       1       2.1    28.086
    6767      st       1    MUSC   Si0NL       1       2.1    28.086
    6768      st       1    MUSC   Si0NM       1       2.1    28.086
    6769      st       1    MUSC   Si0NN       1       2.1    28.086
    6770      st       1    MUSC   Si0NO       1       2.1    28.086
    6771      st       1    MUSC   Si0NP       1       2.1    28.086
    6772      st       1    MUSC   Si0NQ       1       2.1    28.086
    6773      st       1    MUSC   Si0NR       1       2.1    28.086
    6774      st       1    MUSC   Si0NS       1       2.1    28.086
    6775      st       1    MUSC   Si0NT       1       2.1    28.086
    6776      st       1    MUSC   Si0NU       1       2.1    28.086
    6777      ob       1    MUSC   O017h       1     -1.05    15.999
    6778      ob       1    MUSC   O017i       1     -1.05    15.999
    6779      ob       1    MUSC   O017j       1     -1.05    15.999
    6780      ob       1    MUSC   O017k       1     -1.05    15.999
    6781      oh       1    MUSC   O017l       1     -0.95    15.999
    6782      oh       1    MUSC   O017m       1     -0.95    15.999
    6783      oh       1    MUSC   O017n       1     -0.95    15.999
    6784      oh       1    MUSC   O017o       1     -0.95    15.999
    6785      ob       1    MUSC   O017p       1     -1.05    15.999
    6786      ob       1    MUSC   O017q       1     -1.05    15.999
    6787      ob       1    MUSC   O017r       1     -1.05    15.999
    6788      ob       1    MUSC   O017s       1     -1.05    15.999
    6789      ob       1    MUSC   O017t       1     -1.05    15.999
    6790      ob       1    MUSC   O017u       1     -1.05    15.999
    6791      ob       1    MUSC   O017v       1     -1.05    15.999
    6792      ob       1    MUSC   O017w       1     -1.05    15.999
    6793      ob       1    MUSC   O017x       1     -1.05    15.999
    6794      ob       1    MUSC   O017y       1     -1.05    15.999
    6795      ob       1    MUSC   O017z       1     -1.05    15.999
    6796      ob       1    MUSC   O0180       1     -1.05    15.999
    6797      ob       1    MUSC   O0181       1     -1.05    15.999
    6798      ob       1    MUSC   O0182       1     -1.05    15.999
    6799      ob       1    MUSC   O0183       1     -1.05    15.999
    6800      ob       1    MUSC   O0184       1     -1.05    15.999
    6801      ob       1    MUSC   O0185       1     -1.05    15.999
    6802      ob       1    MUSC   O0186       1     -1.05    15.999
    6803      ob       1    MUSC   O0187       1     -1.05    15.999
    6804      ob       1    MUSC   O0188       1     -1.05    15.999
    6805      oh       1    MUSC   O0189       1     -0.95    15.999
    6806      oh       1    MUSC   O018A       1     -0.95    15.999
    6807      oh       1    MUSC   O018B       1     -0.95    15.999
    6808      oh       1    MUSC   O018C       1     -0.95    15.999
    6809      ob       1    MUSC   O018D       1     -1.05    15.999
    6810      ob       1    MUSC   O018E       1     -1.05    15.999
    6811      ob       1    MUSC   O018F       1     -1.05    15.999
    6812      ob       1    MUSC   O018G       1     -1.05    15.999
    6813      ob       1    MUSC   O018H       1     -1.05    15.999
    6814      ob       1    MUSC   O018I       1     -1.05    15.999
    6815      ob       1    MUSC   O018J       1     -1.05    15.999
    6816      ob       1    MUSC   O018K       1     -1.05    15.999
    6817      ob       1    MUSC   O018L       1     -1.05    15.999
    6818      ob       1    MUSC   O018M       1     -1.05    15.999
    6819      ob       1    MUSC   O018N       1     -1.05    15.999
    6820      ob       1    MUSC   O018O       1     -1.05    15.999
    6821      ob       1    MUSC   O018P       1     -1.05    15.999
    6822      ob       1    MUSC   O018Q       1     -1.05    15.999
    6823      ob       1    MUSC   O018R       1     -1.05    15.999
    6824      ob       1    MUSC   O018S       1     -1.05    15.999
    6825       K       1    MUSC   K004P       1       1.0    39.098
    6826       K       1    MUSC   K004Q       1       1.0    39.098
    6827       K       1    MUSC   K004R       1       1.0    39.098
    6828       K       1    MUSC   K004S       1       1.0    39.098
    6829      ao       1    MUSC   Al0Bl       1     1.575    26.982
    6830      ao       1    MUSC   Al0Bm       1     1.575    26.982
    6831      ao       1    MUSC   Al0Bn       1     1.575    26.982
    6832      ao       1    MUSC   Al0Bo       1     1.575    26.982
    6833      ao       1    MUSC   Al0Bp       1     1.575    26.982
    6834      ao       1    MUSC   Al0Bq       1     1.575    26.982
    6835      ao       1    MUSC   Al0Br       1     1.575    26.982
    6836      ao       1    MUSC   Al0Bs       1     1.575    26.982
    6837      st       1    MUSC   Si0NV       1       2.1    28.086
    6838      st       1    MUSC   Si0NW       1       2.1    28.086
    6839      st       1    MUSC   Si0NX       1       2.1    28.086
    6840      st       1    MUSC   Si0NY       1       2.1    28.086
    6841      st       1    MUSC   Si0NZ       1       2.1    28.086
    6842      st       1    MUSC   Si0Na       1       2.1    28.086
    6843      st       1    MUSC   Si0Nb       1       2.1    28.086
    6844      st       1    MUSC   Si0Nc       1       2.1    28.086
    6845      st       1    MUSC   Si0Nd       1       2.1    28.086
    6846      st       1    MUSC   Si0Ne       1       2.1    28.086
    6847      st       1    MUSC   Si0Nf       1       2.1    28.086
    6848      st       1    MUSC   Si0Ng       1       2.1    28.086
    6849      st       1    MUSC   Si0Nh       1       2.1    28.086
    6850      st       1    MUSC   Si0Ni       1       2.1    28.086
    6851      st       1    MUSC   Si0Nj       1       2.1    28.086
    6852      st       1    MUSC   Si0Nk       1       2.1    28.086
    6853      ob       1    MUSC   O018T       1     -1.05    15.999
    6854      ob       1    MUSC   O018U       1     -1.05    15.999
    6855      ob       1    MUSC   O018V       1     -1.05    15.999
    6856      ob       1    MUSC   O018W       1     -1.05    15.999
    6857      oh       1    MUSC   O018X       1     -0.95    15.999
    6858      oh       1    MUSC   O018Y       1     -0.95    15.999
    6859      oh       1    MUSC   O018Z       1     -0.95    15.999
    6860      oh       1    MUSC   O018a       1     -0.95    15.999
    6861      ob       1    MUSC   O018b       1     -1.05    15.999
    6862      ob       1    MUSC   O018c       1     -1.05    15.999
    6863      ob       1    MUSC   O018d       1     -1.05    15.999
    6864      ob       1    MUSC   O018e       1     -1.05    15.999
    6865      ob       1    MUSC   O018f       1     -1.05    15.999
    6866      ob       1    MUSC   O018g       1     -1.05    15.999
    6867      ob       1    MUSC   O018h       1     -1.05    15.999
    6868      ob       1    MUSC   O018i       1     -1.05    15.999
    6869      ob       1    MUSC   O018j       1     -1.05    15.999
    6870      ob       1    MUSC   O018k       1     -1.05    15.999
    6871      ob       1    MUSC   O018l       1     -1.05    15.999
    6872      ob       1    MUSC   O018m       1     -1.05    15.999
    6873      ob       1    MUSC   O018n       1     -1.05    15.999
    6874      ob       1    MUSC   O018o       1     -1.05    15.999
    6875      ob       1    MUSC   O018p       1     -1.05    15.999
    6876      ob       1    MUSC   O018q       1     -1.05    15.999
    6877      ob       1    MUSC   O018r       1     -1.05    15.999
    6878      ob       1    MUSC   O018s       1     -1.05    15.999
    6879      ob       1    MUSC   O018t       1     -1.05    15.999
    6880      ob       1    MUSC   O018u       1     -1.05    15.999
    6881      oh       1    MUSC   O018v       1     -0.95    15.999
    6882      oh       1    MUSC   O018w       1     -0.95    15.999
    6883      oh       1    MUSC   O018x       1     -0.95    15.999
    6884      oh       1    MUSC   O018y       1     -0.95    15.999
    6885      ob       1    MUSC   O018z       1     -1.05    15.999
    6886      ob       1    MUSC   O0190       1     -1.05    15.999
    6887      ob       1    MUSC   O0191       1     -1.05    15.999
    6888      ob       1    MUSC   O0192       1     -1.05    15.999
    6889      ob       1    MUSC   O0193       1     -1.05    15.999
    6890      ob       1    MUSC   O0194       1     -1.05    15.999
    6891      ob       1    MUSC   O0195       1     -1.05    15.999
    6892      ob       1    MUSC   O0196       1     -1.05    15.999
    6893      ob       1    MUSC   O0197       1     -1.05    15.999
    6894      ob       1    MUSC   O0198       1     -1.05    15.999
    6895      ob       1    MUSC   O0199       1     -1.05    15.999
    6896      ob       1    MUSC   O019A       1     -1.05    15.999
    6897      ob       1    MUSC   O019B       1     -1.05    15.999
    6898      ob       1    MUSC   O019C       1     -1.05    15.999
    6899      ob       1    MUSC   O019D       1     -1.05    15.999
    6900      ob       1    MUSC   O019E       1     -1.05    15.999
    6901       K       1    MUSC   K004T       1       1.0    39.098
    6902       K       1    MUSC   K004U       1       1.0    39.098
    6903      ao       1    MUSC   Al0Bt       1     1.575    26.982
    6904      ao       1    MUSC   Al0Bu       1     1.575    26.982
    6905      ao       1    MUSC   Al0Bv       1     1.575    26.982
    6906      ao       1    MUSC   Al0Bw       1     1.575    26.982
    6907      ao       1    MUSC   Al0Bx       1     1.575    26.982
    6908      ao       1    MUSC   Al0By       1     1.575    26.982
    6909      ao       1    MUSC   Al0Bz       1     1.575    26.982
    6910      ao       1    MUSC   Al0C0       1     1.575    26.982
    6911      st       1    MUSC   Si0Nl       1       2.1    28.086
    6912      st       1    MUSC   Si0Nm       1       2.1    28.086
    6913      st       1    MUSC   Si0Nn       1       2.1    28.086
    6914      st       1    MUSC   Si0No       1       2.1    28.086
    6915      st       1    MUSC   Si0Np       1       2.1    28.086
    6916      st       1    MUSC   Si0Nq       1       2.1    28.086
    6917      st       1    MUSC   Si0Nr       1       2.1    28.086
    6918      st       1    MUSC   Si0Ns       1       2.1    28.086
    6919      st       1    MUSC   Si0Nt       1       2.1    28.086
    6920      st       1    MUSC   Si0Nu       1       2.1    28.086
    6921      st       1    MUSC   Si0Nv       1       2.1    28.086
    6922      st       1    MUSC   Si0Nw       1       2.1    28.086
    6923      st       1    MUSC   Si0Nx       1       2.1    28.086
    6924      st       1    MUSC   Si0Ny       1       2.1    28.086
    6925      st       1    MUSC   Si0Nz       1       2.1    28.086
    6926      st       1    MUSC   Si0O0       1       2.1    28.086
    6927      ob       1    MUSC   O019F       1     -1.05    15.999
    6928      ob       1    MUSC   O019G       1     -1.05    15.999
    6929      ob       1    MUSC   O019H       1     -1.05    15.999
    6930      ob       1    MUSC   O019I       1     -1.05    15.999
    6931      oh       1    MUSC   O019J       1     -0.95    15.999
    6932      oh       1    MUSC   O019K       1     -0.95    15.999
    6933      oh       1    MUSC   O019L       1     -0.95    15.999
    6934      oh       1    MUSC   O019M       1     -0.95    15.999
    6935      ob       1    MUSC   O019N       1     -1.05    15.999
    6936      ob       1    MUSC   O019O       1     -1.05    15.999
    6937      ob       1    MUSC   O019P       1     -1.05    15.999
    6938      ob       1    MUSC   O019Q       1     -1.05    15.999
    6939      ob       1    MUSC   O019R       1     -1.05    15.999
    6940      ob       1    MUSC   O019S       1     -1.05    15.999
    6941      ob       1    MUSC   O019T       1     -1.05    15.999
    6942      ob       1    MUSC   O019U       1     -1.05    15.999
    6943      ob       1    MUSC   O019V       1     -1.05    15.999
    6944      ob       1    MUSC   O019W       1     -1.05    15.999
    6945      ob       1    MUSC   O019X       1     -1.05    15.999
    6946      ob       1    MUSC   O019Y       1     -1.05    15.999
    6947      ob       1    MUSC   O019Z       1     -1.05    15.999
    6948      ob       1    MUSC   O019a       1     -1.05    15.999
    6949      ob       1    MUSC   O019b       1     -1.05    15.999
    6950      ob       1    MUSC   O019c       1     -1.05    15.999
    6951      ob       1    MUSC   O019d       1     -1.05    15.999
    6952      ob       1    MUSC   O019e       1     -1.05    15.999
    6953      ob       1    MUSC   O019f       1     -1.05    15.999
    6954      ob       1    MUSC   O019g       1     -1.05    15.999
    6955      oh       1    MUSC   O019h       1     -0.95    15.999
    6956      oh       1    MUSC   O019i       1     -0.95    15.999
    6957      oh       1    MUSC   O019j       1     -0.95    15.999
    6958      oh       1    MUSC   O019k       1     -0.95    15.999
    6959      ob       1    MUSC   O019l       1     -1.05    15.999
    6960      ob       1    MUSC   O019m       1     -1.05    15.999
    6961      ob       1    MUSC   O019n       1     -1.05    15.999
    6962      ob       1    MUSC   O019o       1     -1.05    15.999
    6963      ob       1    MUSC   O019p       1     -1.05    15.999
    6964      ob       1    MUSC   O019q       1     -1.05    15.999
    6965      ob       1    MUSC   O019r       1     -1.05    15.999
    6966      ob       1    MUSC   O019s       1     -1.05    15.999
    6967      ob       1    MUSC   O019t       1     -1.05    15.999
    6968      ob       1    MUSC   O019u       1     -1.05    15.999
    6969      ob       1    MUSC   O019v       1     -1.05    15.999
    6970      ob       1    MUSC   O019w       1     -1.05    15.999
    6971      ob       1    MUSC   O019x       1     -1.05    15.999
    6972      ob       1    MUSC   O019y       1     -1.05    15.999
    6973      ob       1    MUSC   O019z       1     -1.05    15.999
    6974      ob       1    MUSC   O01A0       1     -1.05    15.999
    6975       K       1    MUSC   K004V       1       1.0    39.098
    6976       K       1    MUSC   K004W       1       1.0    39.098
    6977       K       1    MUSC   K004X       1       1.0    39.098
    6978       K       1    MUSC   K004Y       1       1.0    39.098
    6979      ao       1    MUSC   Al0C1       1     1.575    26.982
    6980      ao       1    MUSC   Al0C2       1     1.575    26.982
    6981      ao       1    MUSC   Al0C3       1     1.575    26.982
    6982      ao       1    MUSC   Al0C4       1     1.575    26.982
    6983      ao       1    MUSC   Al0C5       1     1.575    26.982
    6984      ao       1    MUSC   Al0C6       1     1.575    26.982
    6985      ao       1    MUSC   Al0C7       1     1.575    26.982
    6986      ao       1    MUSC   Al0C8       1     1.575    26.982
    6987      st       1    MUSC   Si0O1       1       2.1    28.086
    6988      st       1    MUSC   Si0O2       1       2.1    28.086
    6989      st       1    MUSC   Si0O3       1       2.1    28.086
    6990      st       1    MUSC   Si0O4       1       2.1    28.086
    6991      st       1    MUSC   Si0O5       1       2.1    28.086
    6992      st       1    MUSC   Si0O6       1       2.1    28.086
    6993      st       1    MUSC   Si0O7       1       2.1    28.086
    6994      st       1    MUSC   Si0O8       1       2.1    28.086
    6995      st       1    MUSC   Si0O9       1       2.1    28.086
    6996      st       1    MUSC   Si0OA       1       2.1    28.086
    6997      st       1    MUSC   Si0OB       1       2.1    28.086
    6998      st       1    MUSC   Si0OC       1       2.1    28.086
    6999      st       1    MUSC   Si0OD       1       2.1    28.086
    7000      st       1    MUSC   Si0OE       1       2.1    28.086
    7001      st       1    MUSC   Si0OF       1       2.1    28.086
    7002      st       1    MUSC   Si0OG       1       2.1    28.086
    7003      ob       1    MUSC   O01A1       1     -1.05    15.999
    7004      ob       1    MUSC   O01A2       1     -1.05    15.999
    7005      ob       1    MUSC   O01A3       1     -1.05    15.999
    7006      ob       1    MUSC   O01A4       1     -1.05    15.999
    7007      oh       1    MUSC   O01A5       1     -0.95    15.999
    7008      oh       1    MUSC   O01A6       1     -0.95    15.999
    7009      oh       1    MUSC   O01A7       1     -0.95    15.999
    7010      oh       1    MUSC   O01A8       1     -0.95    15.999
    7011      ob       1    MUSC   O01A9       1     -1.05    15.999
    7012      ob       1    MUSC   O01AA       1     -1.05    15.999
    7013      ob       1    MUSC   O01AB       1     -1.05    15.999
    7014      ob       1    MUSC   O01AC       1     -1.05    15.999
    7015      ob       1    MUSC   O01AD       1     -1.05    15.999
    7016      ob       1    MUSC   O01AE       1     -1.05    15.999
    7017      ob       1    MUSC   O01AF       1     -1.05    15.999
    7018      ob       1    MUSC   O01AG       1     -1.05    15.999
    7019      ob       1    MUSC   O01AH       1     -1.05    15.999
    7020      ob       1    MUSC   O01AI       1     -1.05    15.999
    7021      ob       1    MUSC   O01AJ       1     -1.05    15.999
    7022      ob       1    MUSC   O01AK       1     -1.05    15.999
    7023      ob       1    MUSC   O01AL       1     -1.05    15.999
    7024      ob       1    MUSC   O01AM       1     -1.05    15.999
    7025      ob       1    MUSC   O01AN       1     -1.05    15.999
    7026      ob       1    MUSC   O01AO       1     -1.05    15.999
    7027      ob       1    MUSC   O01AP       1     -1.05    15.999
    7028      ob       1    MUSC   O01AQ       1     -1.05    15.999
    7029      ob       1    MUSC   O01AR       1     -1.05    15.999
    7030      ob       1    MUSC   O01AS       1     -1.05    15.999
    7031      oh       1    MUSC   O01AT       1     -0.95    15.999
    7032      oh       1    MUSC   O01AU       1     -0.95    15.999
    7033      oh       1    MUSC   O01AV       1     -0.95    15.999
    7034      oh       1    MUSC   O01AW       1     -0.95    15.999
    7035      ob       1    MUSC   O01AX       1     -1.05    15.999
    7036      ob       1    MUSC   O01AY       1     -1.05    15.999
    7037      ob       1    MUSC   O01AZ       1     -1.05    15.999
    7038      ob       1    MUSC   O01Aa       1     -1.05    15.999
    7039      ob       1    MUSC   O01Ab       1     -1.05    15.999
    7040      ob       1    MUSC   O01Ac       1     -1.05    15.999
    7041      ob       1    MUSC   O01Ad       1     -1.05    15.999
    7042      ob       1    MUSC   O01Ae       1     -1.05    15.999
    7043      ob       1    MUSC   O01Af       1     -1.05    15.999
    7044      ob       1    MUSC   O01Ag       1     -1.05    15.999
    7045      ob       1    MUSC   O01Ah       1     -1.05    15.999
    7046      ob       1    MUSC   O01Ai       1     -1.05    15.999
    7047      ob       1    MUSC   O01Aj       1     -1.05    15.999
    7048      ob       1    MUSC   O01Ak       1     -1.05    15.999
    7049      ob       1    MUSC   O01Al       1     -1.05    15.999
    7050      ob       1    MUSC   O01Am       1     -1.05    15.999
    7051       K       1    MUSC   K004Z       1       1.0    39.098
    7052       K       1    MUSC   K004a       1       1.0    39.098
    7053      ao       1    MUSC   Al0C9       1     1.575    26.982
    7054      ao       1    MUSC   Al0CA       1     1.575    26.982
    7055      ao       1    MUSC   Al0CB       1     1.575    26.982
    7056      ao       1    MUSC   Al0CC       1     1.575    26.982
    7057      ao       1    MUSC   Al0CD       1     1.575    26.982
    7058      ao       1    MUSC   Al0CE       1     1.575    26.982
    7059      ao       1    MUSC   Al0CF       1     1.575    26.982
    7060      ao       1    MUSC   Al0CG       1     1.575    26.982
    7061      st       1    MUSC   Si0OH       1       2.1    28.086
    7062      st       1    MUSC   Si0OI       1       2.1    28.086
    7063      st       1    MUSC   Si0OJ       1       2.1    28.086
    7064      st       1    MUSC   Si0OK       1       2.1    28.086
    7065      st       1    MUSC   Si0OL       1       2.1    28.086
    7066      st       1    MUSC   Si0OM       1       2.1    28.086
    7067      st       1    MUSC   Si0ON       1       2.1    28.086
    7068      st       1    MUSC   Si0OO       1       2.1    28.086
    7069      st       1    MUSC   Si0OP       1       2.1    28.086
    7070      st       1    MUSC   Si0OQ       1       2.1    28.086
    7071      st       1    MUSC   Si0OR       1       2.1    28.086
    7072      st       1    MUSC   Si0OS       1       2.1    28.086
    7073      st       1    MUSC   Si0OT       1       2.1    28.086
    7074      st       1    MUSC   Si0OU       1       2.1    28.086
    7075      st       1    MUSC   Si0OV       1       2.1    28.086
    7076      st       1    MUSC   Si0OW       1       2.1    28.086
    7077      ob       1    MUSC   O01An       1     -1.05    15.999
    7078      ob       1    MUSC   O01Ao       1     -1.05    15.999
    7079      ob       1    MUSC   O01Ap       1     -1.05    15.999
    7080      ob       1    MUSC   O01Aq       1     -1.05    15.999
    7081      oh       1    MUSC   O01Ar       1     -0.95    15.999
    7082      oh       1    MUSC   O01As       1     -0.95    15.999
    7083      oh       1    MUSC   O01At       1     -0.95    15.999
    7084      oh       1    MUSC   O01Au       1     -0.95    15.999
    7085      ob       1    MUSC   O01Av       1     -1.05    15.999
    7086      ob       1    MUSC   O01Aw       1     -1.05    15.999
    7087      ob       1    MUSC   O01Ax       1     -1.05    15.999
    7088      ob       1    MUSC   O01Ay       1     -1.05    15.999
    7089      ob       1    MUSC   O01Az       1     -1.05    15.999
    7090      ob       1    MUSC   O01B0       1     -1.05    15.999
    7091      ob       1    MUSC   O01B1       1     -1.05    15.999
    7092      ob       1    MUSC   O01B2       1     -1.05    15.999
    7093      ob       1    MUSC   O01B3       1     -1.05    15.999
    7094      ob       1    MUSC   O01B4       1     -1.05    15.999
    7095      ob       1    MUSC   O01B5       1     -1.05    15.999
    7096      ob       1    MUSC   O01B6       1     -1.05    15.999
    7097      ob       1    MUSC   O01B7       1     -1.05    15.999
    7098      ob       1    MUSC   O01B8       1     -1.05    15.999
    7099      ob       1    MUSC   O01B9       1     -1.05    15.999
    7100      ob       1    MUSC   O01BA       1     -1.05    15.999
    7101      ob       1    MUSC   O01BB       1     -1.05    15.999
    7102      ob       1    MUSC   O01BC       1     -1.05    15.999
    7103      ob       1    MUSC   O01BD       1     -1.05    15.999
    7104      ob       1    MUSC   O01BE       1     -1.05    15.999
    7105      oh       1    MUSC   O01BF       1     -0.95    15.999
    7106      oh       1    MUSC   O01BG       1     -0.95    15.999
    7107      oh       1    MUSC   O01BH       1     -0.95    15.999
    7108      oh       1    MUSC   O01BI       1     -0.95    15.999
    7109      ob       1    MUSC   O01BJ       1     -1.05    15.999
    7110      ob       1    MUSC   O01BK       1     -1.05    15.999
    7111      ob       1    MUSC   O01BL       1     -1.05    15.999
    7112      ob       1    MUSC   O01BM       1     -1.05    15.999
    7113      ob       1    MUSC   O01BN       1     -1.05    15.999
    7114      ob       1    MUSC   O01BO       1     -1.05    15.999
    7115      ob       1    MUSC   O01BP       1     -1.05    15.999
    7116      ob       1    MUSC   O01BQ       1     -1.05    15.999
    7117      ob       1    MUSC   O01BR       1     -1.05    15.999
    7118      ob       1    MUSC   O01BS       1     -1.05    15.999
    7119      ob       1    MUSC   O01BT       1     -1.05    15.999
    7120      ob       1    MUSC   O01BU       1     -1.05    15.999
    7121      ob       1    MUSC   O01BV       1     -1.05    15.999
    7122      ob       1    MUSC   O01BW       1     -1.05    15.999
    7123      ob       1    MUSC   O01BX       1     -1.05    15.999
    7124      ob       1    MUSC   O01BY       1     -1.05    15.999
    7125       K       1    MUSC   K004b       1       1.0    39.098
    7126       K       1    MUSC   K004c       1       1.0    39.098
    7127       K       1    MUSC   K004d       1       1.0    39.098
    7128       K       1    MUSC   K004e       1       1.0    39.098
    7129      ao       1    MUSC   Al0CH       1     1.575    26.982
    7130      ao       1    MUSC   Al0CI       1     1.575    26.982
    7131      ao       1    MUSC   Al0CJ       1     1.575    26.982
    7132      ao       1    MUSC   Al0CK       1     1.575    26.982
    7133      ao       1    MUSC   Al0CL       1     1.575    26.982
    7134      ao       1    MUSC   Al0CM       1     1.575    26.982
    7135      ao       1    MUSC   Al0CN       1     1.575    26.982
    7136      ao       1    MUSC   Al0CO       1     1.575    26.982
    7137      st       1    MUSC   Si0OX       1       2.1    28.086
    7138      st       1    MUSC   Si0OY       1       2.1    28.086
    7139      st       1    MUSC   Si0OZ       1       2.1    28.086
    7140      st       1    MUSC   Si0Oa       1       2.1    28.086
    7141      st       1    MUSC   Si0Ob       1       2.1    28.086
    7142      st       1    MUSC   Si0Oc       1       2.1    28.086
    7143      st       1    MUSC   Si0Od       1       2.1    28.086
    7144      st       1    MUSC   Si0Oe       1       2.1    28.086
    7145      st       1    MUSC   Si0Of       1       2.1    28.086
    7146      st       1    MUSC   Si0Og       1       2.1    28.086
    7147      st       1    MUSC   Si0Oh       1       2.1    28.086
    7148      st       1    MUSC   Si0Oi       1       2.1    28.086
    7149      st       1    MUSC   Si0Oj       1       2.1    28.086
    7150      st       1    MUSC   Si0Ok       1       2.1    28.086
    7151      st       1    MUSC   Si0Ol       1       2.1    28.086
    7152      st       1    MUSC   Si0Om       1       2.1    28.086
    7153      ob       1    MUSC   O01BZ       1     -1.05    15.999
    7154      ob       1    MUSC   O01Ba       1     -1.05    15.999
    7155      ob       1    MUSC   O01Bb       1     -1.05    15.999
    7156      ob       1    MUSC   O01Bc       1     -1.05    15.999
    7157      oh       1    MUSC   O01Bd       1     -0.95    15.999
    7158      oh       1    MUSC   O01Be       1     -0.95    15.999
    7159      oh       1    MUSC   O01Bf       1     -0.95    15.999
    7160      oh       1    MUSC   O01Bg       1     -0.95    15.999
    7161      ob       1    MUSC   O01Bh       1     -1.05    15.999
    7162      ob       1    MUSC   O01Bi       1     -1.05    15.999
    7163      ob       1    MUSC   O01Bj       1     -1.05    15.999
    7164      ob       1    MUSC   O01Bk       1     -1.05    15.999
    7165      ob       1    MUSC   O01Bl       1     -1.05    15.999
    7166      ob       1    MUSC   O01Bm       1     -1.05    15.999
    7167      ob       1    MUSC   O01Bn       1     -1.05    15.999
    7168      ob       1    MUSC   O01Bo       1     -1.05    15.999
    7169      ob       1    MUSC   O01Bp       1     -1.05    15.999
    7170      ob       1    MUSC   O01Bq       1     -1.05    15.999
    7171      ob       1    MUSC   O01Br       1     -1.05    15.999
    7172      ob       1    MUSC   O01Bs       1     -1.05    15.999
    7173      ob       1    MUSC   O01Bt       1     -1.05    15.999
    7174      ob       1    MUSC   O01Bu       1     -1.05    15.999
    7175      ob       1    MUSC   O01Bv       1     -1.05    15.999
    7176      ob       1    MUSC   O01Bw       1     -1.05    15.999
    7177      ob       1    MUSC   O01Bx       1     -1.05    15.999
    7178      ob       1    MUSC   O01By       1     -1.05    15.999
    7179      ob       1    MUSC   O01Bz       1     -1.05    15.999
    7180      ob       1    MUSC   O01C0       1     -1.05    15.999
    7181      oh       1    MUSC   O01C1       1     -0.95    15.999
    7182      oh       1    MUSC   O01C2       1     -0.95    15.999
    7183      oh       1    MUSC   O01C3       1     -0.95    15.999
    7184      oh       1    MUSC   O01C4       1     -0.95    15.999
    7185      ob       1    MUSC   O01C5       1     -1.05    15.999
    7186      ob       1    MUSC   O01C6       1     -1.05    15.999
    7187      ob       1    MUSC   O01C7       1     -1.05    15.999
    7188      ob       1    MUSC   O01C8       1     -1.05    15.999
    7189      ob       1    MUSC   O01C9       1     -1.05    15.999
    7190      ob       1    MUSC   O01CA       1     -1.05    15.999
    7191      ob       1    MUSC   O01CB       1     -1.05    15.999
    7192      ob       1    MUSC   O01CC       1     -1.05    15.999
    7193      ob       1    MUSC   O01CD       1     -1.05    15.999
    7194      ob       1    MUSC   O01CE       1     -1.05    15.999
    7195      ob       1    MUSC   O01CF       1     -1.05    15.999
    7196      ob       1    MUSC   O01CG       1     -1.05    15.999
    7197      ob       1    MUSC   O01CH       1     -1.05    15.999
    7198      ob       1    MUSC   O01CI       1     -1.05    15.999
    7199      ob       1    MUSC   O01CJ       1     -1.05    15.999
    7200      ob       1    MUSC   O01CK       1     -1.05    15.999
    7201       K       1    MUSC   K004f       1       1.0    39.098
    7202       K       1    MUSC   K004g       1       1.0    39.098
    7203      ao       1    MUSC   Al0CP       1     1.575    26.982
    7204      ao       1    MUSC   Al0CQ       1     1.575    26.982
    7205      ao       1    MUSC   Al0CR       1     1.575    26.982
    7206      ao       1    MUSC   Al0CS       1     1.575    26.982
    7207      ao       1    MUSC   Al0CT       1     1.575    26.982
    7208      ao       1    MUSC   Al0CU       1     1.575    26.982
    7209      ao       1    MUSC   Al0CV       1     1.575    26.982
    7210      ao       1    MUSC   Al0CW       1     1.575    26.982
    7211      st       1    MUSC   Si0On       1       2.1    28.086
    7212      st       1    MUSC   Si0Oo       1       2.1    28.086
    7213      st       1    MUSC   Si0Op       1       2.1    28.086
    7214      st       1    MUSC   Si0Oq       1       2.1    28.086
    7215      st       1    MUSC   Si0Or       1       2.1    28.086
    7216      st       1    MUSC   Si0Os       1       2.1    28.086
    7217      st       1    MUSC   Si0Ot       1       2.1    28.086
    7218      st       1    MUSC   Si0Ou       1       2.1    28.086
    7219      st       1    MUSC   Si0Ov       1       2.1    28.086
    7220      st       1    MUSC   Si0Ow       1       2.1    28.086
    7221      st       1    MUSC   Si0Ox       1       2.1    28.086
    7222      st       1    MUSC   Si0Oy       1       2.1    28.086
    7223      st       1    MUSC   Si0Oz       1       2.1    28.086
    7224      st       1    MUSC   Si0P0       1       2.1    28.086
    7225      st       1    MUSC   Si0P1       1       2.1    28.086
    7226      st       1    MUSC   Si0P2       1       2.1    28.086
    7227      ob       1    MUSC   O01CL       1     -1.05    15.999
    7228      ob       1    MUSC   O01CM       1     -1.05    15.999
    7229      ob       1    MUSC   O01CN       1     -1.05    15.999
    7230      ob       1    MUSC   O01CO       1     -1.05    15.999
    7231      oh       1    MUSC   O01CP       1     -0.95    15.999
    7232      oh       1    MUSC   O01CQ       1     -0.95    15.999
    7233      oh       1    MUSC   O01CR       1     -0.95    15.999
    7234      oh       1    MUSC   O01CS       1     -0.95    15.999
    7235      ob       1    MUSC   O01CT       1     -1.05    15.999
    7236      ob       1    MUSC   O01CU       1     -1.05    15.999
    7237      ob       1    MUSC   O01CV       1     -1.05    15.999
    7238      ob       1    MUSC   O01CW       1     -1.05    15.999
    7239      ob       1    MUSC   O01CX       1     -1.05    15.999
    7240      ob       1    MUSC   O01CY       1     -1.05    15.999
    7241      ob       1    MUSC   O01CZ       1     -1.05    15.999
    7242      ob       1    MUSC   O01Ca       1     -1.05    15.999
    7243      ob       1    MUSC   O01Cb       1     -1.05    15.999
    7244      ob       1    MUSC   O01Cc       1     -1.05    15.999
    7245      ob       1    MUSC   O01Cd       1     -1.05    15.999
    7246      ob       1    MUSC   O01Ce       1     -1.05    15.999
    7247      ob       1    MUSC   O01Cf       1     -1.05    15.999
    7248      ob       1    MUSC   O01Cg       1     -1.05    15.999
    7249      ob       1    MUSC   O01Ch       1     -1.05    15.999
    7250      ob       1    MUSC   O01Ci       1     -1.05    15.999
    7251      ob       1    MUSC   O01Cj       1     -1.05    15.999
    7252      ob       1    MUSC   O01Ck       1     -1.05    15.999
    7253      ob       1    MUSC   O01Cl       1     -1.05    15.999
    7254      ob       1    MUSC   O01Cm       1     -1.05    15.999
    7255      oh       1    MUSC   O01Cn       1     -0.95    15.999
    7256      oh       1    MUSC   O01Co       1     -0.95    15.999
    7257      oh       1    MUSC   O01Cp       1     -0.95    15.999
    7258      oh       1    MUSC   O01Cq       1     -0.95    15.999
    7259      ob       1    MUSC   O01Cr       1     -1.05    15.999
    7260      ob       1    MUSC   O01Cs       1     -1.05    15.999
    7261      ob       1    MUSC   O01Ct       1     -1.05    15.999
    7262      ob       1    MUSC   O01Cu       1     -1.05    15.999
    7263      ob       1    MUSC   O01Cv       1     -1.05    15.999
    7264      ob       1    MUSC   O01Cw       1     -1.05    15.999
    7265      ob       1    MUSC   O01Cx       1     -1.05    15.999
    7266      ob       1    MUSC   O01Cy       1     -1.05    15.999
    7267      ob       1    MUSC   O01Cz       1     -1.05    15.999
    7268      ob       1    MUSC   O01D0       1     -1.05    15.999
    7269      ob       1    MUSC   O01D1       1     -1.05    15.999
    7270      ob       1    MUSC   O01D2       1     -1.05    15.999
    7271      ob       1    MUSC   O01D3       1     -1.05    15.999
    7272      ob       1    MUSC   O01D4       1     -1.05    15.999
    7273      ob       1    MUSC   O01D5       1     -1.05    15.999
    7274      ob       1    MUSC   O01D6       1     -1.05    15.999
    7275       K       1    MUSC   K004h       1       1.0    39.098
    7276       K       1    MUSC   K004i       1       1.0    39.098
    7277       K       1    MUSC   K004j       1       1.0    39.098
    7278       K       1    MUSC   K004k       1       1.0    39.098
    7279      ao       1    MUSC   Al0CX       1     1.575    26.982
    7280      ao       1    MUSC   Al0CY       1     1.575    26.982
    7281      ao       1    MUSC   Al0CZ       1     1.575    26.982
    7282      ao       1    MUSC   Al0Ca       1     1.575    26.982
    7283      ao       1    MUSC   Al0Cb       1     1.575    26.982
    7284      ao       1    MUSC   Al0Cc       1     1.575    26.982
    7285      ao       1    MUSC   Al0Cd       1     1.575    26.982
    7286      ao       1    MUSC   Al0Ce       1     1.575    26.982
    7287      st       1    MUSC   Si0P3       1       2.1    28.086
    7288      st       1    MUSC   Si0P4       1       2.1    28.086
    7289      st       1    MUSC   Si0P5       1       2.1    28.086
    7290      st       1    MUSC   Si0P6       1       2.1    28.086
    7291      st       1    MUSC   Si0P7       1       2.1    28.086
    7292      st       1    MUSC   Si0P8       1       2.1    28.086
    7293      st       1    MUSC   Si0P9       1       2.1    28.086
    7294      st       1    MUSC   Si0PA       1       2.1    28.086
    7295      st       1    MUSC   Si0PB       1       2.1    28.086
    7296      st       1    MUSC   Si0PC       1       2.1    28.086
    7297      st       1    MUSC   Si0PD       1       2.1    28.086
    7298      st       1    MUSC   Si0PE       1       2.1    28.086
    7299      st       1    MUSC   Si0PF       1       2.1    28.086
    7300      st       1    MUSC   Si0PG       1       2.1    28.086
    7301      st       1    MUSC   Si0PH       1       2.1    28.086
    7302      st       1    MUSC   Si0PI       1       2.1    28.086
    7303      ob       1    MUSC   O01D7       1     -1.05    15.999
    7304      ob       1    MUSC   O01D8       1     -1.05    15.999
    7305      ob       1    MUSC   O01D9       1     -1.05    15.999
    7306      ob       1    MUSC   O01DA       1     -1.05    15.999
    7307      oh       1    MUSC   O01DB       1     -0.95    15.999
    7308      oh       1    MUSC   O01DC       1     -0.95    15.999
    7309      oh       1    MUSC   O01DD       1     -0.95    15.999
    7310      oh       1    MUSC   O01DE       1     -0.95    15.999
    7311      ob       1    MUSC   O01DF       1     -1.05    15.999
    7312      ob       1    MUSC   O01DG       1     -1.05    15.999
    7313      ob       1    MUSC   O01DH       1     -1.05    15.999
    7314      ob       1    MUSC   O01DI       1     -1.05    15.999
    7315      ob       1    MUSC   O01DJ       1     -1.05    15.999
    7316      ob       1    MUSC   O01DK       1     -1.05    15.999
    7317      ob       1    MUSC   O01DL       1     -1.05    15.999
    7318      ob       1    MUSC   O01DM       1     -1.05    15.999
    7319      ob       1    MUSC   O01DN       1     -1.05    15.999
    7320      ob       1    MUSC   O01DO       1     -1.05    15.999
    7321      ob       1    MUSC   O01DP       1     -1.05    15.999
    7322      ob       1    MUSC   O01DQ       1     -1.05    15.999
    7323      ob       1    MUSC   O01DR       1     -1.05    15.999
    7324      ob       1    MUSC   O01DS       1     -1.05    15.999
    7325      ob       1    MUSC   O01DT       1     -1.05    15.999
    7326      ob       1    MUSC   O01DU       1     -1.05    15.999
    7327      ob       1    MUSC   O01DV       1     -1.05    15.999
    7328      ob       1    MUSC   O01DW       1     -1.05    15.999
    7329      ob       1    MUSC   O01DX       1     -1.05    15.999
    7330      ob       1    MUSC   O01DY       1     -1.05    15.999
    7331      oh       1    MUSC   O01DZ       1     -0.95    15.999
    7332      oh       1    MUSC   O01Da       1     -0.95    15.999
    7333      oh       1    MUSC   O01Db       1     -0.95    15.999
    7334      oh       1    MUSC   O01Dc       1     -0.95    15.999
    7335      ob       1    MUSC   O01Dd       1     -1.05    15.999
    7336      ob       1    MUSC   O01De       1     -1.05    15.999
    7337      ob       1    MUSC   O01Df       1     -1.05    15.999
    7338      ob       1    MUSC   O01Dg       1     -1.05    15.999
    7339      ob       1    MUSC   O01Dh       1     -1.05    15.999
    7340      ob       1    MUSC   O01Di       1     -1.05    15.999
    7341      ob       1    MUSC   O01Dj       1     -1.05    15.999
    7342      ob       1    MUSC   O01Dk       1     -1.05    15.999
    7343      ob       1    MUSC   O01Dl       1     -1.05    15.999
    7344      ob       1    MUSC   O01Dm       1     -1.05    15.999
    7345      ob       1    MUSC   O01Dn       1     -1.05    15.999
    7346      ob       1    MUSC   O01Do       1     -1.05    15.999
    7347      ob       1    MUSC   O01Dp       1     -1.05    15.999
    7348      ob       1    MUSC   O01Dq       1     -1.05    15.999
    7349      ob       1    MUSC   O01Dr       1     -1.05    15.999
    7350      ob       1    MUSC   O01Ds       1     -1.05    15.999
    7351       K       1    MUSC   K004l       1       1.0    39.098
    7352       K       1    MUSC   K004m       1       1.0    39.098
    7353      ao       1    MUSC   Al0Cf       1     1.575    26.982
    7354      ao       1    MUSC   Al0Cg       1     1.575    26.982
    7355      ao       1    MUSC   Al0Ch       1     1.575    26.982
    7356      ao       1    MUSC   Al0Ci       1     1.575    26.982
    7357      ao       1    MUSC   Al0Cj       1     1.575    26.982
    7358      ao       1    MUSC   Al0Ck       1     1.575    26.982
    7359      ao       1    MUSC   Al0Cl       1     1.575    26.982
    7360      ao       1    MUSC   Al0Cm       1     1.575    26.982
    7361      st       1    MUSC   Si0PJ       1       2.1    28.086
    7362      st       1    MUSC   Si0PK       1       2.1    28.086
    7363      st       1    MUSC   Si0PL       1       2.1    28.086
    7364      st       1    MUSC   Si0PM       1       2.1    28.086
    7365      st       1    MUSC   Si0PN       1       2.1    28.086
    7366      st       1    MUSC   Si0PO       1       2.1    28.086
    7367      st       1    MUSC   Si0PP       1       2.1    28.086
    7368      st       1    MUSC   Si0PQ       1       2.1    28.086
    7369      st       1    MUSC   Si0PR       1       2.1    28.086
    7370      st       1    MUSC   Si0PS       1       2.1    28.086
    7371      st       1    MUSC   Si0PT       1       2.1    28.086
    7372      st       1    MUSC   Si0PU       1       2.1    28.086
    7373      st       1    MUSC   Si0PV       1       2.1    28.086
    7374      st       1    MUSC   Si0PW       1       2.1    28.086
    7375      st       1    MUSC   Si0PX       1       2.1    28.086
    7376      st       1    MUSC   Si0PY       1       2.1    28.086
    7377      ob       1    MUSC   O01Dt       1     -1.05    15.999
    7378      ob       1    MUSC   O01Du       1     -1.05    15.999
    7379      ob       1    MUSC   O01Dv       1     -1.05    15.999
    7380      ob       1    MUSC   O01Dw       1     -1.05    15.999
    7381      oh       1    MUSC   O01Dx       1     -0.95    15.999
    7382      oh       1    MUSC   O01Dy       1     -0.95    15.999
    7383      oh       1    MUSC   O01Dz       1     -0.95    15.999
    7384      oh       1    MUSC   O01E0       1     -0.95    15.999
    7385      ob       1    MUSC   O01E1       1     -1.05    15.999
    7386      ob       1    MUSC   O01E2       1     -1.05    15.999
    7387      ob       1    MUSC   O01E3       1     -1.05    15.999
    7388      ob       1    MUSC   O01E4       1     -1.05    15.999
    7389      ob       1    MUSC   O01E5       1     -1.05    15.999
    7390      ob       1    MUSC   O01E6       1     -1.05    15.999
    7391      ob       1    MUSC   O01E7       1     -1.05    15.999
    7392      ob       1    MUSC   O01E8       1     -1.05    15.999
    7393      ob       1    MUSC   O01E9       1     -1.05    15.999
    7394      ob       1    MUSC   O01EA       1     -1.05    15.999
    7395      ob       1    MUSC   O01EB       1     -1.05    15.999
    7396      ob       1    MUSC   O01EC       1     -1.05    15.999
    7397      ob       1    MUSC   O01ED       1     -1.05    15.999
    7398      ob       1    MUSC   O01EE       1     -1.05    15.999
    7399      ob       1    MUSC   O01EF       1     -1.05    15.999
    7400      ob       1    MUSC   O01EG       1     -1.05    15.999
    7401      ob       1    MUSC   O01EH       1     -1.05    15.999
    7402      ob       1    MUSC   O01EI       1     -1.05    15.999
    7403      ob       1    MUSC   O01EJ       1     -1.05    15.999
    7404      ob       1    MUSC   O01EK       1     -1.05    15.999
    7405      oh       1    MUSC   O01EL       1     -0.95    15.999
    7406      oh       1    MUSC   O01EM       1     -0.95    15.999
    7407      oh       1    MUSC   O01EN       1     -0.95    15.999
    7408      oh       1    MUSC   O01EO       1     -0.95    15.999
    7409      ob       1    MUSC   O01EP       1     -1.05    15.999
    7410      ob       1    MUSC   O01EQ       1     -1.05    15.999
    7411      ob       1    MUSC   O01ER       1     -1.05    15.999
    7412      ob       1    MUSC   O01ES       1     -1.05    15.999
    7413      ob       1    MUSC   O01ET       1     -1.05    15.999
    7414      ob       1    MUSC   O01EU       1     -1.05    15.999
    7415      ob       1    MUSC   O01EV       1     -1.05    15.999
    7416      ob       1    MUSC   O01EW       1     -1.05    15.999
    7417      ob       1    MUSC   O01EX       1     -1.05    15.999
    7418      ob       1    MUSC   O01EY       1     -1.05    15.999
    7419      ob       1    MUSC   O01EZ       1     -1.05    15.999
    7420      ob       1    MUSC   O01Ea       1     -1.05    15.999
    7421      ob       1    MUSC   O01Eb       1     -1.05    15.999
    7422      ob       1    MUSC   O01Ec       1     -1.05    15.999
    7423      ob       1    MUSC   O01Ed       1     -1.05    15.999
    7424      ob       1    MUSC   O01Ee       1     -1.05    15.999
    7425       K       1    MUSC   K004n       1       1.0    39.098
    7426       K       1    MUSC   K004o       1       1.0    39.098
    7427       K       1    MUSC   K004p       1       1.0    39.098
    7428       K       1    MUSC   K004q       1       1.0    39.098
    7429      ao       1    MUSC   Al0Cn       1     1.575    26.982
    7430      ao       1    MUSC   Al0Co       1     1.575    26.982
    7431      ao       1    MUSC   Al0Cp       1     1.575    26.982
    7432      ao       1    MUSC   Al0Cq       1     1.575    26.982
    7433      ao       1    MUSC   Al0Cr       1     1.575    26.982
    7434      ao       1    MUSC   Al0Cs       1     1.575    26.982
    7435      ao       1    MUSC   Al0Ct       1     1.575    26.982
    7436      ao       1    MUSC   Al0Cu       1     1.575    26.982
    7437      st       1    MUSC   Si0PZ       1       2.1    28.086
    7438      st       1    MUSC   Si0Pa       1       2.1    28.086
    7439      st       1    MUSC   Si0Pb       1       2.1    28.086
    7440      st       1    MUSC   Si0Pc       1       2.1    28.086
    7441      st       1    MUSC   Si0Pd       1       2.1    28.086
    7442      st       1    MUSC   Si0Pe       1       2.1    28.086
    7443      st       1    MUSC   Si0Pf       1       2.1    28.086
    7444      st       1    MUSC   Si0Pg       1       2.1    28.086
    7445      st       1    MUSC   Si0Ph       1       2.1    28.086
    7446      st       1    MUSC   Si0Pi       1       2.1    28.086
    7447      st       1    MUSC   Si0Pj       1       2.1    28.086
    7448      st       1    MUSC   Si0Pk       1       2.1    28.086
    7449      st       1    MUSC   Si0Pl       1       2.1    28.086
    7450      st       1    MUSC   Si0Pm       1       2.1    28.086
    7451      st       1    MUSC   Si0Pn       1       2.1    28.086
    7452      st       1    MUSC   Si0Po       1       2.1    28.086
    7453      ob       1    MUSC   O01Ef       1     -1.05    15.999
    7454      ob       1    MUSC   O01Eg       1     -1.05    15.999
    7455      ob       1    MUSC   O01Eh       1     -1.05    15.999
    7456      ob       1    MUSC   O01Ei       1     -1.05    15.999
    7457      oh       1    MUSC   O01Ej       1     -0.95    15.999
    7458      oh       1    MUSC   O01Ek       1     -0.95    15.999
    7459      oh       1    MUSC   O01El       1     -0.95    15.999
    7460      oh       1    MUSC   O01Em       1     -0.95    15.999
    7461      ob       1    MUSC   O01En       1     -1.05    15.999
    7462      ob       1    MUSC   O01Eo       1     -1.05    15.999
    7463      ob       1    MUSC   O01Ep       1     -1.05    15.999
    7464      ob       1    MUSC   O01Eq       1     -1.05    15.999
    7465      ob       1    MUSC   O01Er       1     -1.05    15.999
    7466      ob       1    MUSC   O01Es       1     -1.05    15.999
    7467      ob       1    MUSC   O01Et       1     -1.05    15.999
    7468      ob       1    MUSC   O01Eu       1     -1.05    15.999
    7469      ob       1    MUSC   O01Ev       1     -1.05    15.999
    7470      ob       1    MUSC   O01Ew       1     -1.05    15.999
    7471      ob       1    MUSC   O01Ex       1     -1.05    15.999
    7472      ob       1    MUSC   O01Ey       1     -1.05    15.999
    7473      ob       1    MUSC   O01Ez       1     -1.05    15.999
    7474      ob       1    MUSC   O01F0       1     -1.05    15.999
    7475      ob       1    MUSC   O01F1       1     -1.05    15.999
    7476      ob       1    MUSC   O01F2       1     -1.05    15.999
    7477      ob       1    MUSC   O01F3       1     -1.05    15.999
    7478      ob       1    MUSC   O01F4       1     -1.05    15.999
    7479      ob       1    MUSC   O01F5       1     -1.05    15.999
    7480      ob       1    MUSC   O01F6       1     -1.05    15.999
    7481      oh       1    MUSC   O01F7       1     -0.95    15.999
    7482      oh       1    MUSC   O01F8       1     -0.95    15.999
    7483      oh       1    MUSC   O01F9       1     -0.95    15.999
    7484      oh       1    MUSC   O01FA       1     -0.95    15.999
    7485      ob       1    MUSC   O01FB       1     -1.05    15.999
    7486      ob       1    MUSC   O01FC       1     -1.05    15.999
    7487      ob       1    MUSC   O01FD       1     -1.05    15.999
    7488      ob       1    MUSC   O01FE       1     -1.05    15.999
    7489      ob       1    MUSC   O01FF       1     -1.05    15.999
    7490      ob       1    MUSC   O01FG       1     -1.05    15.999
    7491      ob       1    MUSC   O01FH       1     -1.05    15.999
    7492      ob       1    MUSC   O01FI       1     -1.05    15.999
    7493      ob       1    MUSC   O01FJ       1     -1.05    15.999
    7494      ob       1    MUSC   O01FK       1     -1.05    15.999
    7495      ob       1    MUSC   O01FL       1     -1.05    15.999
    7496      ob       1    MUSC   O01FM       1     -1.05    15.999
    7497      ob       1    MUSC   O01FN       1     -1.05    15.999
    7498      ob       1    MUSC   O01FO       1     -1.05    15.999
    7499      ob       1    MUSC   O01FP       1     -1.05    15.999
    7500      ob       1    MUSC   O01FQ       1     -1.05    15.999
    7501       K       1    MUSC   K004r       1       1.0    39.098
    7502       K       1    MUSC   K004s       1       1.0    39.098
    7503      ao       1    MUSC   Al0Cv       1     1.575    26.982
    7504      ao       1    MUSC   Al0Cw       1     1.575    26.982
    7505      ao       1    MUSC   Al0Cx       1     1.575    26.982
    7506      ao       1    MUSC   Al0Cy       1     1.575    26.982
    7507      ao       1    MUSC   Al0Cz       1     1.575    26.982
    7508      ao       1    MUSC   Al0D0       1     1.575    26.982
    7509      ao       1    MUSC   Al0D1       1     1.575    26.982
    7510      ao       1    MUSC   Al0D2       1     1.575    26.982
    7511      st       1    MUSC   Si0Pp       1       2.1    28.086
    7512      st       1    MUSC   Si0Pq       1       2.1    28.086
    7513      st       1    MUSC   Si0Pr       1       2.1    28.086
    7514      st       1    MUSC   Si0Ps       1       2.1    28.086
    7515      st       1    MUSC   Si0Pt       1       2.1    28.086
    7516      st       1    MUSC   Si0Pu       1       2.1    28.086
    7517      st       1    MUSC   Si0Pv       1       2.1    28.086
    7518      st       1    MUSC   Si0Pw       1       2.1    28.086
    7519      st       1    MUSC   Si0Px       1       2.1    28.086
    7520      st       1    MUSC   Si0Py       1       2.1    28.086
    7521      st       1    MUSC   Si0Pz       1       2.1    28.086
    7522      st       1    MUSC   Si0Q0       1       2.1    28.086
    7523      st       1    MUSC   Si0Q1       1       2.1    28.086
    7524      st       1    MUSC   Si0Q2       1       2.1    28.086
    7525      st       1    MUSC   Si0Q3       1       2.1    28.086
    7526      st       1    MUSC   Si0Q4       1       2.1    28.086
    7527      ob       1    MUSC   O01FR       1     -1.05    15.999
    7528      ob       1    MUSC   O01FS       1     -1.05    15.999
    7529      ob       1    MUSC   O01FT       1     -1.05    15.999
    7530      ob       1    MUSC   O01FU       1     -1.05    15.999
    7531      oh       1    MUSC   O01FV       1     -0.95    15.999
    7532      oh       1    MUSC   O01FW       1     -0.95    15.999
    7533      oh       1    MUSC   O01FX       1     -0.95    15.999
    7534      oh       1    MUSC   O01FY       1     -0.95    15.999
    7535      ob       1    MUSC   O01FZ       1     -1.05    15.999
    7536      ob       1    MUSC   O01Fa       1     -1.05    15.999
    7537      ob       1    MUSC   O01Fb       1     -1.05    15.999
    7538      ob       1    MUSC   O01Fc       1     -1.05    15.999
    7539      ob       1    MUSC   O01Fd       1     -1.05    15.999
    7540      ob       1    MUSC   O01Fe       1     -1.05    15.999
    7541      ob       1    MUSC   O01Ff       1     -1.05    15.999
    7542      ob       1    MUSC   O01Fg       1     -1.05    15.999
    7543      ob       1    MUSC   O01Fh       1     -1.05    15.999
    7544      ob       1    MUSC   O01Fi       1     -1.05    15.999
    7545      ob       1    MUSC   O01Fj       1     -1.05    15.999
    7546      ob       1    MUSC   O01Fk       1     -1.05    15.999
    7547      ob       1    MUSC   O01Fl       1     -1.05    15.999
    7548      ob       1    MUSC   O01Fm       1     -1.05    15.999
    7549      ob       1    MUSC   O01Fn       1     -1.05    15.999
    7550      ob       1    MUSC   O01Fo       1     -1.05    15.999
    7551      ob       1    MUSC   O01Fp       1     -1.05    15.999
    7552      ob       1    MUSC   O01Fq       1     -1.05    15.999
    7553      ob       1    MUSC   O01Fr       1     -1.05    15.999
    7554      ob       1    MUSC   O01Fs       1     -1.05    15.999
    7555      oh       1    MUSC   O01Ft       1     -0.95    15.999
    7556      oh       1    MUSC   O01Fu       1     -0.95    15.999
    7557      oh       1    MUSC   O01Fv       1     -0.95    15.999
    7558      oh       1    MUSC   O01Fw       1     -0.95    15.999
    7559      ob       1    MUSC   O01Fx       1     -1.05    15.999
    7560      ob       1    MUSC   O01Fy       1     -1.05    15.999
    7561      ob       1    MUSC   O01Fz       1     -1.05    15.999
    7562      ob       1    MUSC   O01G0       1     -1.05    15.999
    7563      ob       1    MUSC   O01G1       1     -1.05    15.999
    7564      ob       1    MUSC   O01G2       1     -1.05    15.999
    7565      ob       1    MUSC   O01G3       1     -1.05    15.999
    7566      ob       1    MUSC   O01G4       1     -1.05    15.999
    7567      ob       1    MUSC   O01G5       1     -1.05    15.999
    7568      ob       1    MUSC   O01G6       1     -1.05    15.999
    7569      ob       1    MUSC   O01G7       1     -1.05    15.999
    7570      ob       1    MUSC   O01G8       1     -1.05    15.999
    7571      ob       1    MUSC   O01G9       1     -1.05    15.999
    7572      ob       1    MUSC   O01GA       1     -1.05    15.999
    7573      ob       1    MUSC   O01GB       1     -1.05    15.999
    7574      ob       1    MUSC   O01GC       1     -1.05    15.999
    7575       K       1    MUSC   K004t       1       1.0    39.098
    7576       K       1    MUSC   K004u       1       1.0    39.098
    7577       K       1    MUSC   K004v       1       1.0    39.098
    7578       K       1    MUSC   K004w       1       1.0    39.098
    7579      ao       1    MUSC   Al0D3       1     1.575    26.982
    7580      ao       1    MUSC   Al0D4       1     1.575    26.982
    7581      ao       1    MUSC   Al0D5       1     1.575    26.982
    7582      ao       1    MUSC   Al0D6       1     1.575    26.982
    7583      ao       1    MUSC   Al0D7       1     1.575    26.982
    7584      ao       1    MUSC   Al0D8       1     1.575    26.982
    7585      ao       1    MUSC   Al0D9       1     1.575    26.982
    7586      ao       1    MUSC   Al0DA       1     1.575    26.982
    7587      st       1    MUSC   Si0Q5       1       2.1    28.086
    7588      st       1    MUSC   Si0Q6       1       2.1    28.086
    7589      st       1    MUSC   Si0Q7       1       2.1    28.086
    7590      st       1    MUSC   Si0Q8       1       2.1    28.086
    7591      st       1    MUSC   Si0Q9       1       2.1    28.086
    7592      st       1    MUSC   Si0QA       1       2.1    28.086
    7593      st       1    MUSC   Si0QB       1       2.1    28.086
    7594      st       1    MUSC   Si0QC       1       2.1    28.086
    7595      st       1    MUSC   Si0QD       1       2.1    28.086
    7596      st       1    MUSC   Si0QE       1       2.1    28.086
    7597      st       1    MUSC   Si0QF       1       2.1    28.086
    7598      st       1    MUSC   Si0QG       1       2.1    28.086
    7599      st       1    MUSC   Si0QH       1       2.1    28.086
    7600      st       1    MUSC   Si0QI       1       2.1    28.086
    7601      st       1    MUSC   Si0QJ       1       2.1    28.086
    7602      st       1    MUSC   Si0QK       1       2.1    28.086
    7603      ob       1    MUSC   O01GD       1     -1.05    15.999
    7604      ob       1    MUSC   O01GE       1     -1.05    15.999
    7605      ob       1    MUSC   O01GF       1     -1.05    15.999
    7606      ob       1    MUSC   O01GG       1     -1.05    15.999
    7607      oh       1    MUSC   O01GH       1     -0.95    15.999
    7608      oh       1    MUSC   O01GI       1     -0.95    15.999
    7609      oh       1    MUSC   O01GJ       1     -0.95    15.999
    7610      oh       1    MUSC   O01GK       1     -0.95    15.999
    7611      ob       1    MUSC   O01GL       1     -1.05    15.999
    7612      ob       1    MUSC   O01GM       1     -1.05    15.999
    7613      ob       1    MUSC   O01GN       1     -1.05    15.999
    7614      ob       1    MUSC   O01GO       1     -1.05    15.999
    7615      ob       1    MUSC   O01GP       1     -1.05    15.999
    7616      ob       1    MUSC   O01GQ       1     -1.05    15.999
    7617      ob       1    MUSC   O01GR       1     -1.05    15.999
    7618      ob       1    MUSC   O01GS       1     -1.05    15.999
    7619      ob       1    MUSC   O01GT       1     -1.05    15.999
    7620      ob       1    MUSC   O01GU       1     -1.05    15.999
    7621      ob       1    MUSC   O01GV       1     -1.05    15.999
    7622      ob       1    MUSC   O01GW       1     -1.05    15.999
    7623      ob       1    MUSC   O01GX       1     -1.05    15.999
    7624      ob       1    MUSC   O01GY       1     -1.05    15.999
    7625      ob       1    MUSC   O01GZ       1     -1.05    15.999
    7626      ob       1    MUSC   O01Ga       1     -1.05    15.999
    7627      ob       1    MUSC   O01Gb       1     -1.05    15.999
    7628      ob       1    MUSC   O01Gc       1     -1.05    15.999
    7629      ob       1    MUSC   O01Gd       1     -1.05    15.999
    7630      ob       1    MUSC   O01Ge       1     -1.05    15.999
    7631      oh       1    MUSC   O01Gf       1     -0.95    15.999
    7632      oh       1    MUSC   O01Gg       1     -0.95    15.999
    7633      oh       1    MUSC   O01Gh       1     -0.95    15.999
    7634      oh       1    MUSC   O01Gi       1     -0.95    15.999
    7635      ob       1    MUSC   O01Gj       1     -1.05    15.999
    7636      ob       1    MUSC   O01Gk       1     -1.05    15.999
    7637      ob       1    MUSC   O01Gl       1     -1.05    15.999
    7638      ob       1    MUSC   O01Gm       1     -1.05    15.999
    7639      ob       1    MUSC   O01Gn       1     -1.05    15.999
    7640      ob       1    MUSC   O01Go       1     -1.05    15.999
    7641      ob       1    MUSC   O01Gp       1     -1.05    15.999
    7642      ob       1    MUSC   O01Gq       1     -1.05    15.999
    7643      ob       1    MUSC   O01Gr       1     -1.05    15.999
    7644      ob       1    MUSC   O01Gs       1     -1.05    15.999
    7645      ob       1    MUSC   O01Gt       1     -1.05    15.999
    7646      ob       1    MUSC   O01Gu       1     -1.05    15.999
    7647      ob       1    MUSC   O01Gv       1     -1.05    15.999
    7648      ob       1    MUSC   O01Gw       1     -1.05    15.999
    7649      ob       1    MUSC   O01Gx       1     -1.05    15.999
    7650      ob       1    MUSC   O01Gy       1     -1.05    15.999
    7651       K       1    MUSC   K004x       1       1.0    39.098
    7652       K       1    MUSC   K004y       1       1.0    39.098
    7653      ao       1    MUSC   Al0DB       1     1.575    26.982
    7654      ao       1    MUSC   Al0DC       1     1.575    26.982
    7655      ao       1    MUSC   Al0DD       1     1.575    26.982
    7656      ao       1    MUSC   Al0DE       1     1.575    26.982
    7657      ao       1    MUSC   Al0DF       1     1.575    26.982
    7658      ao       1    MUSC   Al0DG       1     1.575    26.982
    7659      ao       1    MUSC   Al0DH       1     1.575    26.982
    7660      ao       1    MUSC   Al0DI       1     1.575    26.982
    7661      st       1    MUSC   Si0QL       1       2.1    28.086
    7662      st       1    MUSC   Si0QM       1       2.1    28.086
    7663      st       1    MUSC   Si0QN       1       2.1    28.086
    7664      st       1    MUSC   Si0QO       1       2.1    28.086
    7665      st       1    MUSC   Si0QP       1       2.1    28.086
    7666      st       1    MUSC   Si0QQ       1       2.1    28.086
    7667      st       1    MUSC   Si0QR       1       2.1    28.086
    7668      st       1    MUSC   Si0QS       1       2.1    28.086
    7669      st       1    MUSC   Si0QT       1       2.1    28.086
    7670      st       1    MUSC   Si0QU       1       2.1    28.086
    7671      st       1    MUSC   Si0QV       1       2.1    28.086
    7672      st       1    MUSC   Si0QW       1       2.1    28.086
    7673      st       1    MUSC   Si0QX       1       2.1    28.086
    7674      st       1    MUSC   Si0QY       1       2.1    28.086
    7675      st       1    MUSC   Si0QZ       1       2.1    28.086
    7676      st       1    MUSC   Si0Qa       1       2.1    28.086
    7677      ob       1    MUSC   O01Gz       1     -1.05    15.999
    7678      ob       1    MUSC   O01H0       1     -1.05    15.999
    7679      ob       1    MUSC   O01H1       1     -1.05    15.999
    7680      ob       1    MUSC   O01H2       1     -1.05    15.999
    7681      oh       1    MUSC   O01H3       1     -0.95    15.999
    7682      oh       1    MUSC   O01H4       1     -0.95    15.999
    7683      oh       1    MUSC   O01H5       1     -0.95    15.999
    7684      oh       1    MUSC   O01H6       1     -0.95    15.999
    7685      ob       1    MUSC   O01H7       1     -1.05    15.999
    7686      ob       1    MUSC   O01H8       1     -1.05    15.999
    7687      ob       1    MUSC   O01H9       1     -1.05    15.999
    7688      ob       1    MUSC   O01HA       1     -1.05    15.999
    7689      ob       1    MUSC   O01HB       1     -1.05    15.999
    7690      ob       1    MUSC   O01HC       1     -1.05    15.999
    7691      ob       1    MUSC   O01HD       1     -1.05    15.999
    7692      ob       1    MUSC   O01HE       1     -1.05    15.999
    7693      ob       1    MUSC   O01HF       1     -1.05    15.999
    7694      ob       1    MUSC   O01HG       1     -1.05    15.999
    7695      ob       1    MUSC   O01HH       1     -1.05    15.999
    7696      ob       1    MUSC   O01HI       1     -1.05    15.999
    7697      ob       1    MUSC   O01HJ       1     -1.05    15.999
    7698      ob       1    MUSC   O01HK       1     -1.05    15.999
    7699      ob       1    MUSC   O01HL       1     -1.05    15.999
    7700      ob       1    MUSC   O01HM       1     -1.05    15.999
    7701      ob       1    MUSC   O01HN       1     -1.05    15.999
    7702      ob       1    MUSC   O01HO       1     -1.05    15.999
    7703      ob       1    MUSC   O01HP       1     -1.05    15.999
    7704      ob       1    MUSC   O01HQ       1     -1.05    15.999
    7705      oh       1    MUSC   O01HR       1     -0.95    15.999
    7706      oh       1    MUSC   O01HS       1     -0.95    15.999
    7707      oh       1    MUSC   O01HT       1     -0.95    15.999
    7708      oh       1    MUSC   O01HU       1     -0.95    15.999
    7709      ob       1    MUSC   O01HV       1     -1.05    15.999
    7710      ob       1    MUSC   O01HW       1     -1.05    15.999
    7711      ob       1    MUSC   O01HX       1     -1.05    15.999
    7712      ob       1    MUSC   O01HY       1     -1.05    15.999
    7713      ob       1    MUSC   O01HZ       1     -1.05    15.999
    7714      ob       1    MUSC   O01Ha       1     -1.05    15.999
    7715      ob       1    MUSC   O01Hb       1     -1.05    15.999
    7716      ob       1    MUSC   O01Hc       1     -1.05    15.999
    7717      ob       1    MUSC   O01Hd       1     -1.05    15.999
    7718      ob       1    MUSC   O01He       1     -1.05    15.999
    7719      ob       1    MUSC   O01Hf       1     -1.05    15.999
    7720      ob       1    MUSC   O01Hg       1     -1.05    15.999
    7721      ob       1    MUSC   O01Hh       1     -1.05    15.999
    7722      ob       1    MUSC   O01Hi       1     -1.05    15.999
    7723      ob       1    MUSC   O01Hj       1     -1.05    15.999
    7724      ob       1    MUSC   O01Hk       1     -1.05    15.999
    7725       K       1    MUSC   K004z       1       1.0    39.098
    7726       K       1    MUSC   K0050       1       1.0    39.098
    7727       K       1    MUSC   K0051       1       1.0    39.098
    7728       K       1    MUSC   K0052       1       1.0    39.098
    7729      ao       1    MUSC   Al0DJ       1     1.575    26.982
    7730      ao       1    MUSC   Al0DK       1     1.575    26.982
    7731      ao       1    MUSC   Al0DL       1     1.575    26.982
    7732      ao       1    MUSC   Al0DM       1     1.575    26.982
    7733      ao       1    MUSC   Al0DN       1     1.575    26.982
    7734      ao       1    MUSC   Al0DO       1     1.575    26.982
    7735      ao       1    MUSC   Al0DP       1     1.575    26.982
    7736      ao       1    MUSC   Al0DQ       1     1.575    26.982
    7737      st       1    MUSC   Si0Qb       1       2.1    28.086
    7738      st       1    MUSC   Si0Qc       1       2.1    28.086
    7739      st       1    MUSC   Si0Qd       1       2.1    28.086
    7740      st       1    MUSC   Si0Qe       1       2.1    28.086
    7741      st       1    MUSC   Si0Qf       1       2.1    28.086
    7742      st       1    MUSC   Si0Qg       1       2.1    28.086
    7743      st       1    MUSC   Si0Qh       1       2.1    28.086
    7744      st       1    MUSC   Si0Qi       1       2.1    28.086
    7745      st       1    MUSC   Si0Qj       1       2.1    28.086
    7746      st       1    MUSC   Si0Qk       1       2.1    28.086
    7747      st       1    MUSC   Si0Ql       1       2.1    28.086
    7748      st       1    MUSC   Si0Qm       1       2.1    28.086
    7749      st       1    MUSC   Si0Qn       1       2.1    28.086
    7750      st       1    MUSC   Si0Qo       1       2.1    28.086
    7751      st       1    MUSC   Si0Qp       1       2.1    28.086
    7752      st       1    MUSC   Si0Qq       1       2.1    28.086
    7753      ob       1    MUSC   O01Hl       1     -1.05    15.999
    7754      ob       1    MUSC   O01Hm       1     -1.05    15.999
    7755      ob       1    MUSC   O01Hn       1     -1.05    15.999
    7756      ob       1    MUSC   O01Ho       1     -1.05    15.999
    7757      oh       1    MUSC   O01Hp       1     -0.95    15.999
    7758      oh       1    MUSC   O01Hq       1     -0.95    15.999
    7759      oh       1    MUSC   O01Hr       1     -0.95    15.999
    7760      oh       1    MUSC   O01Hs       1     -0.95    15.999
    7761      ob       1    MUSC   O01Ht       1     -1.05    15.999
    7762      ob       1    MUSC   O01Hu       1     -1.05    15.999
    7763      ob       1    MUSC   O01Hv       1     -1.05    15.999
    7764      ob       1    MUSC   O01Hw       1     -1.05    15.999
    7765      ob       1    MUSC   O01Hx       1     -1.05    15.999
    7766      ob       1    MUSC   O01Hy       1     -1.05    15.999
    7767      ob       1    MUSC   O01Hz       1     -1.05    15.999
    7768      ob       1    MUSC   O01I0       1     -1.05    15.999
    7769      ob       1    MUSC   O01I1       1     -1.05    15.999
    7770      ob       1    MUSC   O01I2       1     -1.05    15.999
    7771      ob       1    MUSC   O01I3       1     -1.05    15.999
    7772      ob       1    MUSC   O01I4       1     -1.05    15.999
    7773      ob       1    MUSC   O01I5       1     -1.05    15.999
    7774      ob       1    MUSC   O01I6       1     -1.05    15.999
    7775      ob       1    MUSC   O01I7       1     -1.05    15.999
    7776      ob       1    MUSC   O01I8       1     -1.05    15.999
    7777      ob       1    MUSC   O01I9       1     -1.05    15.999
    7778      ob       1    MUSC   O01IA       1     -1.05    15.999
    7779      ob       1    MUSC   O01IB       1     -1.05    15.999
    7780      ob       1    MUSC   O01IC       1     -1.05    15.999
    7781      oh       1    MUSC   O01ID       1     -0.95    15.999
    7782      oh       1    MUSC   O01IE       1     -0.95    15.999
    7783      oh       1    MUSC   O01IF       1     -0.95    15.999
    7784      oh       1    MUSC   O01IG       1     -0.95    15.999
    7785      ob       1    MUSC   O01IH       1     -1.05    15.999
    7786      ob       1    MUSC   O01II       1     -1.05    15.999
    7787      ob       1    MUSC   O01IJ       1     -1.05    15.999
    7788      ob       1    MUSC   O01IK       1     -1.05    15.999
    7789      ob       1    MUSC   O01IL       1     -1.05    15.999
    7790      ob       1    MUSC   O01IM       1     -1.05    15.999
    7791      ob       1    MUSC   O01IN       1     -1.05    15.999
    7792      ob       1    MUSC   O01IO       1     -1.05    15.999
    7793      ob       1    MUSC   O01IP       1     -1.05    15.999
    7794      ob       1    MUSC   O01IQ       1     -1.05    15.999
    7795      ob       1    MUSC   O01IR       1     -1.05    15.999
    7796      ob       1    MUSC   O01IS       1     -1.05    15.999
    7797      ob       1    MUSC   O01IT       1     -1.05    15.999
    7798      ob       1    MUSC   O01IU       1     -1.05    15.999
    7799      ob       1    MUSC   O01IV       1     -1.05    15.999
    7800      ob       1    MUSC   O01IW       1     -1.05    15.999
    7801       K       1    MUSC   K0053       1       1.0    39.098
    7802       K       1    MUSC   K0054       1       1.0    39.098
    7803      ao       1    MUSC   Al0DR       1     1.575    26.982
    7804      ao       1    MUSC   Al0DS       1     1.575    26.982
    7805      ao       1    MUSC   Al0DT       1     1.575    26.982
    7806      ao       1    MUSC   Al0DU       1     1.575    26.982
    7807      ao       1    MUSC   Al0DV       1     1.575    26.982
    7808      ao       1    MUSC   Al0DW       1     1.575    26.982
    7809      ao       1    MUSC   Al0DX       1     1.575    26.982
    7810      ao       1    MUSC   Al0DY       1     1.575    26.982
    7811      st       1    MUSC   Si0Qr       1       2.1    28.086
    7812      st       1    MUSC   Si0Qs       1       2.1    28.086
    7813      st       1    MUSC   Si0Qt       1       2.1    28.086
    7814      st       1    MUSC   Si0Qu       1       2.1    28.086
    7815      st       1    MUSC   Si0Qv       1       2.1    28.086
    7816      st       1    MUSC   Si0Qw       1       2.1    28.086
    7817      st       1    MUSC   Si0Qx       1       2.1    28.086
    7818      st       1    MUSC   Si0Qy       1       2.1    28.086
    7819      st       1    MUSC   Si0Qz       1       2.1    28.086
    7820      st       1    MUSC   Si0R0       1       2.1    28.086
    7821      st       1    MUSC   Si0R1       1       2.1    28.086
    7822      st       1    MUSC   Si0R2       1       2.1    28.086
    7823      st       1    MUSC   Si0R3       1       2.1    28.086
    7824      st       1    MUSC   Si0R4       1       2.1    28.086
    7825      st       1    MUSC   Si0R5       1       2.1    28.086
    7826      st       1    MUSC   Si0R6       1       2.1    28.086
    7827      ob       1    MUSC   O01IX       1     -1.05    15.999
    7828      ob       1    MUSC   O01IY       1     -1.05    15.999
    7829      ob       1    MUSC   O01IZ       1     -1.05    15.999
    7830      ob       1    MUSC   O01Ia       1     -1.05    15.999
    7831      oh       1    MUSC   O01Ib       1     -0.95    15.999
    7832      oh       1    MUSC   O01Ic       1     -0.95    15.999
    7833      oh       1    MUSC   O01Id       1     -0.95    15.999
    7834      oh       1    MUSC   O01Ie       1     -0.95    15.999
    7835      ob       1    MUSC   O01If       1     -1.05    15.999
    7836      ob       1    MUSC   O01Ig       1     -1.05    15.999
    7837      ob       1    MUSC   O01Ih       1     -1.05    15.999
    7838      ob       1    MUSC   O01Ii       1     -1.05    15.999
    7839      ob       1    MUSC   O01Ij       1     -1.05    15.999
    7840      ob       1    MUSC   O01Ik       1     -1.05    15.999
    7841      ob       1    MUSC   O01Il       1     -1.05    15.999
    7842      ob       1    MUSC   O01Im       1     -1.05    15.999
    7843      ob       1    MUSC   O01In       1     -1.05    15.999
    7844      ob       1    MUSC   O01Io       1     -1.05    15.999
    7845      ob       1    MUSC   O01Ip       1     -1.05    15.999
    7846      ob       1    MUSC   O01Iq       1     -1.05    15.999
    7847      ob       1    MUSC   O01Ir       1     -1.05    15.999
    7848      ob       1    MUSC   O01Is       1     -1.05    15.999
    7849      ob       1    MUSC   O01It       1     -1.05    15.999
    7850      ob       1    MUSC   O01Iu       1     -1.05    15.999
    7851      ob       1    MUSC   O01Iv       1     -1.05    15.999
    7852      ob       1    MUSC   O01Iw       1     -1.05    15.999
    7853      ob       1    MUSC   O01Ix       1     -1.05    15.999
    7854      ob       1    MUSC   O01Iy       1     -1.05    15.999
    7855      oh       1    MUSC   O01Iz       1     -0.95    15.999
    7856      oh       1    MUSC   O01J0       1     -0.95    15.999
    7857      oh       1    MUSC   O01J1       1     -0.95    15.999
    7858      oh       1    MUSC   O01J2       1     -0.95    15.999
    7859      ob       1    MUSC   O01J3       1     -1.05    15.999
    7860      ob       1    MUSC   O01J4       1     -1.05    15.999
    7861      ob       1    MUSC   O01J5       1     -1.05    15.999
    7862      ob       1    MUSC   O01J6       1     -1.05    15.999
    7863      ob       1    MUSC   O01J7       1     -1.05    15.999
    7864      ob       1    MUSC   O01J8       1     -1.05    15.999
    7865      ob       1    MUSC   O01J9       1     -1.05    15.999
    7866      ob       1    MUSC   O01JA       1     -1.05    15.999
    7867      ob       1    MUSC   O01JB       1     -1.05    15.999
    7868      ob       1    MUSC   O01JC       1     -1.05    15.999
    7869      ob       1    MUSC   O01JD       1     -1.05    15.999
    7870      ob       1    MUSC   O01JE       1     -1.05    15.999
    7871      ob       1    MUSC   O01JF       1     -1.05    15.999
    7872      ob       1    MUSC   O01JG       1     -1.05    15.999
    7873      ob       1    MUSC   O01JH       1     -1.05    15.999
    7874      ob       1    MUSC   O01JI       1     -1.05    15.999
    7875       K       1    MUSC   K0055       1       1.0    39.098
    7876       K       1    MUSC   K0056       1       1.0    39.098
    7877       K       1    MUSC   K0057       1       1.0    39.098
    7878       K       1    MUSC   K0058       1       1.0    39.098
    7879      ao       1    MUSC   Al0DZ       1     1.575    26.982
    7880      ao       1    MUSC   Al0Da       1     1.575    26.982
    7881      ao       1    MUSC   Al0Db       1     1.575    26.982
    7882      ao       1    MUSC   Al0Dc       1     1.575    26.982
    7883      ao       1    MUSC   Al0Dd       1     1.575    26.982
    7884      ao       1    MUSC   Al0De       1     1.575    26.982
    7885      ao       1    MUSC   Al0Df       1     1.575    26.982
    7886      ao       1    MUSC   Al0Dg       1     1.575    26.982
    7887      st       1    MUSC   Si0R7       1       2.1    28.086
    7888      st       1    MUSC   Si0R8       1       2.1    28.086
    7889      st       1    MUSC   Si0R9       1       2.1    28.086
    7890      st       1    MUSC   Si0RA       1       2.1    28.086
    7891      st       1    MUSC   Si0RB       1       2.1    28.086
    7892      st       1    MUSC   Si0RC       1       2.1    28.086
    7893      st       1    MUSC   Si0RD       1       2.1    28.086
    7894      st       1    MUSC   Si0RE       1       2.1    28.086
    7895      st       1    MUSC   Si0RF       1       2.1    28.086
    7896      st       1    MUSC   Si0RG       1       2.1    28.086
    7897      st       1    MUSC   Si0RH       1       2.1    28.086
    7898      st       1    MUSC   Si0RI       1       2.1    28.086
    7899      st       1    MUSC   Si0RJ       1       2.1    28.086
    7900      st       1    MUSC   Si0RK       1       2.1    28.086
    7901      st       1    MUSC   Si0RL       1       2.1    28.086
    7902      st       1    MUSC   Si0RM       1       2.1    28.086
    7903      ob       1    MUSC   O01JJ       1     -1.05    15.999
    7904      ob       1    MUSC   O01JK       1     -1.05    15.999
    7905      ob       1    MUSC   O01JL       1     -1.05    15.999
    7906      ob       1    MUSC   O01JM       1     -1.05    15.999
    7907      oh       1    MUSC   O01JN       1     -0.95    15.999
    7908      oh       1    MUSC   O01JO       1     -0.95    15.999
    7909      oh       1    MUSC   O01JP       1     -0.95    15.999
    7910      oh       1    MUSC   O01JQ       1     -0.95    15.999
    7911      ob       1    MUSC   O01JR       1     -1.05    15.999
    7912      ob       1    MUSC   O01JS       1     -1.05    15.999
    7913      ob       1    MUSC   O01JT       1     -1.05    15.999
    7914      ob       1    MUSC   O01JU       1     -1.05    15.999
    7915      ob       1    MUSC   O01JV       1     -1.05    15.999
    7916      ob       1    MUSC   O01JW       1     -1.05    15.999
    7917      ob       1    MUSC   O01JX       1     -1.05    15.999
    7918      ob       1    MUSC   O01JY       1     -1.05    15.999
    7919      ob       1    MUSC   O01JZ       1     -1.05    15.999
    7920      ob       1    MUSC   O01Ja       1     -1.05    15.999
    7921      ob       1    MUSC   O01Jb       1     -1.05    15.999
    7922      ob       1    MUSC   O01Jc       1     -1.05    15.999
    7923      ob       1    MUSC   O01Jd       1     -1.05    15.999
    7924      ob       1    MUSC   O01Je       1     -1.05    15.999
    7925      ob       1    MUSC   O01Jf       1     -1.05    15.999
    7926      ob       1    MUSC   O01Jg       1     -1.05    15.999
    7927      ob       1    MUSC   O01Jh       1     -1.05    15.999
    7928      ob       1    MUSC   O01Ji       1     -1.05    15.999
    7929      ob       1    MUSC   O01Jj       1     -1.05    15.999
    7930      ob       1    MUSC   O01Jk       1     -1.05    15.999
    7931      oh       1    MUSC   O01Jl       1     -0.95    15.999
    7932      oh       1    MUSC   O01Jm       1     -0.95    15.999
    7933      oh       1    MUSC   O01Jn       1     -0.95    15.999
    7934      oh       1    MUSC   O01Jo       1     -0.95    15.999
    7935      ob       1    MUSC   O01Jp       1     -1.05    15.999
    7936      ob       1    MUSC   O01Jq       1     -1.05    15.999
    7937      ob       1    MUSC   O01Jr       1     -1.05    15.999
    7938      ob       1    MUSC   O01Js       1     -1.05    15.999
    7939      ob       1    MUSC   O01Jt       1     -1.05    15.999
    7940      ob       1    MUSC   O01Ju       1     -1.05    15.999
    7941      ob       1    MUSC   O01Jv       1     -1.05    15.999
    7942      ob       1    MUSC   O01Jw       1     -1.05    15.999
    7943      ob       1    MUSC   O01Jx       1     -1.05    15.999
    7944      ob       1    MUSC   O01Jy       1     -1.05    15.999
    7945      ob       1    MUSC   O01Jz       1     -1.05    15.999
    7946      ob       1    MUSC   O01K0       1     -1.05    15.999
    7947      ob       1    MUSC   O01K1       1     -1.05    15.999
    7948      ob       1    MUSC   O01K2       1     -1.05    15.999
    7949      ob       1    MUSC   O01K3       1     -1.05    15.999
    7950      ob       1    MUSC   O01K4       1     -1.05    15.999
    7951       K       1    MUSC   K0059       1       1.0    39.098
    7952       K       1    MUSC   K005A       1       1.0    39.098
    7953      ao       1    MUSC   Al0Dh       1     1.575    26.982
    7954      ao       1    MUSC   Al0Di       1     1.575    26.982
    7955      ao       1    MUSC   Al0Dj       1     1.575    26.982
    7956      ao       1    MUSC   Al0Dk       1     1.575    26.982
    7957      ao       1    MUSC   Al0Dl       1     1.575    26.982
    7958      ao       1    MUSC   Al0Dm       1     1.575    26.982
    7959      ao       1    MUSC   Al0Dn       1     1.575    26.982
    7960      ao       1    MUSC   Al0Do       1     1.575    26.982
    7961      st       1    MUSC   Si0RN       1       2.1    28.086
    7962      st       1    MUSC   Si0RO       1       2.1    28.086
    7963      st       1    MUSC   Si0RP       1       2.1    28.086
    7964      st       1    MUSC   Si0RQ       1       2.1    28.086
    7965      st       1    MUSC   Si0RR       1       2.1    28.086
    7966      st       1    MUSC   Si0RS       1       2.1    28.086
    7967      st       1    MUSC   Si0RT       1       2.1    28.086
    7968      st       1    MUSC   Si0RU       1       2.1    28.086
    7969      st       1    MUSC   Si0RV       1       2.1    28.086
    7970      st       1    MUSC   Si0RW       1       2.1    28.086
    7971      st       1    MUSC   Si0RX       1       2.1    28.086
    7972      st       1    MUSC   Si0RY       1       2.1    28.086
    7973      st       1    MUSC   Si0RZ       1       2.1    28.086
    7974      st       1    MUSC   Si0Ra       1       2.1    28.086
    7975      st       1    MUSC   Si0Rb       1       2.1    28.086
    7976      st       1    MUSC   Si0Rc       1       2.1    28.086
    7977      ob       1    MUSC   O01K5       1     -1.05    15.999
    7978      ob       1    MUSC   O01K6       1     -1.05    15.999
    7979      ob       1    MUSC   O01K7       1     -1.05    15.999
    7980      ob       1    MUSC   O01K8       1     -1.05    15.999
    7981      oh       1    MUSC   O01K9       1     -0.95    15.999
    7982      oh       1    MUSC   O01KA       1     -0.95    15.999
    7983      oh       1    MUSC   O01KB       1     -0.95    15.999
    7984      oh       1    MUSC   O01KC       1     -0.95    15.999
    7985      ob       1    MUSC   O01KD       1     -1.05    15.999
    7986      ob       1    MUSC   O01KE       1     -1.05    15.999
    7987      ob       1    MUSC   O01KF       1     -1.05    15.999
    7988      ob       1    MUSC   O01KG       1     -1.05    15.999
    7989      ob       1    MUSC   O01KH       1     -1.05    15.999
    7990      ob       1    MUSC   O01KI       1     -1.05    15.999
    7991      ob       1    MUSC   O01KJ       1     -1.05    15.999
    7992      ob       1    MUSC   O01KK       1     -1.05    15.999
    7993      ob       1    MUSC   O01KL       1     -1.05    15.999
    7994      ob       1    MUSC   O01KM       1     -1.05    15.999
    7995      ob       1    MUSC   O01KN       1     -1.05    15.999
    7996      ob       1    MUSC   O01KO       1     -1.05    15.999
    7997      ob       1    MUSC   O01KP       1     -1.05    15.999
    7998      ob       1    MUSC   O01KQ       1     -1.05    15.999
    7999      ob       1    MUSC   O01KR       1     -1.05    15.999
    8000      ob       1    MUSC   O01KS       1     -1.05    15.999
    8001      ob       1    MUSC   O01KT       1     -1.05    15.999
    8002      ob       1    MUSC   O01KU       1     -1.05    15.999
    8003      ob       1    MUSC   O01KV       1     -1.05    15.999
    8004      ob       1    MUSC   O01KW       1     -1.05    15.999
    8005      oh       1    MUSC   O01KX       1     -0.95    15.999
    8006      oh       1    MUSC   O01KY       1     -0.95    15.999
    8007      oh       1    MUSC   O01KZ       1     -0.95    15.999
    8008      oh       1    MUSC   O01Ka       1     -0.95    15.999
    8009      ob       1    MUSC   O01Kb       1     -1.05    15.999
    8010      ob       1    MUSC   O01Kc       1     -1.05    15.999
    8011      ob       1    MUSC   O01Kd       1     -1.05    15.999
    8012      ob       1    MUSC   O01Ke       1     -1.05    15.999
    8013      ob       1    MUSC   O01Kf       1     -1.05    15.999
    8014      ob       1    MUSC   O01Kg       1     -1.05    15.999
    8015      ob       1    MUSC   O01Kh       1     -1.05    15.999
    8016      ob       1    MUSC   O01Ki       1     -1.05    15.999
    8017      ob       1    MUSC   O01Kj       1     -1.05    15.999
    8018      ob       1    MUSC   O01Kk       1     -1.05    15.999
    8019      ob       1    MUSC   O01Kl       1     -1.05    15.999
    8020      ob       1    MUSC   O01Km       1     -1.05    15.999
    8021      ob       1    MUSC   O01Kn       1     -1.05    15.999
    8022      ob       1    MUSC   O01Ko       1     -1.05    15.999
    8023      ob       1    MUSC   O01Kp       1     -1.05    15.999
    8024      ob       1    MUSC   O01Kq       1     -1.05    15.999
    8025       K       1    MUSC   K005B       1       1.0    39.098
    8026       K       1    MUSC   K005C       1       1.0    39.098
    8027       K       1    MUSC   K005D       1       1.0    39.098
    8028       K       1    MUSC   K005E       1       1.0    39.098
    8029      ao       1    MUSC   Al0Dp       1     1.575    26.982
    8030      ao       1    MUSC   Al0Dq       1     1.575    26.982
    8031      ao       1    MUSC   Al0Dr       1     1.575    26.982
    8032      ao       1    MUSC   Al0Ds       1     1.575    26.982
    8033      ao       1    MUSC   Al0Dt       1     1.575    26.982
    8034      ao       1    MUSC   Al0Du       1     1.575    26.982
    8035      ao       1    MUSC   Al0Dv       1     1.575    26.982
    8036      ao       1    MUSC   Al0Dw       1     1.575    26.982
    8037      st       1    MUSC   Si0Rd       1       2.1    28.086
    8038      st       1    MUSC   Si0Re       1       2.1    28.086
    8039      st       1    MUSC   Si0Rf       1       2.1    28.086
    8040      st       1    MUSC   Si0Rg       1       2.1    28.086
    8041      st       1    MUSC   Si0Rh       1       2.1    28.086
    8042      st       1    MUSC   Si0Ri       1       2.1    28.086
    8043      st       1    MUSC   Si0Rj       1       2.1    28.086
    8044      st       1    MUSC   Si0Rk       1       2.1    28.086
    8045      st       1    MUSC   Si0Rl       1       2.1    28.086
    8046      st       1    MUSC   Si0Rm       1       2.1    28.086
    8047      st       1    MUSC   Si0Rn       1       2.1    28.086
    8048      st       1    MUSC   Si0Ro       1       2.1    28.086
    8049      st       1    MUSC   Si0Rp       1       2.1    28.086
    8050      st       1    MUSC   Si0Rq       1       2.1    28.086
    8051      st       1    MUSC   Si0Rr       1       2.1    28.086
    8052      st       1    MUSC   Si0Rs       1       2.1    28.086
    8053      ob       1    MUSC   O01Kr       1     -1.05    15.999
    8054      ob       1    MUSC   O01Ks       1     -1.05    15.999
    8055      ob       1    MUSC   O01Kt       1     -1.05    15.999
    8056      ob       1    MUSC   O01Ku       1     -1.05    15.999
    8057      oh       1    MUSC   O01Kv       1     -0.95    15.999
    8058      oh       1    MUSC   O01Kw       1     -0.95    15.999
    8059      oh       1    MUSC   O01Kx       1     -0.95    15.999
    8060      oh       1    MUSC   O01Ky       1     -0.95    15.999
    8061      ob       1    MUSC   O01Kz       1     -1.05    15.999
    8062      ob       1    MUSC   O01L0       1     -1.05    15.999
    8063      ob       1    MUSC   O01L1       1     -1.05    15.999
    8064      ob       1    MUSC   O01L2       1     -1.05    15.999
    8065      ob       1    MUSC   O01L3       1     -1.05    15.999
    8066      ob       1    MUSC   O01L4       1     -1.05    15.999
    8067      ob       1    MUSC   O01L5       1     -1.05    15.999
    8068      ob       1    MUSC   O01L6       1     -1.05    15.999
    8069      ob       1    MUSC   O01L7       1     -1.05    15.999
    8070      ob       1    MUSC   O01L8       1     -1.05    15.999
    8071      ob       1    MUSC   O01L9       1     -1.05    15.999
    8072      ob       1    MUSC   O01LA       1     -1.05    15.999
    8073      ob       1    MUSC   O01LB       1     -1.05    15.999
    8074      ob       1    MUSC   O01LC       1     -1.05    15.999
    8075      ob       1    MUSC   O01LD       1     -1.05    15.999
    8076      ob       1    MUSC   O01LE       1     -1.05    15.999
    8077      ob       1    MUSC   O01LF       1     -1.05    15.999
    8078      ob       1    MUSC   O01LG       1     -1.05    15.999
    8079      ob       1    MUSC   O01LH       1     -1.05    15.999
    8080      ob       1    MUSC   O01LI       1     -1.05    15.999
    8081      oh       1    MUSC   O01LJ       1     -0.95    15.999
    8082      oh       1    MUSC   O01LK       1     -0.95    15.999
    8083      oh       1    MUSC   O01LL       1     -0.95    15.999
    8084      oh       1    MUSC   O01LM       1     -0.95    15.999
    8085      ob       1    MUSC   O01LN       1     -1.05    15.999
    8086      ob       1    MUSC   O01LO       1     -1.05    15.999
    8087      ob       1    MUSC   O01LP       1     -1.05    15.999
    8088      ob       1    MUSC   O01LQ       1     -1.05    15.999
    8089      ob       1    MUSC   O01LR       1     -1.05    15.999
    8090      ob       1    MUSC   O01LS       1     -1.05    15.999
    8091      ob       1    MUSC   O01LT       1     -1.05    15.999
    8092      ob       1    MUSC   O01LU       1     -1.05    15.999
    8093      ob       1    MUSC   O01LV       1     -1.05    15.999
    8094      ob       1    MUSC   O01LW       1     -1.05    15.999
    8095      ob       1    MUSC   O01LX       1     -1.05    15.999
    8096      ob       1    MUSC   O01LY       1     -1.05    15.999
    8097      ob       1    MUSC   O01LZ       1     -1.05    15.999
    8098      ob       1    MUSC   O01La       1     -1.05    15.999
    8099      ob       1    MUSC   O01Lb       1     -1.05    15.999
    8100      ob       1    MUSC   O01Lc       1     -1.05    15.999
    8101       K       1    MUSC   K005F       1       1.0    39.098
    8102       K       1    MUSC   K005G       1       1.0    39.098
    8103      ao       1    MUSC   Al0Dx       1     1.575    26.982
    8104      ao       1    MUSC   Al0Dy       1     1.575    26.982
    8105      ao       1    MUSC   Al0Dz       1     1.575    26.982
    8106      ao       1    MUSC   Al0E0       1     1.575    26.982
    8107      ao       1    MUSC   Al0E1       1     1.575    26.982
    8108      ao       1    MUSC   Al0E2       1     1.575    26.982
    8109      ao       1    MUSC   Al0E3       1     1.575    26.982
    8110      ao       1    MUSC   Al0E4       1     1.575    26.982
    8111      st       1    MUSC   Si0Rt       1       2.1    28.086
    8112      st       1    MUSC   Si0Ru       1       2.1    28.086
    8113      st       1    MUSC   Si0Rv       1       2.1    28.086
    8114      st       1    MUSC   Si0Rw       1       2.1    28.086
    8115      st       1    MUSC   Si0Rx       1       2.1    28.086
    8116      st       1    MUSC   Si0Ry       1       2.1    28.086
    8117      st       1    MUSC   Si0Rz       1       2.1    28.086
    8118      st       1    MUSC   Si0S0       1       2.1    28.086
    8119      st       1    MUSC   Si0S1       1       2.1    28.086
    8120      st       1    MUSC   Si0S2       1       2.1    28.086
    8121      st       1    MUSC   Si0S3       1       2.1    28.086
    8122      st       1    MUSC   Si0S4       1       2.1    28.086
    8123      st       1    MUSC   Si0S5       1       2.1    28.086
    8124      st       1    MUSC   Si0S6       1       2.1    28.086
    8125      st       1    MUSC   Si0S7       1       2.1    28.086
    8126      st       1    MUSC   Si0S8       1       2.1    28.086
    8127      ob       1    MUSC   O01Ld       1     -1.05    15.999
    8128      ob       1    MUSC   O01Le       1     -1.05    15.999
    8129      ob       1    MUSC   O01Lf       1     -1.05    15.999
    8130      ob       1    MUSC   O01Lg       1     -1.05    15.999
    8131      oh       1    MUSC   O01Lh       1     -0.95    15.999
    8132      oh       1    MUSC   O01Li       1     -0.95    15.999
    8133      oh       1    MUSC   O01Lj       1     -0.95    15.999
    8134      oh       1    MUSC   O01Lk       1     -0.95    15.999
    8135      ob       1    MUSC   O01Ll       1     -1.05    15.999
    8136      ob       1    MUSC   O01Lm       1     -1.05    15.999
    8137      ob       1    MUSC   O01Ln       1     -1.05    15.999
    8138      ob       1    MUSC   O01Lo       1     -1.05    15.999
    8139      ob       1    MUSC   O01Lp       1     -1.05    15.999
    8140      ob       1    MUSC   O01Lq       1     -1.05    15.999
    8141      ob       1    MUSC   O01Lr       1     -1.05    15.999
    8142      ob       1    MUSC   O01Ls       1     -1.05    15.999
    8143      ob       1    MUSC   O01Lt       1     -1.05    15.999
    8144      ob       1    MUSC   O01Lu       1     -1.05    15.999
    8145      ob       1    MUSC   O01Lv       1     -1.05    15.999
    8146      ob       1    MUSC   O01Lw       1     -1.05    15.999
    8147      ob       1    MUSC   O01Lx       1     -1.05    15.999
    8148      ob       1    MUSC   O01Ly       1     -1.05    15.999
    8149      ob       1    MUSC   O01Lz       1     -1.05    15.999
    8150      ob       1    MUSC   O01M0       1     -1.05    15.999
    8151      ob       1    MUSC   O01M1       1     -1.05    15.999
    8152      ob       1    MUSC   O01M2       1     -1.05    15.999
    8153      ob       1    MUSC   O01M3       1     -1.05    15.999
    8154      ob       1    MUSC   O01M4       1     -1.05    15.999
    8155      oh       1    MUSC   O01M5       1     -0.95    15.999
    8156      oh       1    MUSC   O01M6       1     -0.95    15.999
    8157      oh       1    MUSC   O01M7       1     -0.95    15.999
    8158      oh       1    MUSC   O01M8       1     -0.95    15.999
    8159      ob       1    MUSC   O01M9       1     -1.05    15.999
    8160      ob       1    MUSC   O01MA       1     -1.05    15.999
    8161      ob       1    MUSC   O01MB       1     -1.05    15.999
    8162      ob       1    MUSC   O01MC       1     -1.05    15.999
    8163      ob       1    MUSC   O01MD       1     -1.05    15.999
    8164      ob       1    MUSC   O01ME       1     -1.05    15.999
    8165      ob       1    MUSC   O01MF       1     -1.05    15.999
    8166      ob       1    MUSC   O01MG       1     -1.05    15.999
    8167      ob       1    MUSC   O01MH       1     -1.05    15.999
    8168      ob       1    MUSC   O01MI       1     -1.05    15.999
    8169      ob       1    MUSC   O01MJ       1     -1.05    15.999
    8170      ob       1    MUSC   O01MK       1     -1.05    15.999
    8171      ob       1    MUSC   O01ML       1     -1.05    15.999
    8172      ob       1    MUSC   O01MM       1     -1.05    15.999
    8173      ob       1    MUSC   O01MN       1     -1.05    15.999
    8174      ob       1    MUSC   O01MO       1     -1.05    15.999
    8175       K       1    MUSC   K005H       1       1.0    39.098
    8176       K       1    MUSC   K005I       1       1.0    39.098
    8177       K       1    MUSC   K005J       1       1.0    39.098
    8178       K       1    MUSC   K005K       1       1.0    39.098
    8179      ao       1    MUSC   Al0E5       1     1.575    26.982
    8180      ao       1    MUSC   Al0E6       1     1.575    26.982
    8181      ao       1    MUSC   Al0E7       1     1.575    26.982
    8182      ao       1    MUSC   Al0E8       1     1.575    26.982
    8183      ao       1    MUSC   Al0E9       1     1.575    26.982
    8184      ao       1    MUSC   Al0EA       1     1.575    26.982
    8185      ao       1    MUSC   Al0EB       1     1.575    26.982
    8186      ao       1    MUSC   Al0EC       1     1.575    26.982
    8187      st       1    MUSC   Si0S9       1       2.1    28.086
    8188      st       1    MUSC   Si0SA       1       2.1    28.086
    8189      st       1    MUSC   Si0SB       1       2.1    28.086
    8190      st       1    MUSC   Si0SC       1       2.1    28.086
    8191      st       1    MUSC   Si0SD       1       2.1    28.086
    8192      st       1    MUSC   Si0SE       1       2.1    28.086
    8193      st       1    MUSC   Si0SF       1       2.1    28.086
    8194      st       1    MUSC   Si0SG       1       2.1    28.086
    8195      st       1    MUSC   Si0SH       1       2.1    28.086
    8196      st       1    MUSC   Si0SI       1       2.1    28.086
    8197      st       1    MUSC   Si0SJ       1       2.1    28.086
    8198      st       1    MUSC   Si0SK       1       2.1    28.086
    8199      st       1    MUSC   Si0SL       1       2.1    28.086
    8200      st       1    MUSC   Si0SM       1       2.1    28.086
    8201      st       1    MUSC   Si0SN       1       2.1    28.086
    8202      st       1    MUSC   Si0SO       1       2.1    28.086
    8203      ob       1    MUSC   O01MP       1     -1.05    15.999
    8204      ob       1    MUSC   O01MQ       1     -1.05    15.999
    8205      ob       1    MUSC   O01MR       1     -1.05    15.999
    8206      ob       1    MUSC   O01MS       1     -1.05    15.999
    8207      oh       1    MUSC   O01MT       1     -0.95    15.999
    8208      oh       1    MUSC   O01MU       1     -0.95    15.999
    8209      oh       1    MUSC   O01MV       1     -0.95    15.999
    8210      oh       1    MUSC   O01MW       1     -0.95    15.999
    8211      ob       1    MUSC   O01MX       1     -1.05    15.999
    8212      ob       1    MUSC   O01MY       1     -1.05    15.999
    8213      ob       1    MUSC   O01MZ       1     -1.05    15.999
    8214      ob       1    MUSC   O01Ma       1     -1.05    15.999
    8215      ob       1    MUSC   O01Mb       1     -1.05    15.999
    8216      ob       1    MUSC   O01Mc       1     -1.05    15.999
    8217      ob       1    MUSC   O01Md       1     -1.05    15.999
    8218      ob       1    MUSC   O01Me       1     -1.05    15.999
    8219      ob       1    MUSC   O01Mf       1     -1.05    15.999
    8220      ob       1    MUSC   O01Mg       1     -1.05    15.999
    8221      ob       1    MUSC   O01Mh       1     -1.05    15.999
    8222      ob       1    MUSC   O01Mi       1     -1.05    15.999
    8223      ob       1    MUSC   O01Mj       1     -1.05    15.999
    8224      ob       1    MUSC   O01Mk       1     -1.05    15.999
    8225      ob       1    MUSC   O01Ml       1     -1.05    15.999
    8226      ob       1    MUSC   O01Mm       1     -1.05    15.999
    8227      ob       1    MUSC   O01Mn       1     -1.05    15.999
    8228      ob       1    MUSC   O01Mo       1     -1.05    15.999
    8229      ob       1    MUSC   O01Mp       1     -1.05    15.999
    8230      ob       1    MUSC   O01Mq       1     -1.05    15.999
    8231      oh       1    MUSC   O01Mr       1     -0.95    15.999
    8232      oh       1    MUSC   O01Ms       1     -0.95    15.999
    8233      oh       1    MUSC   O01Mt       1     -0.95    15.999
    8234      oh       1    MUSC   O01Mu       1     -0.95    15.999
    8235      ob       1    MUSC   O01Mv       1     -1.05    15.999
    8236      ob       1    MUSC   O01Mw       1     -1.05    15.999
    8237      ob       1    MUSC   O01Mx       1     -1.05    15.999
    8238      ob       1    MUSC   O01My       1     -1.05    15.999
    8239      ob       1    MUSC   O01Mz       1     -1.05    15.999
    8240      ob       1    MUSC   O01N0       1     -1.05    15.999
    8241      ob       1    MUSC   O01N1       1     -1.05    15.999
    8242      ob       1    MUSC   O01N2       1     -1.05    15.999
    8243      ob       1    MUSC   O01N3       1     -1.05    15.999
    8244      ob       1    MUSC   O01N4       1     -1.05    15.999
    8245      ob       1    MUSC   O01N5       1     -1.05    15.999
    8246      ob       1    MUSC   O01N6       1     -1.05    15.999
    8247      ob       1    MUSC   O01N7       1     -1.05    15.999
    8248      ob       1    MUSC   O01N8       1     -1.05    15.999
    8249      ob       1    MUSC   O01N9       1     -1.05    15.999
    8250      ob       1    MUSC   O01NA       1     -1.05    15.999
    8251       K       1    MUSC   K005L       1       1.0    39.098
    8252       K       1    MUSC   K005M       1       1.0    39.098
    8253      ao       1    MUSC   Al0ED       1     1.575    26.982
    8254      ao       1    MUSC   Al0EE       1     1.575    26.982
    8255      ao       1    MUSC   Al0EF       1     1.575    26.982
    8256      ao       1    MUSC   Al0EG       1     1.575    26.982
    8257      ao       1    MUSC   Al0EH       1     1.575    26.982
    8258      ao       1    MUSC   Al0EI       1     1.575    26.982
    8259      ao       1    MUSC   Al0EJ       1     1.575    26.982
    8260      ao       1    MUSC   Al0EK       1     1.575    26.982
    8261      st       1    MUSC   Si0SP       1       2.1    28.086
    8262      st       1    MUSC   Si0SQ       1       2.1    28.086
    8263      st       1    MUSC   Si0SR       1       2.1    28.086
    8264      st       1    MUSC   Si0SS       1       2.1    28.086
    8265      st       1    MUSC   Si0ST       1       2.1    28.086
    8266      st       1    MUSC   Si0SU       1       2.1    28.086
    8267      st       1    MUSC   Si0SV       1       2.1    28.086
    8268      st       1    MUSC   Si0SW       1       2.1    28.086
    8269      st       1    MUSC   Si0SX       1       2.1    28.086
    8270      st       1    MUSC   Si0SY       1       2.1    28.086
    8271      st       1    MUSC   Si0SZ       1       2.1    28.086
    8272      st       1    MUSC   Si0Sa       1       2.1    28.086
    8273      st       1    MUSC   Si0Sb       1       2.1    28.086
    8274      st       1    MUSC   Si0Sc       1       2.1    28.086
    8275      st       1    MUSC   Si0Sd       1       2.1    28.086
    8276      st       1    MUSC   Si0Se       1       2.1    28.086
    8277      ob       1    MUSC   O01NB       1     -1.05    15.999
    8278      ob       1    MUSC   O01NC       1     -1.05    15.999
    8279      ob       1    MUSC   O01ND       1     -1.05    15.999
    8280      ob       1    MUSC   O01NE       1     -1.05    15.999
    8281      oh       1    MUSC   O01NF       1     -0.95    15.999
    8282      oh       1    MUSC   O01NG       1     -0.95    15.999
    8283      oh       1    MUSC   O01NH       1     -0.95    15.999
    8284      oh       1    MUSC   O01NI       1     -0.95    15.999
    8285      ob       1    MUSC   O01NJ       1     -1.05    15.999
    8286      ob       1    MUSC   O01NK       1     -1.05    15.999
    8287      ob       1    MUSC   O01NL       1     -1.05    15.999
    8288      ob       1    MUSC   O01NM       1     -1.05    15.999
    8289      ob       1    MUSC   O01NN       1     -1.05    15.999
    8290      ob       1    MUSC   O01NO       1     -1.05    15.999
    8291      ob       1    MUSC   O01NP       1     -1.05    15.999
    8292      ob       1    MUSC   O01NQ       1     -1.05    15.999
    8293      ob       1    MUSC   O01NR       1     -1.05    15.999
    8294      ob       1    MUSC   O01NS       1     -1.05    15.999
    8295      ob       1    MUSC   O01NT       1     -1.05    15.999
    8296      ob       1    MUSC   O01NU       1     -1.05    15.999
    8297      ob       1    MUSC   O01NV       1     -1.05    15.999
    8298      ob       1    MUSC   O01NW       1     -1.05    15.999
    8299      ob       1    MUSC   O01NX       1     -1.05    15.999
    8300      ob       1    MUSC   O01NY       1     -1.05    15.999
    8301      ob       1    MUSC   O01NZ       1     -1.05    15.999
    8302      ob       1    MUSC   O01Na       1     -1.05    15.999
    8303      ob       1    MUSC   O01Nb       1     -1.05    15.999
    8304      ob       1    MUSC   O01Nc       1     -1.05    15.999
    8305      oh       1    MUSC   O01Nd       1     -0.95    15.999
    8306      oh       1    MUSC   O01Ne       1     -0.95    15.999
    8307      oh       1    MUSC   O01Nf       1     -0.95    15.999
    8308      oh       1    MUSC   O01Ng       1     -0.95    15.999
    8309      ob       1    MUSC   O01Nh       1     -1.05    15.999
    8310      ob       1    MUSC   O01Ni       1     -1.05    15.999
    8311      ob       1    MUSC   O01Nj       1     -1.05    15.999
    8312      ob       1    MUSC   O01Nk       1     -1.05    15.999
    8313      ob       1    MUSC   O01Nl       1     -1.05    15.999
    8314      ob       1    MUSC   O01Nm       1     -1.05    15.999
    8315      ob       1    MUSC   O01Nn       1     -1.05    15.999
    8316      ob       1    MUSC   O01No       1     -1.05    15.999
    8317      ob       1    MUSC   O01Np       1     -1.05    15.999
    8318      ob       1    MUSC   O01Nq       1     -1.05    15.999
    8319      ob       1    MUSC   O01Nr       1     -1.05    15.999
    8320      ob       1    MUSC   O01Ns       1     -1.05    15.999
    8321      ob       1    MUSC   O01Nt       1     -1.05    15.999
    8322      ob       1    MUSC   O01Nu       1     -1.05    15.999
    8323      ob       1    MUSC   O01Nv       1     -1.05    15.999
    8324      ob       1    MUSC   O01Nw       1     -1.05    15.999
    8325       K       1    MUSC   K005N       1       1.0    39.098
    8326       K       1    MUSC   K005O       1       1.0    39.098
    8327       K       1    MUSC   K005P       1       1.0    39.098
    8328       K       1    MUSC   K005Q       1       1.0    39.098
    8329      ao       1    MUSC   Al0EL       1     1.575    26.982
    8330      ao       1    MUSC   Al0EM       1     1.575    26.982
    8331      ao       1    MUSC   Al0EN       1     1.575    26.982
    8332      ao       1    MUSC   Al0EO       1     1.575    26.982
    8333      ao       1    MUSC   Al0EP       1     1.575    26.982
    8334      ao       1    MUSC   Al0EQ       1     1.575    26.982
    8335      ao       1    MUSC   Al0ER       1     1.575    26.982
    8336      ao       1    MUSC   Al0ES       1     1.575    26.982
    8337      st       1    MUSC   Si0Sf       1       2.1    28.086
    8338      st       1    MUSC   Si0Sg       1       2.1    28.086
    8339      st       1    MUSC   Si0Sh       1       2.1    28.086
    8340      st       1    MUSC   Si0Si       1       2.1    28.086
    8341      st       1    MUSC   Si0Sj       1       2.1    28.086
    8342      st       1    MUSC   Si0Sk       1       2.1    28.086
    8343      st       1    MUSC   Si0Sl       1       2.1    28.086
    8344      st       1    MUSC   Si0Sm       1       2.1    28.086
    8345      st       1    MUSC   Si0Sn       1       2.1    28.086
    8346      st       1    MUSC   Si0So       1       2.1    28.086
    8347      st       1    MUSC   Si0Sp       1       2.1    28.086
    8348      st       1    MUSC   Si0Sq       1       2.1    28.086
    8349      st       1    MUSC   Si0Sr       1       2.1    28.086
    8350      st       1    MUSC   Si0Ss       1       2.1    28.086
    8351      st       1    MUSC   Si0St       1       2.1    28.086
    8352      st       1    MUSC   Si0Su       1       2.1    28.086
    8353      ob       1    MUSC   O01Nx       1     -1.05    15.999
    8354      ob       1    MUSC   O01Ny       1     -1.05    15.999
    8355      ob       1    MUSC   O01Nz       1     -1.05    15.999
    8356      ob       1    MUSC   O01O0       1     -1.05    15.999
    8357      oh       1    MUSC   O01O1       1     -0.95    15.999
    8358      oh       1    MUSC   O01O2       1     -0.95    15.999
    8359      oh       1    MUSC   O01O3       1     -0.95    15.999
    8360      oh       1    MUSC   O01O4       1     -0.95    15.999
    8361      ob       1    MUSC   O01O5       1     -1.05    15.999
    8362      ob       1    MUSC   O01O6       1     -1.05    15.999
    8363      ob       1    MUSC   O01O7       1     -1.05    15.999
    8364      ob       1    MUSC   O01O8       1     -1.05    15.999
    8365      ob       1    MUSC   O01O9       1     -1.05    15.999
    8366      ob       1    MUSC   O01OA       1     -1.05    15.999
    8367      ob       1    MUSC   O01OB       1     -1.05    15.999
    8368      ob       1    MUSC   O01OC       1     -1.05    15.999
    8369      ob       1    MUSC   O01OD       1     -1.05    15.999
    8370      ob       1    MUSC   O01OE       1     -1.05    15.999
    8371      ob       1    MUSC   O01OF       1     -1.05    15.999
    8372      ob       1    MUSC   O01OG       1     -1.05    15.999
    8373      ob       1    MUSC   O01OH       1     -1.05    15.999
    8374      ob       1    MUSC   O01OI       1     -1.05    15.999
    8375      ob       1    MUSC   O01OJ       1     -1.05    15.999
    8376      ob       1    MUSC   O01OK       1     -1.05    15.999
    8377      ob       1    MUSC   O01OL       1     -1.05    15.999
    8378      ob       1    MUSC   O01OM       1     -1.05    15.999
    8379      ob       1    MUSC   O01ON       1     -1.05    15.999
    8380      ob       1    MUSC   O01OO       1     -1.05    15.999
    8381      oh       1    MUSC   O01OP       1     -0.95    15.999
    8382      oh       1    MUSC   O01OQ       1     -0.95    15.999
    8383      oh       1    MUSC   O01OR       1     -0.95    15.999
    8384      oh       1    MUSC   O01OS       1     -0.95    15.999
    8385      ob       1    MUSC   O01OT       1     -1.05    15.999
    8386      ob       1    MUSC   O01OU       1     -1.05    15.999
    8387      ob       1    MUSC   O01OV       1     -1.05    15.999
    8388      ob       1    MUSC   O01OW       1     -1.05    15.999
    8389      ob       1    MUSC   O01OX       1     -1.05    15.999
    8390      ob       1    MUSC   O01OY       1     -1.05    15.999
    8391      ob       1    MUSC   O01OZ       1     -1.05    15.999
    8392      ob       1    MUSC   O01Oa       1     -1.05    15.999
    8393      ob       1    MUSC   O01Ob       1     -1.05    15.999
    8394      ob       1    MUSC   O01Oc       1     -1.05    15.999
    8395      ob       1    MUSC   O01Od       1     -1.05    15.999
    8396      ob       1    MUSC   O01Oe       1     -1.05    15.999
    8397      ob       1    MUSC   O01Of       1     -1.05    15.999
    8398      ob       1    MUSC   O01Og       1     -1.05    15.999
    8399      ob       1    MUSC   O01Oh       1     -1.05    15.999
    8400      ob       1    MUSC   O01Oi       1     -1.05    15.999
    8401       K       1    MUSC   K005R       1       1.0    39.098
    8402       K       1    MUSC   K005S       1       1.0    39.098
    8403      ao       1    MUSC   Al0ET       1     1.575    26.982
    8404      ao       1    MUSC   Al0EU       1     1.575    26.982
    8405      ao       1    MUSC   Al0EV       1     1.575    26.982
    8406      ao       1    MUSC   Al0EW       1     1.575    26.982
    8407      ao       1    MUSC   Al0EX       1     1.575    26.982
    8408      ao       1    MUSC   Al0EY       1     1.575    26.982
    8409      ao       1    MUSC   Al0EZ       1     1.575    26.982
    8410      ao       1    MUSC   Al0Ea       1     1.575    26.982
    8411      st       1    MUSC   Si0Sv       1       2.1    28.086
    8412      st       1    MUSC   Si0Sw       1       2.1    28.086
    8413      st       1    MUSC   Si0Sx       1       2.1    28.086
    8414      st       1    MUSC   Si0Sy       1       2.1    28.086
    8415      st       1    MUSC   Si0Sz       1       2.1    28.086
    8416      st       1    MUSC   Si0T0       1       2.1    28.086
    8417      st       1    MUSC   Si0T1       1       2.1    28.086
    8418      st       1    MUSC   Si0T2       1       2.1    28.086
    8419      st       1    MUSC   Si0T3       1       2.1    28.086
    8420      st       1    MUSC   Si0T4       1       2.1    28.086
    8421      st       1    MUSC   Si0T5       1       2.1    28.086
    8422      st       1    MUSC   Si0T6       1       2.1    28.086
    8423      st       1    MUSC   Si0T7       1       2.1    28.086
    8424      st       1    MUSC   Si0T8       1       2.1    28.086
    8425      st       1    MUSC   Si0T9       1       2.1    28.086
    8426      st       1    MUSC   Si0TA       1       2.1    28.086
    8427      ob       1    MUSC   O01Oj       1     -1.05    15.999
    8428      ob       1    MUSC   O01Ok       1     -1.05    15.999
    8429      ob       1    MUSC   O01Ol       1     -1.05    15.999
    8430      ob       1    MUSC   O01Om       1     -1.05    15.999
    8431      oh       1    MUSC   O01On       1     -0.95    15.999
    8432      oh       1    MUSC   O01Oo       1     -0.95    15.999
    8433      oh       1    MUSC   O01Op       1     -0.95    15.999
    8434      oh       1    MUSC   O01Oq       1     -0.95    15.999
    8435      ob       1    MUSC   O01Or       1     -1.05    15.999
    8436      ob       1    MUSC   O01Os       1     -1.05    15.999
    8437      ob       1    MUSC   O01Ot       1     -1.05    15.999
    8438      ob       1    MUSC   O01Ou       1     -1.05    15.999
    8439      ob       1    MUSC   O01Ov       1     -1.05    15.999
    8440      ob       1    MUSC   O01Ow       1     -1.05    15.999
    8441      ob       1    MUSC   O01Ox       1     -1.05    15.999
    8442      ob       1    MUSC   O01Oy       1     -1.05    15.999
    8443      ob       1    MUSC   O01Oz       1     -1.05    15.999
    8444      ob       1    MUSC   O01P0       1     -1.05    15.999
    8445      ob       1    MUSC   O01P1       1     -1.05    15.999
    8446      ob       1    MUSC   O01P2       1     -1.05    15.999
    8447      ob       1    MUSC   O01P3       1     -1.05    15.999
    8448      ob       1    MUSC   O01P4       1     -1.05    15.999
    8449      ob       1    MUSC   O01P5       1     -1.05    15.999
    8450      ob       1    MUSC   O01P6       1     -1.05    15.999
    8451      ob       1    MUSC   O01P7       1     -1.05    15.999
    8452      ob       1    MUSC   O01P8       1     -1.05    15.999
    8453      ob       1    MUSC   O01P9       1     -1.05    15.999
    8454      ob       1    MUSC   O01PA       1     -1.05    15.999
    8455      oh       1    MUSC   O01PB       1     -0.95    15.999
    8456      oh       1    MUSC   O01PC       1     -0.95    15.999
    8457      oh       1    MUSC   O01PD       1     -0.95    15.999
    8458      oh       1    MUSC   O01PE       1     -0.95    15.999
    8459      ob       1    MUSC   O01PF       1     -1.05    15.999
    8460      ob       1    MUSC   O01PG       1     -1.05    15.999
    8461      ob       1    MUSC   O01PH       1     -1.05    15.999
    8462      ob       1    MUSC   O01PI       1     -1.05    15.999
    8463      ob       1    MUSC   O01PJ       1     -1.05    15.999
    8464      ob       1    MUSC   O01PK       1     -1.05    15.999
    8465      ob       1    MUSC   O01PL       1     -1.05    15.999
    8466      ob       1    MUSC   O01PM       1     -1.05    15.999
    8467      ob       1    MUSC   O01PN       1     -1.05    15.999
    8468      ob       1    MUSC   O01PO       1     -1.05    15.999
    8469      ob       1    MUSC   O01PP       1     -1.05    15.999
    8470      ob       1    MUSC   O01PQ       1     -1.05    15.999
    8471      ob       1    MUSC   O01PR       1     -1.05    15.999
    8472      ob       1    MUSC   O01PS       1     -1.05    15.999
    8473      ob       1    MUSC   O01PT       1     -1.05    15.999
    8474      ob       1    MUSC   O01PU       1     -1.05    15.999
    8475       K       1    MUSC   K005T       1       1.0    39.098
    8476       K       1    MUSC   K005U       1       1.0    39.098
    8477       K       1    MUSC   K005V       1       1.0    39.098
    8478       K       1    MUSC   K005W       1       1.0    39.098
    8479      ao       1    MUSC   Al0Eb       1     1.575    26.982
    8480      ao       1    MUSC   Al0Ec       1     1.575    26.982
    8481      ao       1    MUSC   Al0Ed       1     1.575    26.982
    8482      ao       1    MUSC   Al0Ee       1     1.575    26.982
    8483      ao       1    MUSC   Al0Ef       1     1.575    26.982
    8484      ao       1    MUSC   Al0Eg       1     1.575    26.982
    8485      ao       1    MUSC   Al0Eh       1     1.575    26.982
    8486      ao       1    MUSC   Al0Ei       1     1.575    26.982
    8487      st       1    MUSC   Si0TB       1       2.1    28.086
    8488      st       1    MUSC   Si0TC       1       2.1    28.086
    8489      st       1    MUSC   Si0TD       1       2.1    28.086
    8490      st       1    MUSC   Si0TE       1       2.1    28.086
    8491      st       1    MUSC   Si0TF       1       2.1    28.086
    8492      st       1    MUSC   Si0TG       1       2.1    28.086
    8493      st       1    MUSC   Si0TH       1       2.1    28.086
    8494      st       1    MUSC   Si0TI       1       2.1    28.086
    8495      st       1    MUSC   Si0TJ       1       2.1    28.086
    8496      st       1    MUSC   Si0TK       1       2.1    28.086
    8497      st       1    MUSC   Si0TL       1       2.1    28.086
    8498      st       1    MUSC   Si0TM       1       2.1    28.086
    8499      st       1    MUSC   Si0TN       1       2.1    28.086
    8500      st       1    MUSC   Si0TO       1       2.1    28.086
    8501      st       1    MUSC   Si0TP       1       2.1    28.086
    8502      st       1    MUSC   Si0TQ       1       2.1    28.086
    8503      ob       1    MUSC   O01PV       1     -1.05    15.999
    8504      ob       1    MUSC   O01PW       1     -1.05    15.999
    8505      ob       1    MUSC   O01PX       1     -1.05    15.999
    8506      ob       1    MUSC   O01PY       1     -1.05    15.999
    8507      oh       1    MUSC   O01PZ       1     -0.95    15.999
    8508      oh       1    MUSC   O01Pa       1     -0.95    15.999
    8509      oh       1    MUSC   O01Pb       1     -0.95    15.999
    8510      oh       1    MUSC   O01Pc       1     -0.95    15.999
    8511      ob       1    MUSC   O01Pd       1     -1.05    15.999
    8512      ob       1    MUSC   O01Pe       1     -1.05    15.999
    8513      ob       1    MUSC   O01Pf       1     -1.05    15.999
    8514      ob       1    MUSC   O01Pg       1     -1.05    15.999
    8515      ob       1    MUSC   O01Ph       1     -1.05    15.999
    8516      ob       1    MUSC   O01Pi       1     -1.05    15.999
    8517      ob       1    MUSC   O01Pj       1     -1.05    15.999
    8518      ob       1    MUSC   O01Pk       1     -1.05    15.999
    8519      ob       1    MUSC   O01Pl       1     -1.05    15.999
    8520      ob       1    MUSC   O01Pm       1     -1.05    15.999
    8521      ob       1    MUSC   O01Pn       1     -1.05    15.999
    8522      ob       1    MUSC   O01Po       1     -1.05    15.999
    8523      ob       1    MUSC   O01Pp       1     -1.05    15.999
    8524      ob       1    MUSC   O01Pq       1     -1.05    15.999
    8525      ob       1    MUSC   O01Pr       1     -1.05    15.999
    8526      ob       1    MUSC   O01Ps       1     -1.05    15.999
    8527      ob       1    MUSC   O01Pt       1     -1.05    15.999
    8528      ob       1    MUSC   O01Pu       1     -1.05    15.999
    8529      ob       1    MUSC   O01Pv       1     -1.05    15.999
    8530      ob       1    MUSC   O01Pw       1     -1.05    15.999
    8531      oh       1    MUSC   O01Px       1     -0.95    15.999
    8532      oh       1    MUSC   O01Py       1     -0.95    15.999
    8533      oh       1    MUSC   O01Pz       1     -0.95    15.999
    8534      oh       1    MUSC   O01Q0       1     -0.95    15.999
    8535      ob       1    MUSC   O01Q1       1     -1.05    15.999
    8536      ob       1    MUSC   O01Q2       1     -1.05    15.999
    8537      ob       1    MUSC   O01Q3       1     -1.05    15.999
    8538      ob       1    MUSC   O01Q4       1     -1.05    15.999
    8539      ob       1    MUSC   O01Q5       1     -1.05    15.999
    8540      ob       1    MUSC   O01Q6       1     -1.05    15.999
    8541      ob       1    MUSC   O01Q7       1     -1.05    15.999
    8542      ob       1    MUSC   O01Q8       1     -1.05    15.999
    8543      ob       1    MUSC   O01Q9       1     -1.05    15.999
    8544      ob       1    MUSC   O01QA       1     -1.05    15.999
    8545      ob       1    MUSC   O01QB       1     -1.05    15.999
    8546      ob       1    MUSC   O01QC       1     -1.05    15.999
    8547      ob       1    MUSC   O01QD       1     -1.05    15.999
    8548      ob       1    MUSC   O01QE       1     -1.05    15.999
    8549      ob       1    MUSC   O01QF       1     -1.05    15.999
    8550      ob       1    MUSC   O01QG       1     -1.05    15.999
    8551       K       1    MUSC   K005X       1       1.0    39.098
    8552       K       1    MUSC   K005Y       1       1.0    39.098
    8553      ao       1    MUSC   Al0Ej       1     1.575    26.982
    8554      ao       1    MUSC   Al0Ek       1     1.575    26.982
    8555      ao       1    MUSC   Al0El       1     1.575    26.982
    8556      ao       1    MUSC   Al0Em       1     1.575    26.982
    8557      ao       1    MUSC   Al0En       1     1.575    26.982
    8558      ao       1    MUSC   Al0Eo       1     1.575    26.982
    8559      ao       1    MUSC   Al0Ep       1     1.575    26.982
    8560      ao       1    MUSC   Al0Eq       1     1.575    26.982
    8561      st       1    MUSC   Si0TR       1       2.1    28.086
    8562      st       1    MUSC   Si0TS       1       2.1    28.086
    8563      st       1    MUSC   Si0TT       1       2.1    28.086
    8564      st       1    MUSC   Si0TU       1       2.1    28.086
    8565      st       1    MUSC   Si0TV       1       2.1    28.086
    8566      st       1    MUSC   Si0TW       1       2.1    28.086
    8567      st       1    MUSC   Si0TX       1       2.1    28.086
    8568      st       1    MUSC   Si0TY       1       2.1    28.086
    8569      st       1    MUSC   Si0TZ       1       2.1    28.086
    8570      st       1    MUSC   Si0Ta       1       2.1    28.086
    8571      st       1    MUSC   Si0Tb       1       2.1    28.086
    8572      st       1    MUSC   Si0Tc       1       2.1    28.086
    8573      st       1    MUSC   Si0Td       1       2.1    28.086
    8574      st       1    MUSC   Si0Te       1       2.1    28.086
    8575      st       1    MUSC   Si0Tf       1       2.1    28.086
    8576      st       1    MUSC   Si0Tg       1       2.1    28.086
    8577      ob       1    MUSC   O01QH       1     -1.05    15.999
    8578      ob       1    MUSC   O01QI       1     -1.05    15.999
    8579      ob       1    MUSC   O01QJ       1     -1.05    15.999
    8580      ob       1    MUSC   O01QK       1     -1.05    15.999
    8581      oh       1    MUSC   O01QL       1     -0.95    15.999
    8582      oh       1    MUSC   O01QM       1     -0.95    15.999
    8583      oh       1    MUSC   O01QN       1     -0.95    15.999
    8584      oh       1    MUSC   O01QO       1     -0.95    15.999
    8585      ob       1    MUSC   O01QP       1     -1.05    15.999
    8586      ob       1    MUSC   O01QQ       1     -1.05    15.999
    8587      ob       1    MUSC   O01QR       1     -1.05    15.999
    8588      ob       1    MUSC   O01QS       1     -1.05    15.999
    8589      ob       1    MUSC   O01QT       1     -1.05    15.999
    8590      ob       1    MUSC   O01QU       1     -1.05    15.999
    8591      ob       1    MUSC   O01QV       1     -1.05    15.999
    8592      ob       1    MUSC   O01QW       1     -1.05    15.999
    8593      ob       1    MUSC   O01QX       1     -1.05    15.999
    8594      ob       1    MUSC   O01QY       1     -1.05    15.999
    8595      ob       1    MUSC   O01QZ       1     -1.05    15.999
    8596      ob       1    MUSC   O01Qa       1     -1.05    15.999
    8597      ob       1    MUSC   O01Qb       1     -1.05    15.999
    8598      ob       1    MUSC   O01Qc       1     -1.05    15.999
    8599      ob       1    MUSC   O01Qd       1     -1.05    15.999
    8600      ob       1    MUSC   O01Qe       1     -1.05    15.999
    8601      ob       1    MUSC   O01Qf       1     -1.05    15.999
    8602      ob       1    MUSC   O01Qg       1     -1.05    15.999
    8603      ob       1    MUSC   O01Qh       1     -1.05    15.999
    8604      ob       1    MUSC   O01Qi       1     -1.05    15.999
    8605      oh       1    MUSC   O01Qj       1     -0.95    15.999
    8606      oh       1    MUSC   O01Qk       1     -0.95    15.999
    8607      oh       1    MUSC   O01Ql       1     -0.95    15.999
    8608      oh       1    MUSC   O01Qm       1     -0.95    15.999
    8609      ob       1    MUSC   O01Qn       1     -1.05    15.999
    8610      ob       1    MUSC   O01Qo       1     -1.05    15.999
    8611      ob       1    MUSC   O01Qp       1     -1.05    15.999
    8612      ob       1    MUSC   O01Qq       1     -1.05    15.999
    8613      ob       1    MUSC   O01Qr       1     -1.05    15.999
    8614      ob       1    MUSC   O01Qs       1     -1.05    15.999
    8615      ob       1    MUSC   O01Qt       1     -1.05    15.999
    8616      ob       1    MUSC   O01Qu       1     -1.05    15.999
    8617      ob       1    MUSC   O01Qv       1     -1.05    15.999
    8618      ob       1    MUSC   O01Qw       1     -1.05    15.999
    8619      ob       1    MUSC   O01Qx       1     -1.05    15.999
    8620      ob       1    MUSC   O01Qy       1     -1.05    15.999
    8621      ob       1    MUSC   O01Qz       1     -1.05    15.999
    8622      ob       1    MUSC   O01R0       1     -1.05    15.999
    8623      ob       1    MUSC   O01R1       1     -1.05    15.999
    8624      ob       1    MUSC   O01R2       1     -1.05    15.999
    8625       K       1    MUSC   K005Z       1       1.0    39.098
    8626       K       1    MUSC   K005a       1       1.0    39.098
    8627       K       1    MUSC   K005b       1       1.0    39.098
    8628       K       1    MUSC   K005c       1       1.0    39.098
    8629      ao       1    MUSC   Al0Er       1     1.575    26.982
    8630      ao       1    MUSC   Al0Es       1     1.575    26.982
    8631      ao       1    MUSC   Al0Et       1     1.575    26.982
    8632      ao       1    MUSC   Al0Eu       1     1.575    26.982
    8633      ao       1    MUSC   Al0Ev       1     1.575    26.982
    8634      ao       1    MUSC   Al0Ew       1     1.575    26.982
    8635      ao       1    MUSC   Al0Ex       1     1.575    26.982
    8636      ao       1    MUSC   Al0Ey       1     1.575    26.982
    8637      st       1    MUSC   Si0Th       1       2.1    28.086
    8638      st       1    MUSC   Si0Ti       1       2.1    28.086
    8639      st       1    MUSC   Si0Tj       1       2.1    28.086
    8640      st       1    MUSC   Si0Tk       1       2.1    28.086
    8641      st       1    MUSC   Si0Tl       1       2.1    28.086
    8642      st       1    MUSC   Si0Tm       1       2.1    28.086
    8643      st       1    MUSC   Si0Tn       1       2.1    28.086
    8644      st       1    MUSC   Si0To       1       2.1    28.086
    8645      st       1    MUSC   Si0Tp       1       2.1    28.086
    8646      st       1    MUSC   Si0Tq       1       2.1    28.086
    8647      st       1    MUSC   Si0Tr       1       2.1    28.086
    8648      st       1    MUSC   Si0Ts       1       2.1    28.086
    8649      st       1    MUSC   Si0Tt       1       2.1    28.086
    8650      st       1    MUSC   Si0Tu       1       2.1    28.086
    8651      st       1    MUSC   Si0Tv       1       2.1    28.086
    8652      st       1    MUSC   Si0Tw       1       2.1    28.086
    8653      ob       1    MUSC   O01R3       1     -1.05    15.999
    8654      ob       1    MUSC   O01R4       1     -1.05    15.999
    8655      ob       1    MUSC   O01R5       1     -1.05    15.999
    8656      ob       1    MUSC   O01R6       1     -1.05    15.999
    8657      oh       1    MUSC   O01R7       1     -0.95    15.999
    8658      oh       1    MUSC   O01R8       1     -0.95    15.999
    8659      oh       1    MUSC   O01R9       1     -0.95    15.999
    8660      oh       1    MUSC   O01RA       1     -0.95    15.999
    8661      ob       1    MUSC   O01RB       1     -1.05    15.999
    8662      ob       1    MUSC   O01RC       1     -1.05    15.999
    8663      ob       1    MUSC   O01RD       1     -1.05    15.999
    8664      ob       1    MUSC   O01RE       1     -1.05    15.999
    8665      ob       1    MUSC   O01RF       1     -1.05    15.999
    8666      ob       1    MUSC   O01RG       1     -1.05    15.999
    8667      ob       1    MUSC   O01RH       1     -1.05    15.999
    8668      ob       1    MUSC   O01RI       1     -1.05    15.999
    8669      ob       1    MUSC   O01RJ       1     -1.05    15.999
    8670      ob       1    MUSC   O01RK       1     -1.05    15.999
    8671      ob       1    MUSC   O01RL       1     -1.05    15.999
    8672      ob       1    MUSC   O01RM       1     -1.05    15.999
    8673      ob       1    MUSC   O01RN       1     -1.05    15.999
    8674      ob       1    MUSC   O01RO       1     -1.05    15.999
    8675      ob       1    MUSC   O01RP       1     -1.05    15.999
    8676      ob       1    MUSC   O01RQ       1     -1.05    15.999
    8677      ob       1    MUSC   O01RR       1     -1.05    15.999
    8678      ob       1    MUSC   O01RS       1     -1.05    15.999
    8679      ob       1    MUSC   O01RT       1     -1.05    15.999
    8680      ob       1    MUSC   O01RU       1     -1.05    15.999
    8681      oh       1    MUSC   O01RV       1     -0.95    15.999
    8682      oh       1    MUSC   O01RW       1     -0.95    15.999
    8683      oh       1    MUSC   O01RX       1     -0.95    15.999
    8684      oh       1    MUSC   O01RY       1     -0.95    15.999
    8685      ob       1    MUSC   O01RZ       1     -1.05    15.999
    8686      ob       1    MUSC   O01Ra       1     -1.05    15.999
    8687      ob       1    MUSC   O01Rb       1     -1.05    15.999
    8688      ob       1    MUSC   O01Rc       1     -1.05    15.999
    8689      ob       1    MUSC   O01Rd       1     -1.05    15.999
    8690      ob       1    MUSC   O01Re       1     -1.05    15.999
    8691      ob       1    MUSC   O01Rf       1     -1.05    15.999
    8692      ob       1    MUSC   O01Rg       1     -1.05    15.999
    8693      ob       1    MUSC   O01Rh       1     -1.05    15.999
    8694      ob       1    MUSC   O01Ri       1     -1.05    15.999
    8695      ob       1    MUSC   O01Rj       1     -1.05    15.999
    8696      ob       1    MUSC   O01Rk       1     -1.05    15.999
    8697      ob       1    MUSC   O01Rl       1     -1.05    15.999
    8698      ob       1    MUSC   O01Rm       1     -1.05    15.999
    8699      ob       1    MUSC   O01Rn       1     -1.05    15.999
    8700      ob       1    MUSC   O01Ro       1     -1.05    15.999
    8701       K       1    MUSC   K005d       1       1.0    39.098
    8702       K       1    MUSC   K005e       1       1.0    39.098
    8703      ao       1    MUSC   Al0Ez       1     1.575    26.982
    8704      ao       1    MUSC   Al0F0       1     1.575    26.982
    8705      ao       1    MUSC   Al0F1       1     1.575    26.982
    8706      ao       1    MUSC   Al0F2       1     1.575    26.982
    8707      ao       1    MUSC   Al0F3       1     1.575    26.982
    8708      ao       1    MUSC   Al0F4       1     1.575    26.982
    8709      ao       1    MUSC   Al0F5       1     1.575    26.982
    8710      ao       1    MUSC   Al0F6       1     1.575    26.982
    8711      st       1    MUSC   Si0Tx       1       2.1    28.086
    8712      st       1    MUSC   Si0Ty       1       2.1    28.086
    8713      st       1    MUSC   Si0Tz       1       2.1    28.086
    8714      st       1    MUSC   Si0U0       1       2.1    28.086
    8715      st       1    MUSC   Si0U1       1       2.1    28.086
    8716      st       1    MUSC   Si0U2       1       2.1    28.086
    8717      st       1    MUSC   Si0U3       1       2.1    28.086
    8718      st       1    MUSC   Si0U4       1       2.1    28.086
    8719      st       1    MUSC   Si0U5       1       2.1    28.086
    8720      st       1    MUSC   Si0U6       1       2.1    28.086
    8721      st       1    MUSC   Si0U7       1       2.1    28.086
    8722      st       1    MUSC   Si0U8       1       2.1    28.086
    8723      st       1    MUSC   Si0U9       1       2.1    28.086
    8724      st       1    MUSC   Si0UA       1       2.1    28.086
    8725      st       1    MUSC   Si0UB       1       2.1    28.086
    8726      st       1    MUSC   Si0UC       1       2.1    28.086
    8727      ob       1    MUSC   O01Rp       1     -1.05    15.999
    8728      ob       1    MUSC   O01Rq       1     -1.05    15.999
    8729      ob       1    MUSC   O01Rr       1     -1.05    15.999
    8730      ob       1    MUSC   O01Rs       1     -1.05    15.999
    8731      oh       1    MUSC   O01Rt       1     -0.95    15.999
    8732      oh       1    MUSC   O01Ru       1     -0.95    15.999
    8733      oh       1    MUSC   O01Rv       1     -0.95    15.999
    8734      oh       1    MUSC   O01Rw       1     -0.95    15.999
    8735      ob       1    MUSC   O01Rx       1     -1.05    15.999
    8736      ob       1    MUSC   O01Ry       1     -1.05    15.999
    8737      ob       1    MUSC   O01Rz       1     -1.05    15.999
    8738      ob       1    MUSC   O01S0       1     -1.05    15.999
    8739      ob       1    MUSC   O01S1       1     -1.05    15.999
    8740      ob       1    MUSC   O01S2       1     -1.05    15.999
    8741      ob       1    MUSC   O01S3       1     -1.05    15.999
    8742      ob       1    MUSC   O01S4       1     -1.05    15.999
    8743      ob       1    MUSC   O01S5       1     -1.05    15.999
    8744      ob       1    MUSC   O01S6       1     -1.05    15.999
    8745      ob       1    MUSC   O01S7       1     -1.05    15.999
    8746      ob       1    MUSC   O01S8       1     -1.05    15.999
    8747      ob       1    MUSC   O01S9       1     -1.05    15.999
    8748      ob       1    MUSC   O01SA       1     -1.05    15.999
    8749      ob       1    MUSC   O01SB       1     -1.05    15.999
    8750      ob       1    MUSC   O01SC       1     -1.05    15.999
    8751      ob       1    MUSC   O01SD       1     -1.05    15.999
    8752      ob       1    MUSC   O01SE       1     -1.05    15.999
    8753      ob       1    MUSC   O01SF       1     -1.05    15.999
    8754      ob       1    MUSC   O01SG       1     -1.05    15.999
    8755      oh       1    MUSC   O01SH       1     -0.95    15.999
    8756      oh       1    MUSC   O01SI       1     -0.95    15.999
    8757      oh       1    MUSC   O01SJ       1     -0.95    15.999
    8758      oh       1    MUSC   O01SK       1     -0.95    15.999
    8759      ob       1    MUSC   O01SL       1     -1.05    15.999
    8760      ob       1    MUSC   O01SM       1     -1.05    15.999
    8761      ob       1    MUSC   O01SN       1     -1.05    15.999
    8762      ob       1    MUSC   O01SO       1     -1.05    15.999
    8763      ob       1    MUSC   O01SP       1     -1.05    15.999
    8764      ob       1    MUSC   O01SQ       1     -1.05    15.999
    8765      ob       1    MUSC   O01SR       1     -1.05    15.999
    8766      ob       1    MUSC   O01SS       1     -1.05    15.999
    8767      ob       1    MUSC   O01ST       1     -1.05    15.999
    8768      ob       1    MUSC   O01SU       1     -1.05    15.999
    8769      ob       1    MUSC   O01SV       1     -1.05    15.999
    8770      ob       1    MUSC   O01SW       1     -1.05    15.999
    8771      ob       1    MUSC   O01SX       1     -1.05    15.999
    8772      ob       1    MUSC   O01SY       1     -1.05    15.999
    8773      ob       1    MUSC   O01SZ       1     -1.05    15.999
    8774      ob       1    MUSC   O01Sa       1     -1.05    15.999
    8775       K       1    MUSC   K005f       1       1.0    39.098
    8776       K       1    MUSC   K005g       1       1.0    39.098
    8777       K       1    MUSC   K005h       1       1.0    39.098
    8778       K       1    MUSC   K005i       1       1.0    39.098
    8779      ao       1    MUSC   Al0F7       1     1.575    26.982
    8780      ao       1    MUSC   Al0F8       1     1.575    26.982
    8781      ao       1    MUSC   Al0F9       1     1.575    26.982
    8782      ao       1    MUSC   Al0FA       1     1.575    26.982
    8783      ao       1    MUSC   Al0FB       1     1.575    26.982
    8784      ao       1    MUSC   Al0FC       1     1.575    26.982
    8785      ao       1    MUSC   Al0FD       1     1.575    26.982
    8786      ao       1    MUSC   Al0FE       1     1.575    26.982
    8787      st       1    MUSC   Si0UD       1       2.1    28.086
    8788      st       1    MUSC   Si0UE       1       2.1    28.086
    8789      st       1    MUSC   Si0UF       1       2.1    28.086
    8790      st       1    MUSC   Si0UG       1       2.1    28.086
    8791      st       1    MUSC   Si0UH       1       2.1    28.086
    8792      st       1    MUSC   Si0UI       1       2.1    28.086
    8793      st       1    MUSC   Si0UJ       1       2.1    28.086
    8794      st       1    MUSC   Si0UK       1       2.1    28.086
    8795      st       1    MUSC   Si0UL       1       2.1    28.086
    8796      st       1    MUSC   Si0UM       1       2.1    28.086
    8797      st       1    MUSC   Si0UN       1       2.1    28.086
    8798      st       1    MUSC   Si0UO       1       2.1    28.086
    8799      st       1    MUSC   Si0UP       1       2.1    28.086
    8800      st       1    MUSC   Si0UQ       1       2.1    28.086
    8801      st       1    MUSC   Si0UR       1       2.1    28.086
    8802      st       1    MUSC   Si0US       1       2.1    28.086
    8803      ob       1    MUSC   O01Sb       1     -1.05    15.999
    8804      ob       1    MUSC   O01Sc       1     -1.05    15.999
    8805      ob       1    MUSC   O01Sd       1     -1.05    15.999
    8806      ob       1    MUSC   O01Se       1     -1.05    15.999
    8807      oh       1    MUSC   O01Sf       1     -0.95    15.999
    8808      oh       1    MUSC   O01Sg       1     -0.95    15.999
    8809      oh       1    MUSC   O01Sh       1     -0.95    15.999
    8810      oh       1    MUSC   O01Si       1     -0.95    15.999
    8811      ob       1    MUSC   O01Sj       1     -1.05    15.999
    8812      ob       1    MUSC   O01Sk       1     -1.05    15.999
    8813      ob       1    MUSC   O01Sl       1     -1.05    15.999
    8814      ob       1    MUSC   O01Sm       1     -1.05    15.999
    8815      ob       1    MUSC   O01Sn       1     -1.05    15.999
    8816      ob       1    MUSC   O01So       1     -1.05    15.999
    8817      ob       1    MUSC   O01Sp       1     -1.05    15.999
    8818      ob       1    MUSC   O01Sq       1     -1.05    15.999
    8819      ob       1    MUSC   O01Sr       1     -1.05    15.999
    8820      ob       1    MUSC   O01Ss       1     -1.05    15.999
    8821      ob       1    MUSC   O01St       1     -1.05    15.999
    8822      ob       1    MUSC   O01Su       1     -1.05    15.999
    8823      ob       1    MUSC   O01Sv       1     -1.05    15.999
    8824      ob       1    MUSC   O01Sw       1     -1.05    15.999
    8825      ob       1    MUSC   O01Sx       1     -1.05    15.999
    8826      ob       1    MUSC   O01Sy       1     -1.05    15.999
    8827      ob       1    MUSC   O01Sz       1     -1.05    15.999
    8828      ob       1    MUSC   O01T0       1     -1.05    15.999
    8829      ob       1    MUSC   O01T1       1     -1.05    15.999
    8830      ob       1    MUSC   O01T2       1     -1.05    15.999
    8831      oh       1    MUSC   O01T3       1     -0.95    15.999
    8832      oh       1    MUSC   O01T4       1     -0.95    15.999
    8833      oh       1    MUSC   O01T5       1     -0.95    15.999
    8834      oh       1    MUSC   O01T6       1     -0.95    15.999
    8835      ob       1    MUSC   O01T7       1     -1.05    15.999
    8836      ob       1    MUSC   O01T8       1     -1.05    15.999
    8837      ob       1    MUSC   O01T9       1     -1.05    15.999
    8838      ob       1    MUSC   O01TA       1     -1.05    15.999
    8839      ob       1    MUSC   O01TB       1     -1.05    15.999
    8840      ob       1    MUSC   O01TC       1     -1.05    15.999
    8841      ob       1    MUSC   O01TD       1     -1.05    15.999
    8842      ob       1    MUSC   O01TE       1     -1.05    15.999
    8843      ob       1    MUSC   O01TF       1     -1.05    15.999
    8844      ob       1    MUSC   O01TG       1     -1.05    15.999
    8845      ob       1    MUSC   O01TH       1     -1.05    15.999
    8846      ob       1    MUSC   O01TI       1     -1.05    15.999
    8847      ob       1    MUSC   O01TJ       1     -1.05    15.999
    8848      ob       1    MUSC   O01TK       1     -1.05    15.999
    8849      ob       1    MUSC   O01TL       1     -1.05    15.999
    8850      ob       1    MUSC   O01TM       1     -1.05    15.999
    8851       K       1    MUSC   K005j       1       1.0    39.098
    8852       K       1    MUSC   K005k       1       1.0    39.098
    8853      ao       1    MUSC   Al0FF       1     1.575    26.982
    8854      ao       1    MUSC   Al0FG       1     1.575    26.982
    8855      ao       1    MUSC   Al0FH       1     1.575    26.982
    8856      ao       1    MUSC   Al0FI       1     1.575    26.982
    8857      ao       1    MUSC   Al0FJ       1     1.575    26.982
    8858      ao       1    MUSC   Al0FK       1     1.575    26.982
    8859      ao       1    MUSC   Al0FL       1     1.575    26.982
    8860      ao       1    MUSC   Al0FM       1     1.575    26.982
    8861      st       1    MUSC   Si0UT       1       2.1    28.086
    8862      st       1    MUSC   Si0UU       1       2.1    28.086
    8863      st       1    MUSC   Si0UV       1       2.1    28.086
    8864      st       1    MUSC   Si0UW       1       2.1    28.086
    8865      st       1    MUSC   Si0UX       1       2.1    28.086
    8866      st       1    MUSC   Si0UY       1       2.1    28.086
    8867      st       1    MUSC   Si0UZ       1       2.1    28.086
    8868      st       1    MUSC   Si0Ua       1       2.1    28.086
    8869      st       1    MUSC   Si0Ub       1       2.1    28.086
    8870      st       1    MUSC   Si0Uc       1       2.1    28.086
    8871      st       1    MUSC   Si0Ud       1       2.1    28.086
    8872      st       1    MUSC   Si0Ue       1       2.1    28.086
    8873      st       1    MUSC   Si0Uf       1       2.1    28.086
    8874      st       1    MUSC   Si0Ug       1       2.1    28.086
    8875      st       1    MUSC   Si0Uh       1       2.1    28.086
    8876      st       1    MUSC   Si0Ui       1       2.1    28.086
    8877      ob       1    MUSC   O01TN       1     -1.05    15.999
    8878      ob       1    MUSC   O01TO       1     -1.05    15.999
    8879      ob       1    MUSC   O01TP       1     -1.05    15.999
    8880      ob       1    MUSC   O01TQ       1     -1.05    15.999
    8881      oh       1    MUSC   O01TR       1     -0.95    15.999
    8882      oh       1    MUSC   O01TS       1     -0.95    15.999
    8883      oh       1    MUSC   O01TT       1     -0.95    15.999
    8884      oh       1    MUSC   O01TU       1     -0.95    15.999
    8885      ob       1    MUSC   O01TV       1     -1.05    15.999
    8886      ob       1    MUSC   O01TW       1     -1.05    15.999
    8887      ob       1    MUSC   O01TX       1     -1.05    15.999
    8888      ob       1    MUSC   O01TY       1     -1.05    15.999
    8889      ob       1    MUSC   O01TZ       1     -1.05    15.999
    8890      ob       1    MUSC   O01Ta       1     -1.05    15.999
    8891      ob       1    MUSC   O01Tb       1     -1.05    15.999
    8892      ob       1    MUSC   O01Tc       1     -1.05    15.999
    8893      ob       1    MUSC   O01Td       1     -1.05    15.999
    8894      ob       1    MUSC   O01Te       1     -1.05    15.999
    8895      ob       1    MUSC   O01Tf       1     -1.05    15.999
    8896      ob       1    MUSC   O01Tg       1     -1.05    15.999
    8897      ob       1    MUSC   O01Th       1     -1.05    15.999
    8898      ob       1    MUSC   O01Ti       1     -1.05    15.999
    8899      ob       1    MUSC   O01Tj       1     -1.05    15.999
    8900      ob       1    MUSC   O01Tk       1     -1.05    15.999
    8901      ob       1    MUSC   O01Tl       1     -1.05    15.999
    8902      ob       1    MUSC   O01Tm       1     -1.05    15.999
    8903      ob       1    MUSC   O01Tn       1     -1.05    15.999
    8904      ob       1    MUSC   O01To       1     -1.05    15.999
    8905      oh       1    MUSC   O01Tp       1     -0.95    15.999
    8906      oh       1    MUSC   O01Tq       1     -0.95    15.999
    8907      oh       1    MUSC   O01Tr       1     -0.95    15.999
    8908      oh       1    MUSC   O01Ts       1     -0.95    15.999
    8909      ob       1    MUSC   O01Tt       1     -1.05    15.999
    8910      ob       1    MUSC   O01Tu       1     -1.05    15.999
    8911      ob       1    MUSC   O01Tv       1     -1.05    15.999
    8912      ob       1    MUSC   O01Tw       1     -1.05    15.999
    8913      ob       1    MUSC   O01Tx       1     -1.05    15.999
    8914      ob       1    MUSC   O01Ty       1     -1.05    15.999
    8915      ob       1    MUSC   O01Tz       1     -1.05    15.999
    8916      ob       1    MUSC   O01U0       1     -1.05    15.999
    8917      ob       1    MUSC   O01U1       1     -1.05    15.999
    8918      ob       1    MUSC   O01U2       1     -1.05    15.999
    8919      ob       1    MUSC   O01U3       1     -1.05    15.999
    8920      ob       1    MUSC   O01U4       1     -1.05    15.999
    8921      ob       1    MUSC   O01U5       1     -1.05    15.999
    8922      ob       1    MUSC   O01U6       1     -1.05    15.999
    8923      ob       1    MUSC   O01U7       1     -1.05    15.999
    8924      ob       1    MUSC   O01U8       1     -1.05    15.999
    8925       K       1    MUSC   K005l       1       1.0    39.098
    8926       K       1    MUSC   K005m       1       1.0    39.098
    8927       K       1    MUSC   K005n       1       1.0    39.098
    8928       K       1    MUSC   K005o       1       1.0    39.098
    8929      ao       1    MUSC   Al0FN       1     1.575    26.982
    8930      ao       1    MUSC   Al0FO       1     1.575    26.982
    8931      ao       1    MUSC   Al0FP       1     1.575    26.982
    8932      ao       1    MUSC   Al0FQ       1     1.575    26.982
    8933      ao       1    MUSC   Al0FR       1     1.575    26.982
    8934      ao       1    MUSC   Al0FS       1     1.575    26.982
    8935      ao       1    MUSC   Al0FT       1     1.575    26.982
    8936      ao       1    MUSC   Al0FU       1     1.575    26.982
    8937      st       1    MUSC   Si0Uj       1       2.1    28.086
    8938      st       1    MUSC   Si0Uk       1       2.1    28.086
    8939      st       1    MUSC   Si0Ul       1       2.1    28.086
    8940      st       1    MUSC   Si0Um       1       2.1    28.086
    8941      st       1    MUSC   Si0Un       1       2.1    28.086
    8942      st       1    MUSC   Si0Uo       1       2.1    28.086
    8943      st       1    MUSC   Si0Up       1       2.1    28.086
    8944      st       1    MUSC   Si0Uq       1       2.1    28.086
    8945      st       1    MUSC   Si0Ur       1       2.1    28.086
    8946      st       1    MUSC   Si0Us       1       2.1    28.086
    8947      st       1    MUSC   Si0Ut       1       2.1    28.086
    8948      st       1    MUSC   Si0Uu       1       2.1    28.086
    8949      st       1    MUSC   Si0Uv       1       2.1    28.086
    8950      st       1    MUSC   Si0Uw       1       2.1    28.086
    8951      st       1    MUSC   Si0Ux       1       2.1    28.086
    8952      st       1    MUSC   Si0Uy       1       2.1    28.086
    8953      ob       1    MUSC   O01U9       1     -1.05    15.999
    8954      ob       1    MUSC   O01UA       1     -1.05    15.999
    8955      ob       1    MUSC   O01UB       1     -1.05    15.999
    8956      ob       1    MUSC   O01UC       1     -1.05    15.999
    8957      oh       1    MUSC   O01UD       1     -0.95    15.999
    8958      oh       1    MUSC   O01UE       1     -0.95    15.999
    8959      oh       1    MUSC   O01UF       1     -0.95    15.999
    8960      oh       1    MUSC   O01UG       1     -0.95    15.999
    8961      ob       1    MUSC   O01UH       1     -1.05    15.999
    8962      ob       1    MUSC   O01UI       1     -1.05    15.999
    8963      ob       1    MUSC   O01UJ       1     -1.05    15.999
    8964      ob       1    MUSC   O01UK       1     -1.05    15.999
    8965      ob       1    MUSC   O01UL       1     -1.05    15.999
    8966      ob       1    MUSC   O01UM       1     -1.05    15.999
    8967      ob       1    MUSC   O01UN       1     -1.05    15.999
    8968      ob       1    MUSC   O01UO       1     -1.05    15.999
    8969      ob       1    MUSC   O01UP       1     -1.05    15.999
    8970      ob       1    MUSC   O01UQ       1     -1.05    15.999
    8971      ob       1    MUSC   O01UR       1     -1.05    15.999
    8972      ob       1    MUSC   O01US       1     -1.05    15.999
    8973      ob       1    MUSC   O01UT       1     -1.05    15.999
    8974      ob       1    MUSC   O01UU       1     -1.05    15.999
    8975      ob       1    MUSC   O01UV       1     -1.05    15.999
    8976      ob       1    MUSC   O01UW       1     -1.05    15.999
    8977      ob       1    MUSC   O01UX       1     -1.05    15.999
    8978      ob       1    MUSC   O01UY       1     -1.05    15.999
    8979      ob       1    MUSC   O01UZ       1     -1.05    15.999
    8980      ob       1    MUSC   O01Ua       1     -1.05    15.999
    8981      oh       1    MUSC   O01Ub       1     -0.95    15.999
    8982      oh       1    MUSC   O01Uc       1     -0.95    15.999
    8983      oh       1    MUSC   O01Ud       1     -0.95    15.999
    8984      oh       1    MUSC   O01Ue       1     -0.95    15.999
    8985      ob       1    MUSC   O01Uf       1     -1.05    15.999
    8986      ob       1    MUSC   O01Ug       1     -1.05    15.999
    8987      ob       1    MUSC   O01Uh       1     -1.05    15.999
    8988      ob       1    MUSC   O01Ui       1     -1.05    15.999
    8989      ob       1    MUSC   O01Uj       1     -1.05    15.999
    8990      ob       1    MUSC   O01Uk       1     -1.05    15.999
    8991      ob       1    MUSC   O01Ul       1     -1.05    15.999
    8992      ob       1    MUSC   O01Um       1     -1.05    15.999
    8993      ob       1    MUSC   O01Un       1     -1.05    15.999
    8994      ob       1    MUSC   O01Uo       1     -1.05    15.999
    8995      ob       1    MUSC   O01Up       1     -1.05    15.999
    8996      ob       1    MUSC   O01Uq       1     -1.05    15.999
    8997      ob       1    MUSC   O01Ur       1     -1.05    15.999
    8998      ob       1    MUSC   O01Us       1     -1.05    15.999
    8999      ob       1    MUSC   O01Ut       1     -1.05    15.999
    9000      ob       1    MUSC   O01Uu       1     -1.05    15.999
    9001       K       1    MUSC   K005p       1       1.0    39.098
    9002       K       1    MUSC   K005q       1       1.0    39.098
    9003      ao       1    MUSC   Al0FV       1     1.575    26.982
    9004      ao       1    MUSC   Al0FW       1     1.575    26.982
    9005      ao       1    MUSC   Al0FX       1     1.575    26.982
    9006      ao       1    MUSC   Al0FY       1     1.575    26.982
    9007      ao       1    MUSC   Al0FZ       1     1.575    26.982
    9008      ao       1    MUSC   Al0Fa       1     1.575    26.982
    9009      ao       1    MUSC   Al0Fb       1     1.575    26.982
    9010      ao       1    MUSC   Al0Fc       1     1.575    26.982
    9011      st       1    MUSC   Si0Uz       1       2.1    28.086
    9012      st       1    MUSC   Si0V0       1       2.1    28.086
    9013      st       1    MUSC   Si0V1       1       2.1    28.086
    9014      st       1    MUSC   Si0V2       1       2.1    28.086
    9015      st       1    MUSC   Si0V3       1       2.1    28.086
    9016      st       1    MUSC   Si0V4       1       2.1    28.086
    9017      st       1    MUSC   Si0V5       1       2.1    28.086
    9018      st       1    MUSC   Si0V6       1       2.1    28.086
    9019      st       1    MUSC   Si0V7       1       2.1    28.086
    9020      st       1    MUSC   Si0V8       1       2.1    28.086
    9021      st       1    MUSC   Si0V9       1       2.1    28.086
    9022      st       1    MUSC   Si0VA       1       2.1    28.086
    9023      st       1    MUSC   Si0VB       1       2.1    28.086
    9024      st       1    MUSC   Si0VC       1       2.1    28.086
    9025      st       1    MUSC   Si0VD       1       2.1    28.086
    9026      st       1    MUSC   Si0VE       1       2.1    28.086
    9027      ob       1    MUSC   O01Uv       1     -1.05    15.999
    9028      ob       1    MUSC   O01Uw       1     -1.05    15.999
    9029      ob       1    MUSC   O01Ux       1     -1.05    15.999
    9030      ob       1    MUSC   O01Uy       1     -1.05    15.999
    9031      oh       1    MUSC   O01Uz       1     -0.95    15.999
    9032      oh       1    MUSC   O01V0       1     -0.95    15.999
    9033      oh       1    MUSC   O01V1       1     -0.95    15.999
    9034      oh       1    MUSC   O01V2       1     -0.95    15.999
    9035      ob       1    MUSC   O01V3       1     -1.05    15.999
    9036      ob       1    MUSC   O01V4       1     -1.05    15.999
    9037      ob       1    MUSC   O01V5       1     -1.05    15.999
    9038      ob       1    MUSC   O01V6       1     -1.05    15.999
    9039      ob       1    MUSC   O01V7       1     -1.05    15.999
    9040      ob       1    MUSC   O01V8       1     -1.05    15.999
    9041      ob       1    MUSC   O01V9       1     -1.05    15.999
    9042      ob       1    MUSC   O01VA       1     -1.05    15.999
    9043      ob       1    MUSC   O01VB       1     -1.05    15.999
    9044      ob       1    MUSC   O01VC       1     -1.05    15.999
    9045      ob       1    MUSC   O01VD       1     -1.05    15.999
    9046      ob       1    MUSC   O01VE       1     -1.05    15.999
    9047      ob       1    MUSC   O01VF       1     -1.05    15.999
    9048      ob       1    MUSC   O01VG       1     -1.05    15.999
    9049      ob       1    MUSC   O01VH       1     -1.05    15.999
    9050      ob       1    MUSC   O01VI       1     -1.05    15.999
    9051      ob       1    MUSC   O01VJ       1     -1.05    15.999
    9052      ob       1    MUSC   O01VK       1     -1.05    15.999
    9053      ob       1    MUSC   O01VL       1     -1.05    15.999
    9054      ob       1    MUSC   O01VM       1     -1.05    15.999
    9055      oh       1    MUSC   O01VN       1     -0.95    15.999
    9056      oh       1    MUSC   O01VO       1     -0.95    15.999
    9057      oh       1    MUSC   O01VP       1     -0.95    15.999
    9058      oh       1    MUSC   O01VQ       1     -0.95    15.999
    9059      ob       1    MUSC   O01VR       1     -1.05    15.999
    9060      ob       1    MUSC   O01VS       1     -1.05    15.999
    9061      ob       1    MUSC   O01VT       1     -1.05    15.999
    9062      ob       1    MUSC   O01VU       1     -1.05    15.999
    9063      ob       1    MUSC   O01VV       1     -1.05    15.999
    9064      ob       1    MUSC   O01VW       1     -1.05    15.999
    9065      ob       1    MUSC   O01VX       1     -1.05    15.999
    9066      ob       1    MUSC   O01VY       1     -1.05    15.999
    9067      ob       1    MUSC   O01VZ       1     -1.05    15.999
    9068      ob       1    MUSC   O01Va       1     -1.05    15.999
    9069      ob       1    MUSC   O01Vb       1     -1.05    15.999
    9070      ob       1    MUSC   O01Vc       1     -1.05    15.999
    9071      ob       1    MUSC   O01Vd       1     -1.05    15.999
    9072      ob       1    MUSC   O01Ve       1     -1.05    15.999
    9073      ob       1    MUSC   O01Vf       1     -1.05    15.999
    9074      ob       1    MUSC   O01Vg       1     -1.05    15.999
    9075       K       1    MUSC   K005r       1       1.0    39.098
    9076       K       1    MUSC   K005s       1       1.0    39.098
    9077       K       1    MUSC   K005t       1       1.0    39.098
    9078       K       1    MUSC   K005u       1       1.0    39.098
    9079      ao       1    MUSC   Al0Fd       1     1.575    26.982
    9080      ao       1    MUSC   Al0Fe       1     1.575    26.982
    9081      ao       1    MUSC   Al0Ff       1     1.575    26.982
    9082      ao       1    MUSC   Al0Fg       1     1.575    26.982
    9083      ao       1    MUSC   Al0Fh       1     1.575    26.982
    9084      ao       1    MUSC   Al0Fi       1     1.575    26.982
    9085      ao       1    MUSC   Al0Fj       1     1.575    26.982
    9086      ao       1    MUSC   Al0Fk       1     1.575    26.982
    9087      st       1    MUSC   Si0VF       1       2.1    28.086
    9088      st       1    MUSC   Si0VG       1       2.1    28.086
    9089      st       1    MUSC   Si0VH       1       2.1    28.086
    9090      st       1    MUSC   Si0VI       1       2.1    28.086
    9091      st       1    MUSC   Si0VJ       1       2.1    28.086
    9092      st       1    MUSC   Si0VK       1       2.1    28.086
    9093      st       1    MUSC   Si0VL       1       2.1    28.086
    9094      st       1    MUSC   Si0VM       1       2.1    28.086
    9095      st       1    MUSC   Si0VN       1       2.1    28.086
    9096      st       1    MUSC   Si0VO       1       2.1    28.086
    9097      st       1    MUSC   Si0VP       1       2.1    28.086
    9098      st       1    MUSC   Si0VQ       1       2.1    28.086
    9099      st       1    MUSC   Si0VR       1       2.1    28.086
    9100      st       1    MUSC   Si0VS       1       2.1    28.086
    9101      st       1    MUSC   Si0VT       1       2.1    28.086
    9102      st       1    MUSC   Si0VU       1       2.1    28.086
    9103      ob       1    MUSC   O01Vh       1     -1.05    15.999
    9104      ob       1    MUSC   O01Vi       1     -1.05    15.999
    9105      ob       1    MUSC   O01Vj       1     -1.05    15.999
    9106      ob       1    MUSC   O01Vk       1     -1.05    15.999
    9107      oh       1    MUSC   O01Vl       1     -0.95    15.999
    9108      oh       1    MUSC   O01Vm       1     -0.95    15.999
    9109      oh       1    MUSC   O01Vn       1     -0.95    15.999
    9110      oh       1    MUSC   O01Vo       1     -0.95    15.999
    9111      ob       1    MUSC   O01Vp       1     -1.05    15.999
    9112      ob       1    MUSC   O01Vq       1     -1.05    15.999
    9113      ob       1    MUSC   O01Vr       1     -1.05    15.999
    9114      ob       1    MUSC   O01Vs       1     -1.05    15.999
    9115      ob       1    MUSC   O01Vt       1     -1.05    15.999
    9116      ob       1    MUSC   O01Vu       1     -1.05    15.999
    9117      ob       1    MUSC   O01Vv       1     -1.05    15.999
    9118      ob       1    MUSC   O01Vw       1     -1.05    15.999
    9119      ob       1    MUSC   O01Vx       1     -1.05    15.999
    9120      ob       1    MUSC   O01Vy       1     -1.05    15.999
    9121      ob       1    MUSC   O01Vz       1     -1.05    15.999
    9122      ob       1    MUSC   O01W0       1     -1.05    15.999
    9123      ob       1    MUSC   O01W1       1     -1.05    15.999
    9124      ob       1    MUSC   O01W2       1     -1.05    15.999
    9125      ob       1    MUSC   O01W3       1     -1.05    15.999
    9126      ob       1    MUSC   O01W4       1     -1.05    15.999
    9127      ob       1    MUSC   O01W5       1     -1.05    15.999
    9128      ob       1    MUSC   O01W6       1     -1.05    15.999
    9129      ob       1    MUSC   O01W7       1     -1.05    15.999
    9130      ob       1    MUSC   O01W8       1     -1.05    15.999
    9131      oh       1    MUSC   O01W9       1     -0.95    15.999
    9132      oh       1    MUSC   O01WA       1     -0.95    15.999
    9133      oh       1    MUSC   O01WB       1     -0.95    15.999
    9134      oh       1    MUSC   O01WC       1     -0.95    15.999
    9135      ob       1    MUSC   O01WD       1     -1.05    15.999
    9136      ob       1    MUSC   O01WE       1     -1.05    15.999
    9137      ob       1    MUSC   O01WF       1     -1.05    15.999
    9138      ob       1    MUSC   O01WG       1     -1.05    15.999
    9139      ob       1    MUSC   O01WH       1     -1.05    15.999
    9140      ob       1    MUSC   O01WI       1     -1.05    15.999
    9141      ob       1    MUSC   O01WJ       1     -1.05    15.999
    9142      ob       1    MUSC   O01WK       1     -1.05    15.999
    9143      ob       1    MUSC   O01WL       1     -1.05    15.999
    9144      ob       1    MUSC   O01WM       1     -1.05    15.999
    9145      ob       1    MUSC   O01WN       1     -1.05    15.999
    9146      ob       1    MUSC   O01WO       1     -1.05    15.999
    9147      ob       1    MUSC   O01WP       1     -1.05    15.999
    9148      ob       1    MUSC   O01WQ       1     -1.05    15.999
    9149      ob       1    MUSC   O01WR       1     -1.05    15.999
    9150      ob       1    MUSC   O01WS       1     -1.05    15.999
    9151       K       1    MUSC   K005v       1       1.0    39.098
    9152       K       1    MUSC   K005w       1       1.0    39.098
    9153      ao       1    MUSC   Al0Fl       1     1.575    26.982
    9154      ao       1    MUSC   Al0Fm       1     1.575    26.982
    9155      ao       1    MUSC   Al0Fn       1     1.575    26.982
    9156      ao       1    MUSC   Al0Fo       1     1.575    26.982
    9157      ao       1    MUSC   Al0Fp       1     1.575    26.982
    9158      ao       1    MUSC   Al0Fq       1     1.575    26.982
    9159      ao       1    MUSC   Al0Fr       1     1.575    26.982
    9160      ao       1    MUSC   Al0Fs       1     1.575    26.982
    9161      st       1    MUSC   Si0VV       1       2.1    28.086
    9162      st       1    MUSC   Si0VW       1       2.1    28.086
    9163      st       1    MUSC   Si0VX       1       2.1    28.086
    9164      st       1    MUSC   Si0VY       1       2.1    28.086
    9165      st       1    MUSC   Si0VZ       1       2.1    28.086
    9166      st       1    MUSC   Si0Va       1       2.1    28.086
    9167      st       1    MUSC   Si0Vb       1       2.1    28.086
    9168      st       1    MUSC   Si0Vc       1       2.1    28.086
    9169      st       1    MUSC   Si0Vd       1       2.1    28.086
    9170      st       1    MUSC   Si0Ve       1       2.1    28.086
    9171      st       1    MUSC   Si0Vf       1       2.1    28.086
    9172      st       1    MUSC   Si0Vg       1       2.1    28.086
    9173      st       1    MUSC   Si0Vh       1       2.1    28.086
    9174      st       1    MUSC   Si0Vi       1       2.1    28.086
    9175      st       1    MUSC   Si0Vj       1       2.1    28.086
    9176      st       1    MUSC   Si0Vk       1       2.1    28.086
    9177      ob       1    MUSC   O01WT       1     -1.05    15.999
    9178      ob       1    MUSC   O01WU       1     -1.05    15.999
    9179      ob       1    MUSC   O01WV       1     -1.05    15.999
    9180      ob       1    MUSC   O01WW       1     -1.05    15.999
    9181      oh       1    MUSC   O01WX       1     -0.95    15.999
    9182      oh       1    MUSC   O01WY       1     -0.95    15.999
    9183      oh       1    MUSC   O01WZ       1     -0.95    15.999
    9184      oh       1    MUSC   O01Wa       1     -0.95    15.999
    9185      ob       1    MUSC   O01Wb       1     -1.05    15.999
    9186      ob       1    MUSC   O01Wc       1     -1.05    15.999
    9187      ob       1    MUSC   O01Wd       1     -1.05    15.999
    9188      ob       1    MUSC   O01We       1     -1.05    15.999
    9189      ob       1    MUSC   O01Wf       1     -1.05    15.999
    9190      ob       1    MUSC   O01Wg       1     -1.05    15.999
    9191      ob       1    MUSC   O01Wh       1     -1.05    15.999
    9192      ob       1    MUSC   O01Wi       1     -1.05    15.999
    9193      ob       1    MUSC   O01Wj       1     -1.05    15.999
    9194      ob       1    MUSC   O01Wk       1     -1.05    15.999
    9195      ob       1    MUSC   O01Wl       1     -1.05    15.999
    9196      ob       1    MUSC   O01Wm       1     -1.05    15.999
    9197      ob       1    MUSC   O01Wn       1     -1.05    15.999
    9198      ob       1    MUSC   O01Wo       1     -1.05    15.999
    9199      ob       1    MUSC   O01Wp       1     -1.05    15.999
    9200      ob       1    MUSC   O01Wq       1     -1.05    15.999
    9201      ob       1    MUSC   O01Wr       1     -1.05    15.999
    9202      ob       1    MUSC   O01Ws       1     -1.05    15.999
    9203      ob       1    MUSC   O01Wt       1     -1.05    15.999
    9204      ob       1    MUSC   O01Wu       1     -1.05    15.999
    9205      oh       1    MUSC   O01Wv       1     -0.95    15.999
    9206      oh       1    MUSC   O01Ww       1     -0.95    15.999
    9207      oh       1    MUSC   O01Wx       1     -0.95    15.999
    9208      oh       1    MUSC   O01Wy       1     -0.95    15.999
    9209      ob       1    MUSC   O01Wz       1     -1.05    15.999
    9210      ob       1    MUSC   O01X0       1     -1.05    15.999
    9211      ob       1    MUSC   O01X1       1     -1.05    15.999
    9212      ob       1    MUSC   O01X2       1     -1.05    15.999
    9213      ob       1    MUSC   O01X3       1     -1.05    15.999
    9214      ob       1    MUSC   O01X4       1     -1.05    15.999
    9215      ob       1    MUSC   O01X5       1     -1.05    15.999
    9216      ob       1    MUSC   O01X6       1     -1.05    15.999
    9217      ob       1    MUSC   O01X7       1     -1.05    15.999
    9218      ob       1    MUSC   O01X8       1     -1.05    15.999
    9219      ob       1    MUSC   O01X9       1     -1.05    15.999
    9220      ob       1    MUSC   O01XA       1     -1.05    15.999
    9221      ob       1    MUSC   O01XB       1     -1.05    15.999
    9222      ob       1    MUSC   O01XC       1     -1.05    15.999
    9223      ob       1    MUSC   O01XD       1     -1.05    15.999
    9224      ob       1    MUSC   O01XE       1     -1.05    15.999
    9225       K       1    MUSC   K005x       1       1.0    39.098
    9226       K       1    MUSC   K005y       1       1.0    39.098
    9227       K       1    MUSC   K005z       1       1.0    39.098
    9228       K       1    MUSC   K0060       1       1.0    39.098
    9229      ao       1    MUSC   Al0Ft       1     1.575    26.982
    9230      ao       1    MUSC   Al0Fu       1     1.575    26.982
    9231      ao       1    MUSC   Al0Fv       1     1.575    26.982
    9232      ao       1    MUSC   Al0Fw       1     1.575    26.982
    9233      ao       1    MUSC   Al0Fx       1     1.575    26.982
    9234      ao       1    MUSC   Al0Fy       1     1.575    26.982
    9235      ao       1    MUSC   Al0Fz       1     1.575    26.982
    9236      ao       1    MUSC   Al0G0       1     1.575    26.982
    9237      st       1    MUSC   Si0Vl       1       2.1    28.086
    9238      st       1    MUSC   Si0Vm       1       2.1    28.086
    9239      st       1    MUSC   Si0Vn       1       2.1    28.086
    9240      st       1    MUSC   Si0Vo       1       2.1    28.086
    9241      st       1    MUSC   Si0Vp       1       2.1    28.086
    9242      st       1    MUSC   Si0Vq       1       2.1    28.086
    9243      st       1    MUSC   Si0Vr       1       2.1    28.086
    9244      st       1    MUSC   Si0Vs       1       2.1    28.086
    9245      st       1    MUSC   Si0Vt       1       2.1    28.086
    9246      st       1    MUSC   Si0Vu       1       2.1    28.086
    9247      st       1    MUSC   Si0Vv       1       2.1    28.086
    9248      st       1    MUSC   Si0Vw       1       2.1    28.086
    9249      st       1    MUSC   Si0Vx       1       2.1    28.086
    9250      st       1    MUSC   Si0Vy       1       2.1    28.086
    9251      st       1    MUSC   Si0Vz       1       2.1    28.086
    9252      st       1    MUSC   Si0W0       1       2.1    28.086
    9253      ob       1    MUSC   O01XF       1     -1.05    15.999
    9254      ob       1    MUSC   O01XG       1     -1.05    15.999
    9255      ob       1    MUSC   O01XH       1     -1.05    15.999
    9256      ob       1    MUSC   O01XI       1     -1.05    15.999
    9257      oh       1    MUSC   O01XJ       1     -0.95    15.999
    9258      oh       1    MUSC   O01XK       1     -0.95    15.999
    9259      oh       1    MUSC   O01XL       1     -0.95    15.999
    9260      oh       1    MUSC   O01XM       1     -0.95    15.999
    9261      ob       1    MUSC   O01XN       1     -1.05    15.999
    9262      ob       1    MUSC   O01XO       1     -1.05    15.999
    9263      ob       1    MUSC   O01XP       1     -1.05    15.999
    9264      ob       1    MUSC   O01XQ       1     -1.05    15.999
    9265      ob       1    MUSC   O01XR       1     -1.05    15.999
    9266      ob       1    MUSC   O01XS       1     -1.05    15.999
    9267      ob       1    MUSC   O01XT       1     -1.05    15.999
    9268      ob       1    MUSC   O01XU       1     -1.05    15.999
    9269      ob       1    MUSC   O01XV       1     -1.05    15.999
    9270      ob       1    MUSC   O01XW       1     -1.05    15.999
    9271      ob       1    MUSC   O01XX       1     -1.05    15.999
    9272      ob       1    MUSC   O01XY       1     -1.05    15.999
    9273      ob       1    MUSC   O01XZ       1     -1.05    15.999
    9274      ob       1    MUSC   O01Xa       1     -1.05    15.999
    9275      ob       1    MUSC   O01Xb       1     -1.05    15.999
    9276      ob       1    MUSC   O01Xc       1     -1.05    15.999
    9277      ob       1    MUSC   O01Xd       1     -1.05    15.999
    9278      ob       1    MUSC   O01Xe       1     -1.05    15.999
    9279      ob       1    MUSC   O01Xf       1     -1.05    15.999
    9280      ob       1    MUSC   O01Xg       1     -1.05    15.999
    9281      oh       1    MUSC   O01Xh       1     -0.95    15.999
    9282      oh       1    MUSC   O01Xi       1     -0.95    15.999
    9283      oh       1    MUSC   O01Xj       1     -0.95    15.999
    9284      oh       1    MUSC   O01Xk       1     -0.95    15.999
    9285      ob       1    MUSC   O01Xl       1     -1.05    15.999
    9286      ob       1    MUSC   O01Xm       1     -1.05    15.999
    9287      ob       1    MUSC   O01Xn       1     -1.05    15.999
    9288      ob       1    MUSC   O01Xo       1     -1.05    15.999
    9289      ob       1    MUSC   O01Xp       1     -1.05    15.999
    9290      ob       1    MUSC   O01Xq       1     -1.05    15.999
    9291      ob       1    MUSC   O01Xr       1     -1.05    15.999
    9292      ob       1    MUSC   O01Xs       1     -1.05    15.999
    9293      ob       1    MUSC   O01Xt       1     -1.05    15.999
    9294      ob       1    MUSC   O01Xu       1     -1.05    15.999
    9295      ob       1    MUSC   O01Xv       1     -1.05    15.999
    9296      ob       1    MUSC   O01Xw       1     -1.05    15.999
    9297      ob       1    MUSC   O01Xx       1     -1.05    15.999
    9298      ob       1    MUSC   O01Xy       1     -1.05    15.999
    9299      ob       1    MUSC   O01Xz       1     -1.05    15.999
    9300      ob       1    MUSC   O01Y0       1     -1.05    15.999
    9301       K       1    MUSC   K0061       1       1.0    39.098
    9302       K       1    MUSC   K0062       1       1.0    39.098
    9303      ao       1    MUSC   Al0G1       1     1.575    26.982
    9304      ao       1    MUSC   Al0G2       1     1.575    26.982
    9305      ao       1    MUSC   Al0G3       1     1.575    26.982
    9306      ao       1    MUSC   Al0G4       1     1.575    26.982
    9307      ao       1    MUSC   Al0G5       1     1.575    26.982
    9308      ao       1    MUSC   Al0G6       1     1.575    26.982
    9309      ao       1    MUSC   Al0G7       1     1.575    26.982
    9310      ao       1    MUSC   Al0G8       1     1.575    26.982
    9311      st       1    MUSC   Si0W1       1       2.1    28.086
    9312      st       1    MUSC   Si0W2       1       2.1    28.086
    9313      st       1    MUSC   Si0W3       1       2.1    28.086
    9314      st       1    MUSC   Si0W4       1       2.1    28.086
    9315      st       1    MUSC   Si0W5       1       2.1    28.086
    9316      st       1    MUSC   Si0W6       1       2.1    28.086
    9317      st       1    MUSC   Si0W7       1       2.1    28.086
    9318      st       1    MUSC   Si0W8       1       2.1    28.086
    9319      st       1    MUSC   Si0W9       1       2.1    28.086
    9320      st       1    MUSC   Si0WA       1       2.1    28.086
    9321      st       1    MUSC   Si0WB       1       2.1    28.086
    9322      st       1    MUSC   Si0WC       1       2.1    28.086
    9323      st       1    MUSC   Si0WD       1       2.1    28.086
    9324      st       1    MUSC   Si0WE       1       2.1    28.086
    9325      st       1    MUSC   Si0WF       1       2.1    28.086
    9326      st       1    MUSC   Si0WG       1       2.1    28.086
    9327      ob       1    MUSC   O01Y1       1     -1.05    15.999
    9328      ob       1    MUSC   O01Y2       1     -1.05    15.999
    9329      ob       1    MUSC   O01Y3       1     -1.05    15.999
    9330      ob       1    MUSC   O01Y4       1     -1.05    15.999
    9331      oh       1    MUSC   O01Y5       1     -0.95    15.999
    9332      oh       1    MUSC   O01Y6       1     -0.95    15.999
    9333      oh       1    MUSC   O01Y7       1     -0.95    15.999
    9334      oh       1    MUSC   O01Y8       1     -0.95    15.999
    9335      ob       1    MUSC   O01Y9       1     -1.05    15.999
    9336      ob       1    MUSC   O01YA       1     -1.05    15.999
    9337      ob       1    MUSC   O01YB       1     -1.05    15.999
    9338      ob       1    MUSC   O01YC       1     -1.05    15.999
    9339      ob       1    MUSC   O01YD       1     -1.05    15.999
    9340      ob       1    MUSC   O01YE       1     -1.05    15.999
    9341      ob       1    MUSC   O01YF       1     -1.05    15.999
    9342      ob       1    MUSC   O01YG       1     -1.05    15.999
    9343      ob       1    MUSC   O01YH       1     -1.05    15.999
    9344      ob       1    MUSC   O01YI       1     -1.05    15.999
    9345      ob       1    MUSC   O01YJ       1     -1.05    15.999
    9346      ob       1    MUSC   O01YK       1     -1.05    15.999
    9347      ob       1    MUSC   O01YL       1     -1.05    15.999
    9348      ob       1    MUSC   O01YM       1     -1.05    15.999
    9349      ob       1    MUSC   O01YN       1     -1.05    15.999
    9350      ob       1    MUSC   O01YO       1     -1.05    15.999
    9351      ob       1    MUSC   O01YP       1     -1.05    15.999
    9352      ob       1    MUSC   O01YQ       1     -1.05    15.999
    9353      ob       1    MUSC   O01YR       1     -1.05    15.999
    9354      ob       1    MUSC   O01YS       1     -1.05    15.999
    9355      oh       1    MUSC   O01YT       1     -0.95    15.999
    9356      oh       1    MUSC   O01YU       1     -0.95    15.999
    9357      oh       1    MUSC   O01YV       1     -0.95    15.999
    9358      oh       1    MUSC   O01YW       1     -0.95    15.999
    9359      ob       1    MUSC   O01YX       1     -1.05    15.999
    9360      ob       1    MUSC   O01YY       1     -1.05    15.999
    9361      ob       1    MUSC   O01YZ       1     -1.05    15.999
    9362      ob       1    MUSC   O01Ya       1     -1.05    15.999
    9363      ob       1    MUSC   O01Yb       1     -1.05    15.999
    9364      ob       1    MUSC   O01Yc       1     -1.05    15.999
    9365      ob       1    MUSC   O01Yd       1     -1.05    15.999
    9366      ob       1    MUSC   O01Ye       1     -1.05    15.999
    9367      ob       1    MUSC   O01Yf       1     -1.05    15.999
    9368      ob       1    MUSC   O01Yg       1     -1.05    15.999
    9369      ob       1    MUSC   O01Yh       1     -1.05    15.999
    9370      ob       1    MUSC   O01Yi       1     -1.05    15.999
    9371      ob       1    MUSC   O01Yj       1     -1.05    15.999
    9372      ob       1    MUSC   O01Yk       1     -1.05    15.999
    9373      ob       1    MUSC   O01Yl       1     -1.05    15.999
    9374      ob       1    MUSC   O01Ym       1     -1.05    15.999
    9375       K       1    MUSC   K0063       1       1.0    39.098
    9376       K       1    MUSC   K0064       1       1.0    39.098
    9377       K       1    MUSC   K0065       1       1.0    39.098
    9378       K       1    MUSC   K0066       1       1.0    39.098
    9379      ao       1    MUSC   Al0G9       1     1.575    26.982
    9380      ao       1    MUSC   Al0GA       1     1.575    26.982
    9381      ao       1    MUSC   Al0GB       1     1.575    26.982
    9382      ao       1    MUSC   Al0GC       1     1.575    26.982
    9383      ao       1    MUSC   Al0GD       1     1.575    26.982
    9384      ao       1    MUSC   Al0GE       1     1.575    26.982
    9385      ao       1    MUSC   Al0GF       1     1.575    26.982
    9386      ao       1    MUSC   Al0GG       1     1.575    26.982
    9387      st       1    MUSC   Si0WH       1       2.1    28.086
    9388      st       1    MUSC   Si0WI       1       2.1    28.086
    9389      st       1    MUSC   Si0WJ       1       2.1    28.086
    9390      st       1    MUSC   Si0WK       1       2.1    28.086
    9391      st       1    MUSC   Si0WL       1       2.1    28.086
    9392      st       1    MUSC   Si0WM       1       2.1    28.086
    9393      st       1    MUSC   Si0WN       1       2.1    28.086
    9394      st       1    MUSC   Si0WO       1       2.1    28.086
    9395      st       1    MUSC   Si0WP       1       2.1    28.086
    9396      st       1    MUSC   Si0WQ       1       2.1    28.086
    9397      st       1    MUSC   Si0WR       1       2.1    28.086
    9398      st       1    MUSC   Si0WS       1       2.1    28.086
    9399      st       1    MUSC   Si0WT       1       2.1    28.086
    9400      st       1    MUSC   Si0WU       1       2.1    28.086
    9401      st       1    MUSC   Si0WV       1       2.1    28.086
    9402      st       1    MUSC   Si0WW       1       2.1    28.086
    9403      ob       1    MUSC   O01Yn       1     -1.05    15.999
    9404      ob       1    MUSC   O01Yo       1     -1.05    15.999
    9405      ob       1    MUSC   O01Yp       1     -1.05    15.999
    9406      ob       1    MUSC   O01Yq       1     -1.05    15.999
    9407      oh       1    MUSC   O01Yr       1     -0.95    15.999
    9408      oh       1    MUSC   O01Ys       1     -0.95    15.999
    9409      oh       1    MUSC   O01Yt       1     -0.95    15.999
    9410      oh       1    MUSC   O01Yu       1     -0.95    15.999
    9411      ob       1    MUSC   O01Yv       1     -1.05    15.999
    9412      ob       1    MUSC   O01Yw       1     -1.05    15.999
    9413      ob       1    MUSC   O01Yx       1     -1.05    15.999
    9414      ob       1    MUSC   O01Yy       1     -1.05    15.999
    9415      ob       1    MUSC   O01Yz       1     -1.05    15.999
    9416      ob       1    MUSC   O01Z0       1     -1.05    15.999
    9417      ob       1    MUSC   O01Z1       1     -1.05    15.999
    9418      ob       1    MUSC   O01Z2       1     -1.05    15.999
    9419      ob       1    MUSC   O01Z3       1     -1.05    15.999
    9420      ob       1    MUSC   O01Z4       1     -1.05    15.999
    9421      ob       1    MUSC   O01Z5       1     -1.05    15.999
    9422      ob       1    MUSC   O01Z6       1     -1.05    15.999
    9423      ob       1    MUSC   O01Z7       1     -1.05    15.999
    9424      ob       1    MUSC   O01Z8       1     -1.05    15.999
    9425      ob       1    MUSC   O01Z9       1     -1.05    15.999
    9426      ob       1    MUSC   O01ZA       1     -1.05    15.999
    9427      ob       1    MUSC   O01ZB       1     -1.05    15.999
    9428      ob       1    MUSC   O01ZC       1     -1.05    15.999
    9429      ob       1    MUSC   O01ZD       1     -1.05    15.999
    9430      ob       1    MUSC   O01ZE       1     -1.05    15.999
    9431      oh       1    MUSC   O01ZF       1     -0.95    15.999
    9432      oh       1    MUSC   O01ZG       1     -0.95    15.999
    9433      oh       1    MUSC   O01ZH       1     -0.95    15.999
    9434      oh       1    MUSC   O01ZI       1     -0.95    15.999
    9435      ob       1    MUSC   O01ZJ       1     -1.05    15.999
    9436      ob       1    MUSC   O01ZK       1     -1.05    15.999
    9437      ob       1    MUSC   O01ZL       1     -1.05    15.999
    9438      ob       1    MUSC   O01ZM       1     -1.05    15.999
    9439      ob       1    MUSC   O01ZN       1     -1.05    15.999
    9440      ob       1    MUSC   O01ZO       1     -1.05    15.999
    9441      ob       1    MUSC   O01ZP       1     -1.05    15.999
    9442      ob       1    MUSC   O01ZQ       1     -1.05    15.999
    9443      ob       1    MUSC   O01ZR       1     -1.05    15.999
    9444      ob       1    MUSC   O01ZS       1     -1.05    15.999
    9445      ob       1    MUSC   O01ZT       1     -1.05    15.999
    9446      ob       1    MUSC   O01ZU       1     -1.05    15.999
    9447      ob       1    MUSC   O01ZV       1     -1.05    15.999
    9448      ob       1    MUSC   O01ZW       1     -1.05    15.999
    9449      ob       1    MUSC   O01ZX       1     -1.05    15.999
    9450      ob       1    MUSC   O01ZY       1     -1.05    15.999
    9451       K       1    MUSC   K0067       1       1.0    39.098
    9452       K       1    MUSC   K0068       1       1.0    39.098
    9453      ao       1    MUSC   Al0GH       1     1.575    26.982
    9454      ao       1    MUSC   Al0GI       1     1.575    26.982
    9455      ao       1    MUSC   Al0GJ       1     1.575    26.982
    9456      ao       1    MUSC   Al0GK       1     1.575    26.982
    9457      ao       1    MUSC   Al0GL       1     1.575    26.982
    9458      ao       1    MUSC   Al0GM       1     1.575    26.982
    9459      ao       1    MUSC   Al0GN       1     1.575    26.982
    9460      ao       1    MUSC   Al0GO       1     1.575    26.982
    9461      st       1    MUSC   Si0WX       1       2.1    28.086
    9462      st       1    MUSC   Si0WY       1       2.1    28.086
    9463      st       1    MUSC   Si0WZ       1       2.1    28.086
    9464      st       1    MUSC   Si0Wa       1       2.1    28.086
    9465      st       1    MUSC   Si0Wb       1       2.1    28.086
    9466      st       1    MUSC   Si0Wc       1       2.1    28.086
    9467      st       1    MUSC   Si0Wd       1       2.1    28.086
    9468      st       1    MUSC   Si0We       1       2.1    28.086
    9469      st       1    MUSC   Si0Wf       1       2.1    28.086
    9470      st       1    MUSC   Si0Wg       1       2.1    28.086
    9471      st       1    MUSC   Si0Wh       1       2.1    28.086
    9472      st       1    MUSC   Si0Wi       1       2.1    28.086
    9473      st       1    MUSC   Si0Wj       1       2.1    28.086
    9474      st       1    MUSC   Si0Wk       1       2.1    28.086
    9475      st       1    MUSC   Si0Wl       1       2.1    28.086
    9476      st       1    MUSC   Si0Wm       1       2.1    28.086
    9477      ob       1    MUSC   O01ZZ       1     -1.05    15.999
    9478      ob       1    MUSC   O01Za       1     -1.05    15.999
    9479      ob       1    MUSC   O01Zb       1     -1.05    15.999
    9480      ob       1    MUSC   O01Zc       1     -1.05    15.999
    9481      oh       1    MUSC   O01Zd       1     -0.95    15.999
    9482      oh       1    MUSC   O01Ze       1     -0.95    15.999
    9483      oh       1    MUSC   O01Zf       1     -0.95    15.999
    9484      oh       1    MUSC   O01Zg       1     -0.95    15.999
    9485      ob       1    MUSC   O01Zh       1     -1.05    15.999
    9486      ob       1    MUSC   O01Zi       1     -1.05    15.999
    9487      ob       1    MUSC   O01Zj       1     -1.05    15.999
    9488      ob       1    MUSC   O01Zk       1     -1.05    15.999
    9489      ob       1    MUSC   O01Zl       1     -1.05    15.999
    9490      ob       1    MUSC   O01Zm       1     -1.05    15.999
    9491      ob       1    MUSC   O01Zn       1     -1.05    15.999
    9492      ob       1    MUSC   O01Zo       1     -1.05    15.999
    9493      ob       1    MUSC   O01Zp       1     -1.05    15.999
    9494      ob       1    MUSC   O01Zq       1     -1.05    15.999
    9495      ob       1    MUSC   O01Zr       1     -1.05    15.999
    9496      ob       1    MUSC   O01Zs       1     -1.05    15.999
    9497      ob       1    MUSC   O01Zt       1     -1.05    15.999
    9498      ob       1    MUSC   O01Zu       1     -1.05    15.999
    9499      ob       1    MUSC   O01Zv       1     -1.05    15.999
    9500      ob       1    MUSC   O01Zw       1     -1.05    15.999
    9501      ob       1    MUSC   O01Zx       1     -1.05    15.999
    9502      ob       1    MUSC   O01Zy       1     -1.05    15.999
    9503      ob       1    MUSC   O01Zz       1     -1.05    15.999
    9504      ob       1    MUSC   O01a0       1     -1.05    15.999
    9505      oh       1    MUSC   O01a1       1     -0.95    15.999
    9506      oh       1    MUSC   O01a2       1     -0.95    15.999
    9507      oh       1    MUSC   O01a3       1     -0.95    15.999
    9508      oh       1    MUSC   O01a4       1     -0.95    15.999
    9509      ob       1    MUSC   O01a5       1     -1.05    15.999
    9510      ob       1    MUSC   O01a6       1     -1.05    15.999
    9511      ob       1    MUSC   O01a7       1     -1.05    15.999
    9512      ob       1    MUSC   O01a8       1     -1.05    15.999
    9513      ob       1    MUSC   O01a9       1     -1.05    15.999
    9514      ob       1    MUSC   O01aA       1     -1.05    15.999
    9515      ob       1    MUSC   O01aB       1     -1.05    15.999
    9516      ob       1    MUSC   O01aC       1     -1.05    15.999
    9517      ob       1    MUSC   O01aD       1     -1.05    15.999
    9518      ob       1    MUSC   O01aE       1     -1.05    15.999
    9519      ob       1    MUSC   O01aF       1     -1.05    15.999
    9520      ob       1    MUSC   O01aG       1     -1.05    15.999
    9521      ob       1    MUSC   O01aH       1     -1.05    15.999
    9522      ob       1    MUSC   O01aI       1     -1.05    15.999
    9523      ob       1    MUSC   O01aJ       1     -1.05    15.999
    9524      ob       1    MUSC   O01aK       1     -1.05    15.999
    9525       K       1    MUSC   K0069       1       1.0    39.098
    9526       K       1    MUSC   K006A       1       1.0    39.098
    9527       K       1    MUSC   K006B       1       1.0    39.098
    9528       K       1    MUSC   K006C       1       1.0    39.098
    9529      ao       1    MUSC   Al0GP       1     1.575    26.982
    9530      ao       1    MUSC   Al0GQ       1     1.575    26.982
    9531      ao       1    MUSC   Al0GR       1     1.575    26.982
    9532      ao       1    MUSC   Al0GS       1     1.575    26.982
    9533      ao       1    MUSC   Al0GT       1     1.575    26.982
    9534      ao       1    MUSC   Al0GU       1     1.575    26.982
    9535      ao       1    MUSC   Al0GV       1     1.575    26.982
    9536      ao       1    MUSC   Al0GW       1     1.575    26.982
    9537      st       1    MUSC   Si0Wn       1       2.1    28.086
    9538      st       1    MUSC   Si0Wo       1       2.1    28.086
    9539      st       1    MUSC   Si0Wp       1       2.1    28.086
    9540      st       1    MUSC   Si0Wq       1       2.1    28.086
    9541      st       1    MUSC   Si0Wr       1       2.1    28.086
    9542      st       1    MUSC   Si0Ws       1       2.1    28.086
    9543      st       1    MUSC   Si0Wt       1       2.1    28.086
    9544      st       1    MUSC   Si0Wu       1       2.1    28.086
    9545      st       1    MUSC   Si0Wv       1       2.1    28.086
    9546      st       1    MUSC   Si0Ww       1       2.1    28.086
    9547      st       1    MUSC   Si0Wx       1       2.1    28.086
    9548      st       1    MUSC   Si0Wy       1       2.1    28.086
    9549      st       1    MUSC   Si0Wz       1       2.1    28.086
    9550      st       1    MUSC   Si0X0       1       2.1    28.086
    9551      st       1    MUSC   Si0X1       1       2.1    28.086
    9552      st       1    MUSC   Si0X2       1       2.1    28.086
    9553      ob       1    MUSC   O01aL       1     -1.05    15.999
    9554      ob       1    MUSC   O01aM       1     -1.05    15.999
    9555      ob       1    MUSC   O01aN       1     -1.05    15.999
    9556      ob       1    MUSC   O01aO       1     -1.05    15.999
    9557      oh       1    MUSC   O01aP       1     -0.95    15.999
    9558      oh       1    MUSC   O01aQ       1     -0.95    15.999
    9559      oh       1    MUSC   O01aR       1     -0.95    15.999
    9560      oh       1    MUSC   O01aS       1     -0.95    15.999
    9561      ob       1    MUSC   O01aT       1     -1.05    15.999
    9562      ob       1    MUSC   O01aU       1     -1.05    15.999
    9563      ob       1    MUSC   O01aV       1     -1.05    15.999
    9564      ob       1    MUSC   O01aW       1     -1.05    15.999
    9565      ob       1    MUSC   O01aX       1     -1.05    15.999
    9566      ob       1    MUSC   O01aY       1     -1.05    15.999
    9567      ob       1    MUSC   O01aZ       1     -1.05    15.999
    9568      ob       1    MUSC   O01aa       1     -1.05    15.999
    9569      ob       1    MUSC   O01ab       1     -1.05    15.999
    9570      ob       1    MUSC   O01ac       1     -1.05    15.999
    9571      ob       1    MUSC   O01ad       1     -1.05    15.999
    9572      ob       1    MUSC   O01ae       1     -1.05    15.999
    9573      ob       1    MUSC   O01af       1     -1.05    15.999
    9574      ob       1    MUSC   O01ag       1     -1.05    15.999
    9575      ob       1    MUSC   O01ah       1     -1.05    15.999
    9576      ob       1    MUSC   O01ai       1     -1.05    15.999
    9577      ob       1    MUSC   O01aj       1     -1.05    15.999
    9578      ob       1    MUSC   O01ak       1     -1.05    15.999
    9579      ob       1    MUSC   O01al       1     -1.05    15.999
    9580      ob       1    MUSC   O01am       1     -1.05    15.999
    9581      oh       1    MUSC   O01an       1     -0.95    15.999
    9582      oh       1    MUSC   O01ao       1     -0.95    15.999
    9583      oh       1    MUSC   O01ap       1     -0.95    15.999
    9584      oh       1    MUSC   O01aq       1     -0.95    15.999
    9585      ob       1    MUSC   O01ar       1     -1.05    15.999
    9586      ob       1    MUSC   O01as       1     -1.05    15.999
    9587      ob       1    MUSC   O01at       1     -1.05    15.999
    9588      ob       1    MUSC   O01au       1     -1.05    15.999
    9589      ob       1    MUSC   O01av       1     -1.05    15.999
    9590      ob       1    MUSC   O01aw       1     -1.05    15.999
    9591      ob       1    MUSC   O01ax       1     -1.05    15.999
    9592      ob       1    MUSC   O01ay       1     -1.05    15.999
    9593      ob       1    MUSC   O01az       1     -1.05    15.999
    9594      ob       1    MUSC   O01b0       1     -1.05    15.999
    9595      ob       1    MUSC   O01b1       1     -1.05    15.999
    9596      ob       1    MUSC   O01b2       1     -1.05    15.999
    9597      ob       1    MUSC   O01b3       1     -1.05    15.999
    9598      ob       1    MUSC   O01b4       1     -1.05    15.999
    9599      ob       1    MUSC   O01b5       1     -1.05    15.999
    9600      ob       1    MUSC   O01b6       1     -1.05    15.999
    9601       K       1    MUSC   K006D       1       1.0    39.098
    9602       K       1    MUSC   K006E       1       1.0    39.098
    9603      ao       1    MUSC   Al0GX       1     1.575    26.982
    9604      ao       1    MUSC   Al0GY       1     1.575    26.982
    9605      ao       1    MUSC   Al0GZ       1     1.575    26.982
    9606      ao       1    MUSC   Al0Ga       1     1.575    26.982
    9607      ao       1    MUSC   Al0Gb       1     1.575    26.982
    9608      ao       1    MUSC   Al0Gc       1     1.575    26.982
    9609      ao       1    MUSC   Al0Gd       1     1.575    26.982
    9610      ao       1    MUSC   Al0Ge       1     1.575    26.982
    9611      st       1    MUSC   Si0X3       1       2.1    28.086
    9612      st       1    MUSC   Si0X4       1       2.1    28.086
    9613      st       1    MUSC   Si0X5       1       2.1    28.086
    9614      st       1    MUSC   Si0X6       1       2.1    28.086
    9615      st       1    MUSC   Si0X7       1       2.1    28.086
    9616      st       1    MUSC   Si0X8       1       2.1    28.086
    9617      st       1    MUSC   Si0X9       1       2.1    28.086
    9618      st       1    MUSC   Si0XA       1       2.1    28.086
    9619      st       1    MUSC   Si0XB       1       2.1    28.086
    9620      st       1    MUSC   Si0XC       1       2.1    28.086
    9621      st       1    MUSC   Si0XD       1       2.1    28.086
    9622      st       1    MUSC   Si0XE       1       2.1    28.086
    9623      st       1    MUSC   Si0XF       1       2.1    28.086
    9624      st       1    MUSC   Si0XG       1       2.1    28.086
    9625      st       1    MUSC   Si0XH       1       2.1    28.086
    9626      st       1    MUSC   Si0XI       1       2.1    28.086
    9627      ob       1    MUSC   O01b7       1     -1.05    15.999
    9628      ob       1    MUSC   O01b8       1     -1.05    15.999
    9629      ob       1    MUSC   O01b9       1     -1.05    15.999
    9630      ob       1    MUSC   O01bA       1     -1.05    15.999
    9631      oh       1    MUSC   O01bB       1     -0.95    15.999
    9632      oh       1    MUSC   O01bC       1     -0.95    15.999
    9633      oh       1    MUSC   O01bD       1     -0.95    15.999
    9634      oh       1    MUSC   O01bE       1     -0.95    15.999
    9635      ob       1    MUSC   O01bF       1     -1.05    15.999
    9636      ob       1    MUSC   O01bG       1     -1.05    15.999
    9637      ob       1    MUSC   O01bH       1     -1.05    15.999
    9638      ob       1    MUSC   O01bI       1     -1.05    15.999
    9639      ob       1    MUSC   O01bJ       1     -1.05    15.999
    9640      ob       1    MUSC   O01bK       1     -1.05    15.999
    9641      ob       1    MUSC   O01bL       1     -1.05    15.999
    9642      ob       1    MUSC   O01bM       1     -1.05    15.999
    9643      ob       1    MUSC   O01bN       1     -1.05    15.999
    9644      ob       1    MUSC   O01bO       1     -1.05    15.999
    9645      ob       1    MUSC   O01bP       1     -1.05    15.999
    9646      ob       1    MUSC   O01bQ       1     -1.05    15.999
    9647      ob       1    MUSC   O01bR       1     -1.05    15.999
    9648      ob       1    MUSC   O01bS       1     -1.05    15.999
    9649      ob       1    MUSC   O01bT       1     -1.05    15.999
    9650      ob       1    MUSC   O01bU       1     -1.05    15.999
    9651      ob       1    MUSC   O01bV       1     -1.05    15.999
    9652      ob       1    MUSC   O01bW       1     -1.05    15.999
    9653      ob       1    MUSC   O01bX       1     -1.05    15.999
    9654      ob       1    MUSC   O01bY       1     -1.05    15.999
    9655      oh       1    MUSC   O01bZ       1     -0.95    15.999
    9656      oh       1    MUSC   O01ba       1     -0.95    15.999
    9657      oh       1    MUSC   O01bb       1     -0.95    15.999
    9658      oh       1    MUSC   O01bc       1     -0.95    15.999
    9659      ob       1    MUSC   O01bd       1     -1.05    15.999
    9660      ob       1    MUSC   O01be       1     -1.05    15.999
    9661      ob       1    MUSC   O01bf       1     -1.05    15.999
    9662      ob       1    MUSC   O01bg       1     -1.05    15.999
    9663      ob       1    MUSC   O01bh       1     -1.05    15.999
    9664      ob       1    MUSC   O01bi       1     -1.05    15.999
    9665      ob       1    MUSC   O01bj       1     -1.05    15.999
    9666      ob       1    MUSC   O01bk       1     -1.05    15.999
    9667      ob       1    MUSC   O01bl       1     -1.05    15.999
    9668      ob       1    MUSC   O01bm       1     -1.05    15.999
    9669      ob       1    MUSC   O01bn       1     -1.05    15.999
    9670      ob       1    MUSC   O01bo       1     -1.05    15.999
    9671      ob       1    MUSC   O01bp       1     -1.05    15.999
    9672      ob       1    MUSC   O01bq       1     -1.05    15.999
    9673      ob       1    MUSC   O01br       1     -1.05    15.999
    9674      ob       1    MUSC   O01bs       1     -1.05    15.999
    9675       K       1    MUSC   K006F       1       1.0    39.098
    9676       K       1    MUSC   K006G       1       1.0    39.098
    9677       K       1    MUSC   K006H       1       1.0    39.098
    9678       K       1    MUSC   K006I       1       1.0    39.098
    9679      ao       1    MUSC   Al0Gf       1     1.575    26.982
    9680      ao       1    MUSC   Al0Gg       1     1.575    26.982
    9681      ao       1    MUSC   Al0Gh       1     1.575    26.982
    9682      ao       1    MUSC   Al0Gi       1     1.575    26.982
    9683      ao       1    MUSC   Al0Gj       1     1.575    26.982
    9684      ao       1    MUSC   Al0Gk       1     1.575    26.982
    9685      ao       1    MUSC   Al0Gl       1     1.575    26.982
    9686      ao       1    MUSC   Al0Gm       1     1.575    26.982
    9687      st       1    MUSC   Si0XJ       1       2.1    28.086
    9688      st       1    MUSC   Si0XK       1       2.1    28.086
    9689      st       1    MUSC   Si0XL       1       2.1    28.086
    9690      st       1    MUSC   Si0XM       1       2.1    28.086
    9691      st       1    MUSC   Si0XN       1       2.1    28.086
    9692      st       1    MUSC   Si0XO       1       2.1    28.086
    9693      st       1    MUSC   Si0XP       1       2.1    28.086
    9694      st       1    MUSC   Si0XQ       1       2.1    28.086
    9695      st       1    MUSC   Si0XR       1       2.1    28.086
    9696      st       1    MUSC   Si0XS       1       2.1    28.086
    9697      st       1    MUSC   Si0XT       1       2.1    28.086
    9698      st       1    MUSC   Si0XU       1       2.1    28.086
    9699      st       1    MUSC   Si0XV       1       2.1    28.086
    9700      st       1    MUSC   Si0XW       1       2.1    28.086
    9701      st       1    MUSC   Si0XX       1       2.1    28.086
    9702      st       1    MUSC   Si0XY       1       2.1    28.086
    9703      ob       1    MUSC   O01bt       1     -1.05    15.999
    9704      ob       1    MUSC   O01bu       1     -1.05    15.999
    9705      ob       1    MUSC   O01bv       1     -1.05    15.999
    9706      ob       1    MUSC   O01bw       1     -1.05    15.999
    9707      oh       1    MUSC   O01bx       1     -0.95    15.999
    9708      oh       1    MUSC   O01by       1     -0.95    15.999
    9709      oh       1    MUSC   O01bz       1     -0.95    15.999
    9710      oh       1    MUSC   O01c0       1     -0.95    15.999
    9711      ob       1    MUSC   O01c1       1     -1.05    15.999
    9712      ob       1    MUSC   O01c2       1     -1.05    15.999
    9713      ob       1    MUSC   O01c3       1     -1.05    15.999
    9714      ob       1    MUSC   O01c4       1     -1.05    15.999
    9715      ob       1    MUSC   O01c5       1     -1.05    15.999
    9716      ob       1    MUSC   O01c6       1     -1.05    15.999
    9717      ob       1    MUSC   O01c7       1     -1.05    15.999
    9718      ob       1    MUSC   O01c8       1     -1.05    15.999
    9719      ob       1    MUSC   O01c9       1     -1.05    15.999
    9720      ob       1    MUSC   O01cA       1     -1.05    15.999
    9721      ob       1    MUSC   O01cB       1     -1.05    15.999
    9722      ob       1    MUSC   O01cC       1     -1.05    15.999
    9723      ob       1    MUSC   O01cD       1     -1.05    15.999
    9724      ob       1    MUSC   O01cE       1     -1.05    15.999
    9725      ob       1    MUSC   O01cF       1     -1.05    15.999
    9726      ob       1    MUSC   O01cG       1     -1.05    15.999
    9727      ob       1    MUSC   O01cH       1     -1.05    15.999
    9728      ob       1    MUSC   O01cI       1     -1.05    15.999
    9729      ob       1    MUSC   O01cJ       1     -1.05    15.999
    9730      ob       1    MUSC   O01cK       1     -1.05    15.999
    9731      oh       1    MUSC   O01cL       1     -0.95    15.999
    9732      oh       1    MUSC   O01cM       1     -0.95    15.999
    9733      oh       1    MUSC   O01cN       1     -0.95    15.999
    9734      oh       1    MUSC   O01cO       1     -0.95    15.999
    9735      ob       1    MUSC   O01cP       1     -1.05    15.999
    9736      ob       1    MUSC   O01cQ       1     -1.05    15.999
    9737      ob       1    MUSC   O01cR       1     -1.05    15.999
    9738      ob       1    MUSC   O01cS       1     -1.05    15.999
    9739      ob       1    MUSC   O01cT       1     -1.05    15.999
    9740      ob       1    MUSC   O01cU       1     -1.05    15.999
    9741      ob       1    MUSC   O01cV       1     -1.05    15.999
    9742      ob       1    MUSC   O01cW       1     -1.05    15.999
    9743      ob       1    MUSC   O01cX       1     -1.05    15.999
    9744      ob       1    MUSC   O01cY       1     -1.05    15.999
    9745      ob       1    MUSC   O01cZ       1     -1.05    15.999
    9746      ob       1    MUSC   O01ca       1     -1.05    15.999
    9747      ob       1    MUSC   O01cb       1     -1.05    15.999
    9748      ob       1    MUSC   O01cc       1     -1.05    15.999
    9749      ob       1    MUSC   O01cd       1     -1.05    15.999
    9750      ob       1    MUSC   O01ce       1     -1.05    15.999
    9751       K       1    MUSC   K006J       1       1.0    39.098
    9752       K       1    MUSC   K006K       1       1.0    39.098
    9753      ao       1    MUSC   Al0Gn       1     1.575    26.982
    9754      ao       1    MUSC   Al0Go       1     1.575    26.982
    9755      ao       1    MUSC   Al0Gp       1     1.575    26.982
    9756      ao       1    MUSC   Al0Gq       1     1.575    26.982
    9757      ao       1    MUSC   Al0Gr       1     1.575    26.982
    9758      ao       1    MUSC   Al0Gs       1     1.575    26.982
    9759      ao       1    MUSC   Al0Gt       1     1.575    26.982
    9760      ao       1    MUSC   Al0Gu       1     1.575    26.982
    9761      st       1    MUSC   Si0XZ       1       2.1    28.086
    9762      st       1    MUSC   Si0Xa       1       2.1    28.086
    9763      st       1    MUSC   Si0Xb       1       2.1    28.086
    9764      st       1    MUSC   Si0Xc       1       2.1    28.086
    9765      st       1    MUSC   Si0Xd       1       2.1    28.086
    9766      st       1    MUSC   Si0Xe       1       2.1    28.086
    9767      st       1    MUSC   Si0Xf       1       2.1    28.086
    9768      st       1    MUSC   Si0Xg       1       2.1    28.086
    9769      st       1    MUSC   Si0Xh       1       2.1    28.086
    9770      st       1    MUSC   Si0Xi       1       2.1    28.086
    9771      st       1    MUSC   Si0Xj       1       2.1    28.086
    9772      st       1    MUSC   Si0Xk       1       2.1    28.086
    9773      st       1    MUSC   Si0Xl       1       2.1    28.086
    9774      st       1    MUSC   Si0Xm       1       2.1    28.086
    9775      st       1    MUSC   Si0Xn       1       2.1    28.086
    9776      st       1    MUSC   Si0Xo       1       2.1    28.086
    9777      ob       1    MUSC   O01cf       1     -1.05    15.999
    9778      ob       1    MUSC   O01cg       1     -1.05    15.999
    9779      ob       1    MUSC   O01ch       1     -1.05    15.999
    9780      ob       1    MUSC   O01ci       1     -1.05    15.999
    9781      oh       1    MUSC   O01cj       1     -0.95    15.999
    9782      oh       1    MUSC   O01ck       1     -0.95    15.999
    9783      oh       1    MUSC   O01cl       1     -0.95    15.999
    9784      oh       1    MUSC   O01cm       1     -0.95    15.999
    9785      ob       1    MUSC   O01cn       1     -1.05    15.999
    9786      ob       1    MUSC   O01co       1     -1.05    15.999
    9787      ob       1    MUSC   O01cp       1     -1.05    15.999
    9788      ob       1    MUSC   O01cq       1     -1.05    15.999
    9789      ob       1    MUSC   O01cr       1     -1.05    15.999
    9790      ob       1    MUSC   O01cs       1     -1.05    15.999
    9791      ob       1    MUSC   O01ct       1     -1.05    15.999
    9792      ob       1    MUSC   O01cu       1     -1.05    15.999
    9793      ob       1    MUSC   O01cv       1     -1.05    15.999
    9794      ob       1    MUSC   O01cw       1     -1.05    15.999
    9795      ob       1    MUSC   O01cx       1     -1.05    15.999
    9796      ob       1    MUSC   O01cy       1     -1.05    15.999
    9797      ob       1    MUSC   O01cz       1     -1.05    15.999
    9798      ob       1    MUSC   O01d0       1     -1.05    15.999
    9799      ob       1    MUSC   O01d1       1     -1.05    15.999
    9800      ob       1    MUSC   O01d2       1     -1.05    15.999
    9801      ob       1    MUSC   O01d3       1     -1.05    15.999
    9802      ob       1    MUSC   O01d4       1     -1.05    15.999
    9803      ob       1    MUSC   O01d5       1     -1.05    15.999
    9804      ob       1    MUSC   O01d6       1     -1.05    15.999
    9805      oh       1    MUSC   O01d7       1     -0.95    15.999
    9806      oh       1    MUSC   O01d8       1     -0.95    15.999
    9807      oh       1    MUSC   O01d9       1     -0.95    15.999
    9808      oh       1    MUSC   O01dA       1     -0.95    15.999
    9809      ob       1    MUSC   O01dB       1     -1.05    15.999
    9810      ob       1    MUSC   O01dC       1     -1.05    15.999
    9811      ob       1    MUSC   O01dD       1     -1.05    15.999
    9812      ob       1    MUSC   O01dE       1     -1.05    15.999
    9813      ob       1    MUSC   O01dF       1     -1.05    15.999
    9814      ob       1    MUSC   O01dG       1     -1.05    15.999
    9815      ob       1    MUSC   O01dH       1     -1.05    15.999
    9816      ob       1    MUSC   O01dI       1     -1.05    15.999
    9817      ob       1    MUSC   O01dJ       1     -1.05    15.999
    9818      ob       1    MUSC   O01dK       1     -1.05    15.999
    9819      ob       1    MUSC   O01dL       1     -1.05    15.999
    9820      ob       1    MUSC   O01dM       1     -1.05    15.999
    9821      ob       1    MUSC   O01dN       1     -1.05    15.999
    9822      ob       1    MUSC   O01dO       1     -1.05    15.999
    9823      ob       1    MUSC   O01dP       1     -1.05    15.999
    9824      ob       1    MUSC   O01dQ       1     -1.05    15.999
    9825       K       1    MUSC   K006L       1       1.0    39.098
    9826       K       1    MUSC   K006M       1       1.0    39.098
    9827       K       1    MUSC   K006N       1       1.0    39.098
    9828       K       1    MUSC   K006O       1       1.0    39.098
    9829      ao       1    MUSC   Al0Gv       1     1.575    26.982
    9830      ao       1    MUSC   Al0Gw       1     1.575    26.982
    9831      ao       1    MUSC   Al0Gx       1     1.575    26.982
    9832      ao       1    MUSC   Al0Gy       1     1.575    26.982
    9833      ao       1    MUSC   Al0Gz       1     1.575    26.982
    9834      ao       1    MUSC   Al0H0       1     1.575    26.982
    9835      ao       1    MUSC   Al0H1       1     1.575    26.982
    9836      ao       1    MUSC   Al0H2       1     1.575    26.982
    9837      st       1    MUSC   Si0Xp       1       2.1    28.086
    9838      st       1    MUSC   Si0Xq       1       2.1    28.086
    9839      st       1    MUSC   Si0Xr       1       2.1    28.086
    9840      st       1    MUSC   Si0Xs       1       2.1    28.086
    9841      st       1    MUSC   Si0Xt       1       2.1    28.086
    9842      st       1    MUSC   Si0Xu       1       2.1    28.086
    9843      st       1    MUSC   Si0Xv       1       2.1    28.086
    9844      st       1    MUSC   Si0Xw       1       2.1    28.086
    9845      st       1    MUSC   Si0Xx       1       2.1    28.086
    9846      st       1    MUSC   Si0Xy       1       2.1    28.086
    9847      st       1    MUSC   Si0Xz       1       2.1    28.086
    9848      st       1    MUSC   Si0Y0       1       2.1    28.086
    9849      st       1    MUSC   Si0Y1       1       2.1    28.086
    9850      st       1    MUSC   Si0Y2       1       2.1    28.086
    9851      st       1    MUSC   Si0Y3       1       2.1    28.086
    9852      st       1    MUSC   Si0Y4       1       2.1    28.086
    9853      ob       1    MUSC   O01dR       1     -1.05    15.999
    9854      ob       1    MUSC   O01dS       1     -1.05    15.999
    9855      ob       1    MUSC   O01dT       1     -1.05    15.999
    9856      ob       1    MUSC   O01dU       1     -1.05    15.999
    9857      oh       1    MUSC   O01dV       1     -0.95    15.999
    9858      oh       1    MUSC   O01dW       1     -0.95    15.999
    9859      oh       1    MUSC   O01dX       1     -0.95    15.999
    9860      oh       1    MUSC   O01dY       1     -0.95    15.999
    9861      ob       1    MUSC   O01dZ       1     -1.05    15.999
    9862      ob       1    MUSC   O01da       1     -1.05    15.999
    9863      ob       1    MUSC   O01db       1     -1.05    15.999
    9864      ob       1    MUSC   O01dc       1     -1.05    15.999
    9865      ob       1    MUSC   O01dd       1     -1.05    15.999
    9866      ob       1    MUSC   O01de       1     -1.05    15.999
    9867      ob       1    MUSC   O01df       1     -1.05    15.999
    9868      ob       1    MUSC   O01dg       1     -1.05    15.999
    9869      ob       1    MUSC   O01dh       1     -1.05    15.999
    9870      ob       1    MUSC   O01di       1     -1.05    15.999
    9871      ob       1    MUSC   O01dj       1     -1.05    15.999
    9872      ob       1    MUSC   O01dk       1     -1.05    15.999
    9873      ob       1    MUSC   O01dl       1     -1.05    15.999
    9874      ob       1    MUSC   O01dm       1     -1.05    15.999
    9875      ob       1    MUSC   O01dn       1     -1.05    15.999
    9876      ob       1    MUSC   O01do       1     -1.05    15.999
    9877      ob       1    MUSC   O01dp       1     -1.05    15.999
    9878      ob       1    MUSC   O01dq       1     -1.05    15.999
    9879      ob       1    MUSC   O01dr       1     -1.05    15.999
    9880      ob       1    MUSC   O01ds       1     -1.05    15.999
    9881      oh       1    MUSC   O01dt       1     -0.95    15.999
    9882      oh       1    MUSC   O01du       1     -0.95    15.999
    9883      oh       1    MUSC   O01dv       1     -0.95    15.999
    9884      oh       1    MUSC   O01dw       1     -0.95    15.999
    9885      ob       1    MUSC   O01dx       1     -1.05    15.999
    9886      ob       1    MUSC   O01dy       1     -1.05    15.999
    9887      ob       1    MUSC   O01dz       1     -1.05    15.999
    9888      ob       1    MUSC   O01e0       1     -1.05    15.999
    9889      ob       1    MUSC   O01e1       1     -1.05    15.999
    9890      ob       1    MUSC   O01e2       1     -1.05    15.999
    9891      ob       1    MUSC   O01e3       1     -1.05    15.999
    9892      ob       1    MUSC   O01e4       1     -1.05    15.999
    9893      ob       1    MUSC   O01e5       1     -1.05    15.999
    9894      ob       1    MUSC   O01e6       1     -1.05    15.999
    9895      ob       1    MUSC   O01e7       1     -1.05    15.999
    9896      ob       1    MUSC   O01e8       1     -1.05    15.999
    9897      ob       1    MUSC   O01e9       1     -1.05    15.999
    9898      ob       1    MUSC   O01eA       1     -1.05    15.999
    9899      ob       1    MUSC   O01eB       1     -1.05    15.999
    9900      ob       1    MUSC   O01eC       1     -1.05    15.999
    9901       K       1    MUSC   K006P       1       1.0    39.098
    9902       K       1    MUSC   K006Q       1       1.0    39.098
    9903      ao       1    MUSC   Al0H3       1     1.575    26.982
    9904      ao       1    MUSC   Al0H4       1     1.575    26.982
    9905      ao       1    MUSC   Al0H5       1     1.575    26.982
    9906      ao       1    MUSC   Al0H6       1     1.575    26.982
    9907      ao       1    MUSC   Al0H7       1     1.575    26.982
    9908      ao       1    MUSC   Al0H8       1     1.575    26.982
    9909      ao       1    MUSC   Al0H9       1     1.575    26.982
    9910      ao       1    MUSC   Al0HA       1     1.575    26.982
    9911      st       1    MUSC   Si0Y5       1       2.1    28.086
    9912      st       1    MUSC   Si0Y6       1       2.1    28.086
    9913      st       1    MUSC   Si0Y7       1       2.1    28.086
    9914      st       1    MUSC   Si0Y8       1       2.1    28.086
    9915      st       1    MUSC   Si0Y9       1       2.1    28.086
    9916      st       1    MUSC   Si0YA       1       2.1    28.086
    9917      st       1    MUSC   Si0YB       1       2.1    28.086
    9918      st       1    MUSC   Si0YC       1       2.1    28.086
    9919      st       1    MUSC   Si0YD       1       2.1    28.086
    9920      st       1    MUSC   Si0YE       1       2.1    28.086
    9921      st       1    MUSC   Si0YF       1       2.1    28.086
    9922      st       1    MUSC   Si0YG       1       2.1    28.086
    9923      st       1    MUSC   Si0YH       1       2.1    28.086
    9924      st       1    MUSC   Si0YI       1       2.1    28.086
    9925      st       1    MUSC   Si0YJ       1       2.1    28.086
    9926      st       1    MUSC   Si0YK       1       2.1    28.086
    9927      ob       1    MUSC   O01eD       1     -1.05    15.999
    9928      ob       1    MUSC   O01eE       1     -1.05    15.999
    9929      ob       1    MUSC   O01eF       1     -1.05    15.999
    9930      ob       1    MUSC   O01eG       1     -1.05    15.999
    9931      oh       1    MUSC   O01eH       1     -0.95    15.999
    9932      oh       1    MUSC   O01eI       1     -0.95    15.999
    9933      oh       1    MUSC   O01eJ       1     -0.95    15.999
    9934      oh       1    MUSC   O01eK       1     -0.95    15.999
    9935      ob       1    MUSC   O01eL       1     -1.05    15.999
    9936      ob       1    MUSC   O01eM       1     -1.05    15.999
    9937      ob       1    MUSC   O01eN       1     -1.05    15.999
    9938      ob       1    MUSC   O01eO       1     -1.05    15.999
    9939      ob       1    MUSC   O01eP       1     -1.05    15.999
    9940      ob       1    MUSC   O01eQ       1     -1.05    15.999
    9941      ob       1    MUSC   O01eR       1     -1.05    15.999
    9942      ob       1    MUSC   O01eS       1     -1.05    15.999
    9943      ob       1    MUSC   O01eT       1     -1.05    15.999
    9944      ob       1    MUSC   O01eU       1     -1.05    15.999
    9945      ob       1    MUSC   O01eV       1     -1.05    15.999
    9946      ob       1    MUSC   O01eW       1     -1.05    15.999
    9947      ob       1    MUSC   O01eX       1     -1.05    15.999
    9948      ob       1    MUSC   O01eY       1     -1.05    15.999
    9949      ob       1    MUSC   O01eZ       1     -1.05    15.999
    9950      ob       1    MUSC   O01ea       1     -1.05    15.999
    9951      ob       1    MUSC   O01eb       1     -1.05    15.999
    9952      ob       1    MUSC   O01ec       1     -1.05    15.999
    9953      ob       1    MUSC   O01ed       1     -1.05    15.999
    9954      ob       1    MUSC   O01ee       1     -1.05    15.999
    9955      oh       1    MUSC   O01ef       1     -0.95    15.999
    9956      oh       1    MUSC   O01eg       1     -0.95    15.999
    9957      oh       1    MUSC   O01eh       1     -0.95    15.999
    9958      oh       1    MUSC   O01ei       1     -0.95    15.999
    9959      ob       1    MUSC   O01ej       1     -1.05    15.999
    9960      ob       1    MUSC   O01ek       1     -1.05    15.999
    9961      ob       1    MUSC   O01el       1     -1.05    15.999
    9962      ob       1    MUSC   O01em       1     -1.05    15.999
    9963      ob       1    MUSC   O01en       1     -1.05    15.999
    9964      ob       1    MUSC   O01eo       1     -1.05    15.999
    9965      ob       1    MUSC   O01ep       1     -1.05    15.999
    9966      ob       1    MUSC   O01eq       1     -1.05    15.999
    9967      ob       1    MUSC   O01er       1     -1.05    15.999
    9968      ob       1    MUSC   O01es       1     -1.05    15.999
    9969      ob       1    MUSC   O01et       1     -1.05    15.999
    9970      ob       1    MUSC   O01eu       1     -1.05    15.999
    9971      ob       1    MUSC   O01ev       1     -1.05    15.999
    9972      ob       1    MUSC   O01ew       1     -1.05    15.999
    9973      ob       1    MUSC   O01ex       1     -1.05    15.999
    9974      ob       1    MUSC   O01ey       1     -1.05    15.999
    9975       K       1    MUSC   K006R       1       1.0    39.098
    9976       K       1    MUSC   K006S       1       1.0    39.098
    9977       K       1    MUSC   K006T       1       1.0    39.098
    9978       K       1    MUSC   K006U       1       1.0    39.098
    9979      ao       1    MUSC   Al0HB       1     1.575    26.982
    9980      ao       1    MUSC   Al0HC       1     1.575    26.982
    9981      ao       1    MUSC   Al0HD       1     1.575    26.982
    9982      ao       1    MUSC   Al0HE       1     1.575    26.982
    9983      ao       1    MUSC   Al0HF       1     1.575    26.982
    9984      ao       1    MUSC   Al0HG       1     1.575    26.982
    9985      ao       1    MUSC   Al0HH       1     1.575    26.982
    9986      ao       1    MUSC   Al0HI       1     1.575    26.982
    9987      st       1    MUSC   Si0YL       1       2.1    28.086
    9988      st       1    MUSC   Si0YM       1       2.1    28.086
    9989      st       1    MUSC   Si0YN       1       2.1    28.086
    9990      st       1    MUSC   Si0YO       1       2.1    28.086
    9991      st       1    MUSC   Si0YP       1       2.1    28.086
    9992      st       1    MUSC   Si0YQ       1       2.1    28.086
    9993      st       1    MUSC   Si0YR       1       2.1    28.086
    9994      st       1    MUSC   Si0YS       1       2.1    28.086
    9995      st       1    MUSC   Si0YT       1       2.1    28.086
    9996      st       1    MUSC   Si0YU       1       2.1    28.086
    9997      st       1    MUSC   Si0YV       1       2.1    28.086
    9998      st       1    MUSC   Si0YW       1       2.1    28.086
    9999      st       1    MUSC   Si0YX       1       2.1    28.086
   10000      st       1    MUSC   Si0YY       1       2.1    28.086
   10001      st       1    MUSC   Si0YZ       1       2.1    28.086
   10002      st       1    MUSC   Si0Ya       1       2.1    28.086
   10003      ob       1    MUSC   O01ez       1     -1.05    15.999
   10004      ob       1    MUSC   O01f0       1     -1.05    15.999
   10005      ob       1    MUSC   O01f1       1     -1.05    15.999
   10006      ob       1    MUSC   O01f2       1     -1.05    15.999
   10007      oh       1    MUSC   O01f3       1     -0.95    15.999
   10008      oh       1    MUSC   O01f4       1     -0.95    15.999
   10009      oh       1    MUSC   O01f5       1     -0.95    15.999
   10010      oh       1    MUSC   O01f6       1     -0.95    15.999
   10011      ob       1    MUSC   O01f7       1     -1.05    15.999
   10012      ob       1    MUSC   O01f8       1     -1.05    15.999
   10013      ob       1    MUSC   O01f9       1     -1.05    15.999
   10014      ob       1    MUSC   O01fA       1     -1.05    15.999
   10015      ob       1    MUSC   O01fB       1     -1.05    15.999
   10016      ob       1    MUSC   O01fC       1     -1.05    15.999
   10017      ob       1    MUSC   O01fD       1     -1.05    15.999
   10018      ob       1    MUSC   O01fE       1     -1.05    15.999
   10019      ob       1    MUSC   O01fF       1     -1.05    15.999
   10020      ob       1    MUSC   O01fG       1     -1.05    15.999
   10021      ob       1    MUSC   O01fH       1     -1.05    15.999
   10022      ob       1    MUSC   O01fI       1     -1.05    15.999
   10023      ob       1    MUSC   O01fJ       1     -1.05    15.999
   10024      ob       1    MUSC   O01fK       1     -1.05    15.999
   10025      ob       1    MUSC   O01fL       1     -1.05    15.999
   10026      ob       1    MUSC   O01fM       1     -1.05    15.999
   10027      ob       1    MUSC   O01fN       1     -1.05    15.999
   10028      ob       1    MUSC   O01fO       1     -1.05    15.999
   10029      ob       1    MUSC   O01fP       1     -1.05    15.999
   10030      ob       1    MUSC   O01fQ       1     -1.05    15.999
   10031      oh       1    MUSC   O01fR       1     -0.95    15.999
   10032      oh       1    MUSC   O01fS       1     -0.95    15.999
   10033      oh       1    MUSC   O01fT       1     -0.95    15.999
   10034      oh       1    MUSC   O01fU       1     -0.95    15.999
   10035      ob       1    MUSC   O01fV       1     -1.05    15.999
   10036      ob       1    MUSC   O01fW       1     -1.05    15.999
   10037      ob       1    MUSC   O01fX       1     -1.05    15.999
   10038      ob       1    MUSC   O01fY       1     -1.05    15.999
   10039      ob       1    MUSC   O01fZ       1     -1.05    15.999
   10040      ob       1    MUSC   O01fa       1     -1.05    15.999
   10041      ob       1    MUSC   O01fb       1     -1.05    15.999
   10042      ob       1    MUSC   O01fc       1     -1.05    15.999
   10043      ob       1    MUSC   O01fd       1     -1.05    15.999
   10044      ob       1    MUSC   O01fe       1     -1.05    15.999
   10045      ob       1    MUSC   O01ff       1     -1.05    15.999
   10046      ob       1    MUSC   O01fg       1     -1.05    15.999
   10047      ob       1    MUSC   O01fh       1     -1.05    15.999
   10048      ob       1    MUSC   O01fi       1     -1.05    15.999
   10049      ob       1    MUSC   O01fj       1     -1.05    15.999
   10050      ob       1    MUSC   O01fk       1     -1.05    15.999
   10051       K       1    MUSC   K006V       1       1.0    39.098
   10052       K       1    MUSC   K006W       1       1.0    39.098
   10053      ao       1    MUSC   Al0HJ       1     1.575    26.982
   10054      ao       1    MUSC   Al0HK       1     1.575    26.982
   10055      ao       1    MUSC   Al0HL       1     1.575    26.982
   10056      ao       1    MUSC   Al0HM       1     1.575    26.982
   10057      ao       1    MUSC   Al0HN       1     1.575    26.982
   10058      ao       1    MUSC   Al0HO       1     1.575    26.982
   10059      ao       1    MUSC   Al0HP       1     1.575    26.982
   10060      ao       1    MUSC   Al0HQ       1     1.575    26.982
   10061      st       1    MUSC   Si0Yb       1       2.1    28.086
   10062      st       1    MUSC   Si0Yc       1       2.1    28.086
   10063      st       1    MUSC   Si0Yd       1       2.1    28.086
   10064      st       1    MUSC   Si0Ye       1       2.1    28.086
   10065      st       1    MUSC   Si0Yf       1       2.1    28.086
   10066      st       1    MUSC   Si0Yg       1       2.1    28.086
   10067      st       1    MUSC   Si0Yh       1       2.1    28.086
   10068      st       1    MUSC   Si0Yi       1       2.1    28.086
   10069      st       1    MUSC   Si0Yj       1       2.1    28.086
   10070      st       1    MUSC   Si0Yk       1       2.1    28.086
   10071      st       1    MUSC   Si0Yl       1       2.1    28.086
   10072      st       1    MUSC   Si0Ym       1       2.1    28.086
   10073      st       1    MUSC   Si0Yn       1       2.1    28.086
   10074      st       1    MUSC   Si0Yo       1       2.1    28.086
   10075      st       1    MUSC   Si0Yp       1       2.1    28.086
   10076      st       1    MUSC   Si0Yq       1       2.1    28.086
   10077      ob       1    MUSC   O01fl       1     -1.05    15.999
   10078      ob       1    MUSC   O01fm       1     -1.05    15.999
   10079      ob       1    MUSC   O01fn       1     -1.05    15.999
   10080      ob       1    MUSC   O01fo       1     -1.05    15.999
   10081      oh       1    MUSC   O01fp       1     -0.95    15.999
   10082      oh       1    MUSC   O01fq       1     -0.95    15.999
   10083      oh       1    MUSC   O01fr       1     -0.95    15.999
   10084      oh       1    MUSC   O01fs       1     -0.95    15.999
   10085      ob       1    MUSC   O01ft       1     -1.05    15.999
   10086      ob       1    MUSC   O01fu       1     -1.05    15.999
   10087      ob       1    MUSC   O01fv       1     -1.05    15.999
   10088      ob       1    MUSC   O01fw       1     -1.05    15.999
   10089      ob       1    MUSC   O01fx       1     -1.05    15.999
   10090      ob       1    MUSC   O01fy       1     -1.05    15.999
   10091      ob       1    MUSC   O01fz       1     -1.05    15.999
   10092      ob       1    MUSC   O01g0       1     -1.05    15.999
   10093      ob       1    MUSC   O01g1       1     -1.05    15.999
   10094      ob       1    MUSC   O01g2       1     -1.05    15.999
   10095      ob       1    MUSC   O01g3       1     -1.05    15.999
   10096      ob       1    MUSC   O01g4       1     -1.05    15.999
   10097      ob       1    MUSC   O01g5       1     -1.05    15.999
   10098      ob       1    MUSC   O01g6       1     -1.05    15.999
   10099      ob       1    MUSC   O01g7       1     -1.05    15.999
   10100      ob       1    MUSC   O01g8       1     -1.05    15.999
   10101      ob       1    MUSC   O01g9       1     -1.05    15.999
   10102      ob       1    MUSC   O01gA       1     -1.05    15.999
   10103      ob       1    MUSC   O01gB       1     -1.05    15.999
   10104      ob       1    MUSC   O01gC       1     -1.05    15.999
   10105      oh       1    MUSC   O01gD       1     -0.95    15.999
   10106      oh       1    MUSC   O01gE       1     -0.95    15.999
   10107      oh       1    MUSC   O01gF       1     -0.95    15.999
   10108      oh       1    MUSC   O01gG       1     -0.95    15.999
   10109      ob       1    MUSC   O01gH       1     -1.05    15.999
   10110      ob       1    MUSC   O01gI       1     -1.05    15.999
   10111      ob       1    MUSC   O01gJ       1     -1.05    15.999
   10112      ob       1    MUSC   O01gK       1     -1.05    15.999
   10113      ob       1    MUSC   O01gL       1     -1.05    15.999
   10114      ob       1    MUSC   O01gM       1     -1.05    15.999
   10115      ob       1    MUSC   O01gN       1     -1.05    15.999
   10116      ob       1    MUSC   O01gO       1     -1.05    15.999
   10117      ob       1    MUSC   O01gP       1     -1.05    15.999
   10118      ob       1    MUSC   O01gQ       1     -1.05    15.999
   10119      ob       1    MUSC   O01gR       1     -1.05    15.999
   10120      ob       1    MUSC   O01gS       1     -1.05    15.999
   10121      ob       1    MUSC   O01gT       1     -1.05    15.999
   10122      ob       1    MUSC   O01gU       1     -1.05    15.999
   10123      ob       1    MUSC   O01gV       1     -1.05    15.999
   10124      ob       1    MUSC   O01gW       1     -1.05    15.999
   10125       K       1    MUSC   K006X       1       1.0    39.098
   10126       K       1    MUSC   K006Y       1       1.0    39.098
   10127       K       1    MUSC   K006Z       1       1.0    39.098
   10128       K       1    MUSC   K006a       1       1.0    39.098
   10129      ao       1    MUSC   Al0HR       1     1.575    26.982
   10130      ao       1    MUSC   Al0HS       1     1.575    26.982
   10131      ao       1    MUSC   Al0HT       1     1.575    26.982
   10132      ao       1    MUSC   Al0HU       1     1.575    26.982
   10133      ao       1    MUSC   Al0HV       1     1.575    26.982
   10134      ao       1    MUSC   Al0HW       1     1.575    26.982
   10135      ao       1    MUSC   Al0HX       1     1.575    26.982
   10136      ao       1    MUSC   Al0HY       1     1.575    26.982
   10137      st       1    MUSC   Si0Yr       1       2.1    28.086
   10138      st       1    MUSC   Si0Ys       1       2.1    28.086
   10139      st       1    MUSC   Si0Yt       1       2.1    28.086
   10140      st       1    MUSC   Si0Yu       1       2.1    28.086
   10141      st       1    MUSC   Si0Yv       1       2.1    28.086
   10142      st       1    MUSC   Si0Yw       1       2.1    28.086
   10143      st       1    MUSC   Si0Yx       1       2.1    28.086
   10144      st       1    MUSC   Si0Yy       1       2.1    28.086
   10145      st       1    MUSC   Si0Yz       1       2.1    28.086
   10146      st       1    MUSC   Si0Z0       1       2.1    28.086
   10147      st       1    MUSC   Si0Z1       1       2.1    28.086
   10148      st       1    MUSC   Si0Z2       1       2.1    28.086
   10149      st       1    MUSC   Si0Z3       1       2.1    28.086
   10150      st       1    MUSC   Si0Z4       1       2.1    28.086
   10151      st       1    MUSC   Si0Z5       1       2.1    28.086
   10152      st       1    MUSC   Si0Z6       1       2.1    28.086
   10153      ob       1    MUSC   O01gX       1     -1.05    15.999
   10154      ob       1    MUSC   O01gY       1     -1.05    15.999
   10155      ob       1    MUSC   O01gZ       1     -1.05    15.999
   10156      ob       1    MUSC   O01ga       1     -1.05    15.999
   10157      oh       1    MUSC   O01gb       1     -0.95    15.999
   10158      oh       1    MUSC   O01gc       1     -0.95    15.999
   10159      oh       1    MUSC   O01gd       1     -0.95    15.999
   10160      oh       1    MUSC   O01ge       1     -0.95    15.999
   10161      ob       1    MUSC   O01gf       1     -1.05    15.999
   10162      ob       1    MUSC   O01gg       1     -1.05    15.999
   10163      ob       1    MUSC   O01gh       1     -1.05    15.999
   10164      ob       1    MUSC   O01gi       1     -1.05    15.999
   10165      ob       1    MUSC   O01gj       1     -1.05    15.999
   10166      ob       1    MUSC   O01gk       1     -1.05    15.999
   10167      ob       1    MUSC   O01gl       1     -1.05    15.999
   10168      ob       1    MUSC   O01gm       1     -1.05    15.999
   10169      ob       1    MUSC   O01gn       1     -1.05    15.999
   10170      ob       1    MUSC   O01go       1     -1.05    15.999
   10171      ob       1    MUSC   O01gp       1     -1.05    15.999
   10172      ob       1    MUSC   O01gq       1     -1.05    15.999
   10173      ob       1    MUSC   O01gr       1     -1.05    15.999
   10174      ob       1    MUSC   O01gs       1     -1.05    15.999
   10175      ob       1    MUSC   O01gt       1     -1.05    15.999
   10176      ob       1    MUSC   O01gu       1     -1.05    15.999
   10177      ob       1    MUSC   O01gv       1     -1.05    15.999
   10178      ob       1    MUSC   O01gw       1     -1.05    15.999
   10179      ob       1    MUSC   O01gx       1     -1.05    15.999
   10180      ob       1    MUSC   O01gy       1     -1.05    15.999
   10181      oh       1    MUSC   O01gz       1     -0.95    15.999
   10182      oh       1    MUSC   O01h0       1     -0.95    15.999
   10183      oh       1    MUSC   O01h1       1     -0.95    15.999
   10184      oh       1    MUSC   O01h2       1     -0.95    15.999
   10185      ob       1    MUSC   O01h3       1     -1.05    15.999
   10186      ob       1    MUSC   O01h4       1     -1.05    15.999
   10187      ob       1    MUSC   O01h5       1     -1.05    15.999
   10188      ob       1    MUSC   O01h6       1     -1.05    15.999
   10189      ob       1    MUSC   O01h7       1     -1.05    15.999
   10190      ob       1    MUSC   O01h8       1     -1.05    15.999
   10191      ob       1    MUSC   O01h9       1     -1.05    15.999
   10192      ob       1    MUSC   O01hA       1     -1.05    15.999
   10193      ob       1    MUSC   O01hB       1     -1.05    15.999
   10194      ob       1    MUSC   O01hC       1     -1.05    15.999
   10195      ob       1    MUSC   O01hD       1     -1.05    15.999
   10196      ob       1    MUSC   O01hE       1     -1.05    15.999
   10197      ob       1    MUSC   O01hF       1     -1.05    15.999
   10198      ob       1    MUSC   O01hG       1     -1.05    15.999
   10199      ob       1    MUSC   O01hH       1     -1.05    15.999
   10200      ob       1    MUSC   O01hI       1     -1.05    15.999
   10201       K       1    MUSC   K006b       1       1.0    39.098
   10202       K       1    MUSC   K006c       1       1.0    39.098
   10203      ao       1    MUSC   Al0HZ       1     1.575    26.982
   10204      ao       1    MUSC   Al0Ha       1     1.575    26.982
   10205      ao       1    MUSC   Al0Hb       1     1.575    26.982
   10206      ao       1    MUSC   Al0Hc       1     1.575    26.982
   10207      ao       1    MUSC   Al0Hd       1     1.575    26.982
   10208      ao       1    MUSC   Al0He       1     1.575    26.982
   10209      ao       1    MUSC   Al0Hf       1     1.575    26.982
   10210      ao       1    MUSC   Al0Hg       1     1.575    26.982
   10211      st       1    MUSC   Si0Z7       1       2.1    28.086
   10212      st       1    MUSC   Si0Z8       1       2.1    28.086
   10213      st       1    MUSC   Si0Z9       1       2.1    28.086
   10214      st       1    MUSC   Si0ZA       1       2.1    28.086
   10215      st       1    MUSC   Si0ZB       1       2.1    28.086
   10216      st       1    MUSC   Si0ZC       1       2.1    28.086
   10217      st       1    MUSC   Si0ZD       1       2.1    28.086
   10218      st       1    MUSC   Si0ZE       1       2.1    28.086
   10219      st       1    MUSC   Si0ZF       1       2.1    28.086
   10220      st       1    MUSC   Si0ZG       1       2.1    28.086
   10221      st       1    MUSC   Si0ZH       1       2.1    28.086
   10222      st       1    MUSC   Si0ZI       1       2.1    28.086
   10223      st       1    MUSC   Si0ZJ       1       2.1    28.086
   10224      st       1    MUSC   Si0ZK       1       2.1    28.086
   10225      st       1    MUSC   Si0ZL       1       2.1    28.086
   10226      st       1    MUSC   Si0ZM       1       2.1    28.086
   10227      ob       1    MUSC   O01hJ       1     -1.05    15.999
   10228      ob       1    MUSC   O01hK       1     -1.05    15.999
   10229      ob       1    MUSC   O01hL       1     -1.05    15.999
   10230      ob       1    MUSC   O01hM       1     -1.05    15.999
   10231      oh       1    MUSC   O01hN       1     -0.95    15.999
   10232      oh       1    MUSC   O01hO       1     -0.95    15.999
   10233      oh       1    MUSC   O01hP       1     -0.95    15.999
   10234      oh       1    MUSC   O01hQ       1     -0.95    15.999
   10235      ob       1    MUSC   O01hR       1     -1.05    15.999
   10236      ob       1    MUSC   O01hS       1     -1.05    15.999
   10237      ob       1    MUSC   O01hT       1     -1.05    15.999
   10238      ob       1    MUSC   O01hU       1     -1.05    15.999
   10239      ob       1    MUSC   O01hV       1     -1.05    15.999
   10240      ob       1    MUSC   O01hW       1     -1.05    15.999
   10241      ob       1    MUSC   O01hX       1     -1.05    15.999
   10242      ob       1    MUSC   O01hY       1     -1.05    15.999
   10243      ob       1    MUSC   O01hZ       1     -1.05    15.999
   10244      ob       1    MUSC   O01ha       1     -1.05    15.999
   10245      ob       1    MUSC   O01hb       1     -1.05    15.999
   10246      ob       1    MUSC   O01hc       1     -1.05    15.999
   10247      ob       1    MUSC   O01hd       1     -1.05    15.999
   10248      ob       1    MUSC   O01he       1     -1.05    15.999
   10249      ob       1    MUSC   O01hf       1     -1.05    15.999
   10250      ob       1    MUSC   O01hg       1     -1.05    15.999
   10251      ob       1    MUSC   O01hh       1     -1.05    15.999
   10252      ob       1    MUSC   O01hi       1     -1.05    15.999
   10253      ob       1    MUSC   O01hj       1     -1.05    15.999
   10254      ob       1    MUSC   O01hk       1     -1.05    15.999
   10255      oh       1    MUSC   O01hl       1     -0.95    15.999
   10256      oh       1    MUSC   O01hm       1     -0.95    15.999
   10257      oh       1    MUSC   O01hn       1     -0.95    15.999
   10258      oh       1    MUSC   O01ho       1     -0.95    15.999
   10259      ob       1    MUSC   O01hp       1     -1.05    15.999
   10260      ob       1    MUSC   O01hq       1     -1.05    15.999
   10261      ob       1    MUSC   O01hr       1     -1.05    15.999
   10262      ob       1    MUSC   O01hs       1     -1.05    15.999
   10263      ob       1    MUSC   O01ht       1     -1.05    15.999
   10264      ob       1    MUSC   O01hu       1     -1.05    15.999
   10265      ob       1    MUSC   O01hv       1     -1.05    15.999
   10266      ob       1    MUSC   O01hw       1     -1.05    15.999
   10267      ob       1    MUSC   O01hx       1     -1.05    15.999
   10268      ob       1    MUSC   O01hy       1     -1.05    15.999
   10269      ob       1    MUSC   O01hz       1     -1.05    15.999
   10270      ob       1    MUSC   O01i0       1     -1.05    15.999
   10271      ob       1    MUSC   O01i1       1     -1.05    15.999
   10272      ob       1    MUSC   O01i2       1     -1.05    15.999
   10273      ob       1    MUSC   O01i3       1     -1.05    15.999
   10274      ob       1    MUSC   O01i4       1     -1.05    15.999
   10275       K       1    MUSC   K006d       1       1.0    39.098
   10276       K       1    MUSC   K006e       1       1.0    39.098
   10277       K       1    MUSC   K006f       1       1.0    39.098
   10278       K       1    MUSC   K006g       1       1.0    39.098
   10279      ao       1    MUSC   Al0Hh       1     1.575    26.982
   10280      ao       1    MUSC   Al0Hi       1     1.575    26.982
   10281      ao       1    MUSC   Al0Hj       1     1.575    26.982
   10282      ao       1    MUSC   Al0Hk       1     1.575    26.982
   10283      ao       1    MUSC   Al0Hl       1     1.575    26.982
   10284      ao       1    MUSC   Al0Hm       1     1.575    26.982
   10285      ao       1    MUSC   Al0Hn       1     1.575    26.982
   10286      ao       1    MUSC   Al0Ho       1     1.575    26.982
   10287      st       1    MUSC   Si0ZN       1       2.1    28.086
   10288      st       1    MUSC   Si0ZO       1       2.1    28.086
   10289      st       1    MUSC   Si0ZP       1       2.1    28.086
   10290      st       1    MUSC   Si0ZQ       1       2.1    28.086
   10291      st       1    MUSC   Si0ZR       1       2.1    28.086
   10292      st       1    MUSC   Si0ZS       1       2.1    28.086
   10293      st       1    MUSC   Si0ZT       1       2.1    28.086
   10294      st       1    MUSC   Si0ZU       1       2.1    28.086
   10295      st       1    MUSC   Si0ZV       1       2.1    28.086
   10296      st       1    MUSC   Si0ZW       1       2.1    28.086
   10297      st       1    MUSC   Si0ZX       1       2.1    28.086
   10298      st       1    MUSC   Si0ZY       1       2.1    28.086
   10299      st       1    MUSC   Si0ZZ       1       2.1    28.086
   10300      st       1    MUSC   Si0Za       1       2.1    28.086
   10301      st       1    MUSC   Si0Zb       1       2.1    28.086
   10302      st       1    MUSC   Si0Zc       1       2.1    28.086
   10303      ob       1    MUSC   O01i5       1     -1.05    15.999
   10304      ob       1    MUSC   O01i6       1     -1.05    15.999
   10305      ob       1    MUSC   O01i7       1     -1.05    15.999
   10306      ob       1    MUSC   O01i8       1     -1.05    15.999
   10307      oh       1    MUSC   O01i9       1     -0.95    15.999
   10308      oh       1    MUSC   O01iA       1     -0.95    15.999
   10309      oh       1    MUSC   O01iB       1     -0.95    15.999
   10310      oh       1    MUSC   O01iC       1     -0.95    15.999
   10311      ob       1    MUSC   O01iD       1     -1.05    15.999
   10312      ob       1    MUSC   O01iE       1     -1.05    15.999
   10313      ob       1    MUSC   O01iF       1     -1.05    15.999
   10314      ob       1    MUSC   O01iG       1     -1.05    15.999
   10315      ob       1    MUSC   O01iH       1     -1.05    15.999
   10316      ob       1    MUSC   O01iI       1     -1.05    15.999
   10317      ob       1    MUSC   O01iJ       1     -1.05    15.999
   10318      ob       1    MUSC   O01iK       1     -1.05    15.999
   10319      ob       1    MUSC   O01iL       1     -1.05    15.999
   10320      ob       1    MUSC   O01iM       1     -1.05    15.999
   10321      ob       1    MUSC   O01iN       1     -1.05    15.999
   10322      ob       1    MUSC   O01iO       1     -1.05    15.999
   10323      ob       1    MUSC   O01iP       1     -1.05    15.999
   10324      ob       1    MUSC   O01iQ       1     -1.05    15.999
   10325      ob       1    MUSC   O01iR       1     -1.05    15.999
   10326      ob       1    MUSC   O01iS       1     -1.05    15.999
   10327      ob       1    MUSC   O01iT       1     -1.05    15.999
   10328      ob       1    MUSC   O01iU       1     -1.05    15.999
   10329      ob       1    MUSC   O01iV       1     -1.05    15.999
   10330      ob       1    MUSC   O01iW       1     -1.05    15.999
   10331      oh       1    MUSC   O01iX       1     -0.95    15.999
   10332      oh       1    MUSC   O01iY       1     -0.95    15.999
   10333      oh       1    MUSC   O01iZ       1     -0.95    15.999
   10334      oh       1    MUSC   O01ia       1     -0.95    15.999
   10335      ob       1    MUSC   O01ib       1     -1.05    15.999
   10336      ob       1    MUSC   O01ic       1     -1.05    15.999
   10337      ob       1    MUSC   O01id       1     -1.05    15.999
   10338      ob       1    MUSC   O01ie       1     -1.05    15.999
   10339      ob       1    MUSC   O01if       1     -1.05    15.999
   10340      ob       1    MUSC   O01ig       1     -1.05    15.999
   10341      ob       1    MUSC   O01ih       1     -1.05    15.999
   10342      ob       1    MUSC   O01ii       1     -1.05    15.999
   10343      ob       1    MUSC   O01ij       1     -1.05    15.999
   10344      ob       1    MUSC   O01ik       1     -1.05    15.999
   10345      ob       1    MUSC   O01il       1     -1.05    15.999
   10346      ob       1    MUSC   O01im       1     -1.05    15.999
   10347      ob       1    MUSC   O01in       1     -1.05    15.999
   10348      ob       1    MUSC   O01io       1     -1.05    15.999
   10349      ob       1    MUSC   O01ip       1     -1.05    15.999
   10350      ob       1    MUSC   O01iq       1     -1.05    15.999
   10351       K       1    MUSC   K006h       1       1.0    39.098
   10352       K       1    MUSC   K006i       1       1.0    39.098
   10353      ao       1    MUSC   Al0Hp       1     1.575    26.982
   10354      ao       1    MUSC   Al0Hq       1     1.575    26.982
   10355      ao       1    MUSC   Al0Hr       1     1.575    26.982
   10356      ao       1    MUSC   Al0Hs       1     1.575    26.982
   10357      ao       1    MUSC   Al0Ht       1     1.575    26.982
   10358      ao       1    MUSC   Al0Hu       1     1.575    26.982
   10359      ao       1    MUSC   Al0Hv       1     1.575    26.982
   10360      ao       1    MUSC   Al0Hw       1     1.575    26.982
   10361      st       1    MUSC   Si0Zd       1       2.1    28.086
   10362      st       1    MUSC   Si0Ze       1       2.1    28.086
   10363      st       1    MUSC   Si0Zf       1       2.1    28.086
   10364      st       1    MUSC   Si0Zg       1       2.1    28.086
   10365      st       1    MUSC   Si0Zh       1       2.1    28.086
   10366      st       1    MUSC   Si0Zi       1       2.1    28.086
   10367      st       1    MUSC   Si0Zj       1       2.1    28.086
   10368      st       1    MUSC   Si0Zk       1       2.1    28.086
   10369      st       1    MUSC   Si0Zl       1       2.1    28.086
   10370      st       1    MUSC   Si0Zm       1       2.1    28.086
   10371      st       1    MUSC   Si0Zn       1       2.1    28.086
   10372      st       1    MUSC   Si0Zo       1       2.1    28.086
   10373      st       1    MUSC   Si0Zp       1       2.1    28.086
   10374      st       1    MUSC   Si0Zq       1       2.1    28.086
   10375      st       1    MUSC   Si0Zr       1       2.1    28.086
   10376      st       1    MUSC   Si0Zs       1       2.1    28.086
   10377      ob       1    MUSC   O01ir       1     -1.05    15.999
   10378      ob       1    MUSC   O01is       1     -1.05    15.999
   10379      ob       1    MUSC   O01it       1     -1.05    15.999
   10380      ob       1    MUSC   O01iu       1     -1.05    15.999
   10381      oh       1    MUSC   O01iv       1     -0.95    15.999
   10382      oh       1    MUSC   O01iw       1     -0.95    15.999
   10383      oh       1    MUSC   O01ix       1     -0.95    15.999
   10384      oh       1    MUSC   O01iy       1     -0.95    15.999
   10385      ob       1    MUSC   O01iz       1     -1.05    15.999
   10386      ob       1    MUSC   O01j0       1     -1.05    15.999
   10387      ob       1    MUSC   O01j1       1     -1.05    15.999
   10388      ob       1    MUSC   O01j2       1     -1.05    15.999
   10389      ob       1    MUSC   O01j3       1     -1.05    15.999
   10390      ob       1    MUSC   O01j4       1     -1.05    15.999
   10391      ob       1    MUSC   O01j5       1     -1.05    15.999
   10392      ob       1    MUSC   O01j6       1     -1.05    15.999
   10393      ob       1    MUSC   O01j7       1     -1.05    15.999
   10394      ob       1    MUSC   O01j8       1     -1.05    15.999
   10395      ob       1    MUSC   O01j9       1     -1.05    15.999
   10396      ob       1    MUSC   O01jA       1     -1.05    15.999
   10397      ob       1    MUSC   O01jB       1     -1.05    15.999
   10398      ob       1    MUSC   O01jC       1     -1.05    15.999
   10399      ob       1    MUSC   O01jD       1     -1.05    15.999
   10400      ob       1    MUSC   O01jE       1     -1.05    15.999
   10401      ob       1    MUSC   O01jF       1     -1.05    15.999
   10402      ob       1    MUSC   O01jG       1     -1.05    15.999
   10403      ob       1    MUSC   O01jH       1     -1.05    15.999
   10404      ob       1    MUSC   O01jI       1     -1.05    15.999
   10405      oh       1    MUSC   O01jJ       1     -0.95    15.999
   10406      oh       1    MUSC   O01jK       1     -0.95    15.999
   10407      oh       1    MUSC   O01jL       1     -0.95    15.999
   10408      oh       1    MUSC   O01jM       1     -0.95    15.999
   10409      ob       1    MUSC   O01jN       1     -1.05    15.999
   10410      ob       1    MUSC   O01jO       1     -1.05    15.999
   10411      ob       1    MUSC   O01jP       1     -1.05    15.999
   10412      ob       1    MUSC   O01jQ       1     -1.05    15.999
   10413      ob       1    MUSC   O01jR       1     -1.05    15.999
   10414      ob       1    MUSC   O01jS       1     -1.05    15.999
   10415      ob       1    MUSC   O01jT       1     -1.05    15.999
   10416      ob       1    MUSC   O01jU       1     -1.05    15.999
   10417      ob       1    MUSC   O01jV       1     -1.05    15.999
   10418      ob       1    MUSC   O01jW       1     -1.05    15.999
   10419      ob       1    MUSC   O01jX       1     -1.05    15.999
   10420      ob       1    MUSC   O01jY       1     -1.05    15.999
   10421      ob       1    MUSC   O01jZ       1     -1.05    15.999
   10422      ob       1    MUSC   O01ja       1     -1.05    15.999
   10423      ob       1    MUSC   O01jb       1     -1.05    15.999
   10424      ob       1    MUSC   O01jc       1     -1.05    15.999
   10425       K       1    MUSC   K006j       1       1.0    39.098
   10426       K       1    MUSC   K006k       1       1.0    39.098
   10427       K       1    MUSC   K006l       1       1.0    39.098
   10428       K       1    MUSC   K006m       1       1.0    39.098
   10429      ao       1    MUSC   Al0Hx       1     1.575    26.982
   10430      ao       1    MUSC   Al0Hy       1     1.575    26.982
   10431      ao       1    MUSC   Al0Hz       1     1.575    26.982
   10432      ao       1    MUSC   Al0I0       1     1.575    26.982
   10433      ao       1    MUSC   Al0I1       1     1.575    26.982
   10434      ao       1    MUSC   Al0I2       1     1.575    26.982
   10435      ao       1    MUSC   Al0I3       1     1.575    26.982
   10436      ao       1    MUSC   Al0I4       1     1.575    26.982
   10437      st       1    MUSC   Si0Zt       1       2.1    28.086
   10438      st       1    MUSC   Si0Zu       1       2.1    28.086
   10439      st       1    MUSC   Si0Zv       1       2.1    28.086
   10440      st       1    MUSC   Si0Zw       1       2.1    28.086
   10441      st       1    MUSC   Si0Zx       1       2.1    28.086
   10442      st       1    MUSC   Si0Zy       1       2.1    28.086
   10443      st       1    MUSC   Si0Zz       1       2.1    28.086
   10444      st       1    MUSC   Si0a0       1       2.1    28.086
   10445      st       1    MUSC   Si0a1       1       2.1    28.086
   10446      st       1    MUSC   Si0a2       1       2.1    28.086
   10447      st       1    MUSC   Si0a3       1       2.1    28.086
   10448      st       1    MUSC   Si0a4       1       2.1    28.086
   10449      st       1    MUSC   Si0a5       1       2.1    28.086
   10450      st       1    MUSC   Si0a6       1       2.1    28.086
   10451      st       1    MUSC   Si0a7       1       2.1    28.086
   10452      st       1    MUSC   Si0a8       1       2.1    28.086
   10453      ob       1    MUSC   O01jd       1     -1.05    15.999
   10454      ob       1    MUSC   O01je       1     -1.05    15.999
   10455      ob       1    MUSC   O01jf       1     -1.05    15.999
   10456      ob       1    MUSC   O01jg       1     -1.05    15.999
   10457      oh       1    MUSC   O01jh       1     -0.95    15.999
   10458      oh       1    MUSC   O01ji       1     -0.95    15.999
   10459      oh       1    MUSC   O01jj       1     -0.95    15.999
   10460      oh       1    MUSC   O01jk       1     -0.95    15.999
   10461      ob       1    MUSC   O01jl       1     -1.05    15.999
   10462      ob       1    MUSC   O01jm       1     -1.05    15.999
   10463      ob       1    MUSC   O01jn       1     -1.05    15.999
   10464      ob       1    MUSC   O01jo       1     -1.05    15.999
   10465      ob       1    MUSC   O01jp       1     -1.05    15.999
   10466      ob       1    MUSC   O01jq       1     -1.05    15.999
   10467      ob       1    MUSC   O01jr       1     -1.05    15.999
   10468      ob       1    MUSC   O01js       1     -1.05    15.999
   10469      ob       1    MUSC   O01jt       1     -1.05    15.999
   10470      ob       1    MUSC   O01ju       1     -1.05    15.999
   10471      ob       1    MUSC   O01jv       1     -1.05    15.999
   10472      ob       1    MUSC   O01jw       1     -1.05    15.999
   10473      ob       1    MUSC   O01jx       1     -1.05    15.999
   10474      ob       1    MUSC   O01jy       1     -1.05    15.999
   10475      ob       1    MUSC   O01jz       1     -1.05    15.999
   10476      ob       1    MUSC   O01k0       1     -1.05    15.999
   10477      ob       1    MUSC   O01k1       1     -1.05    15.999
   10478      ob       1    MUSC   O01k2       1     -1.05    15.999
   10479      ob       1    MUSC   O01k3       1     -1.05    15.999
   10480      ob       1    MUSC   O01k4       1     -1.05    15.999
   10481      oh       1    MUSC   O01k5       1     -0.95    15.999
   10482      oh       1    MUSC   O01k6       1     -0.95    15.999
   10483      oh       1    MUSC   O01k7       1     -0.95    15.999
   10484      oh       1    MUSC   O01k8       1     -0.95    15.999
   10485      ob       1    MUSC   O01k9       1     -1.05    15.999
   10486      ob       1    MUSC   O01kA       1     -1.05    15.999
   10487      ob       1    MUSC   O01kB       1     -1.05    15.999
   10488      ob       1    MUSC   O01kC       1     -1.05    15.999
   10489      ob       1    MUSC   O01kD       1     -1.05    15.999
   10490      ob       1    MUSC   O01kE       1     -1.05    15.999
   10491      ob       1    MUSC   O01kF       1     -1.05    15.999
   10492      ob       1    MUSC   O01kG       1     -1.05    15.999
   10493      ob       1    MUSC   O01kH       1     -1.05    15.999
   10494      ob       1    MUSC   O01kI       1     -1.05    15.999
   10495      ob       1    MUSC   O01kJ       1     -1.05    15.999
   10496      ob       1    MUSC   O01kK       1     -1.05    15.999
   10497      ob       1    MUSC   O01kL       1     -1.05    15.999
   10498      ob       1    MUSC   O01kM       1     -1.05    15.999
   10499      ob       1    MUSC   O01kN       1     -1.05    15.999
   10500      ob       1    MUSC   O01kO       1     -1.05    15.999
   10501       K       1    MUSC   K006n       1       1.0    39.098
   10502       K       1    MUSC   K006o       1       1.0    39.098
   10503      ao       1    MUSC   Al0I5       1     1.575    26.982
   10504      ao       1    MUSC   Al0I6       1     1.575    26.982
   10505      ao       1    MUSC   Al0I7       1     1.575    26.982
   10506      ao       1    MUSC   Al0I8       1     1.575    26.982
   10507      ao       1    MUSC   Al0I9       1     1.575    26.982
   10508      ao       1    MUSC   Al0IA       1     1.575    26.982
   10509      ao       1    MUSC   Al0IB       1     1.575    26.982
   10510      ao       1    MUSC   Al0IC       1     1.575    26.982
   10511      st       1    MUSC   Si0a9       1       2.1    28.086
   10512      st       1    MUSC   Si0aA       1       2.1    28.086
   10513      st       1    MUSC   Si0aB       1       2.1    28.086
   10514      st       1    MUSC   Si0aC       1       2.1    28.086
   10515      st       1    MUSC   Si0aD       1       2.1    28.086
   10516      st       1    MUSC   Si0aE       1       2.1    28.086
   10517      st       1    MUSC   Si0aF       1       2.1    28.086
   10518      st       1    MUSC   Si0aG       1       2.1    28.086
   10519      st       1    MUSC   Si0aH       1       2.1    28.086
   10520      st       1    MUSC   Si0aI       1       2.1    28.086
   10521      st       1    MUSC   Si0aJ       1       2.1    28.086
   10522      st       1    MUSC   Si0aK       1       2.1    28.086
   10523      st       1    MUSC   Si0aL       1       2.1    28.086
   10524      st       1    MUSC   Si0aM       1       2.1    28.086
   10525      st       1    MUSC   Si0aN       1       2.1    28.086
   10526      st       1    MUSC   Si0aO       1       2.1    28.086
   10527      ob       1    MUSC   O01kP       1     -1.05    15.999
   10528      ob       1    MUSC   O01kQ       1     -1.05    15.999
   10529      ob       1    MUSC   O01kR       1     -1.05    15.999
   10530      ob       1    MUSC   O01kS       1     -1.05    15.999
   10531      oh       1    MUSC   O01kT       1     -0.95    15.999
   10532      oh       1    MUSC   O01kU       1     -0.95    15.999
   10533      oh       1    MUSC   O01kV       1     -0.95    15.999
   10534      oh       1    MUSC   O01kW       1     -0.95    15.999
   10535      ob       1    MUSC   O01kX       1     -1.05    15.999
   10536      ob       1    MUSC   O01kY       1     -1.05    15.999
   10537      ob       1    MUSC   O01kZ       1     -1.05    15.999
   10538      ob       1    MUSC   O01ka       1     -1.05    15.999
   10539      ob       1    MUSC   O01kb       1     -1.05    15.999
   10540      ob       1    MUSC   O01kc       1     -1.05    15.999
   10541      ob       1    MUSC   O01kd       1     -1.05    15.999
   10542      ob       1    MUSC   O01ke       1     -1.05    15.999
   10543      ob       1    MUSC   O01kf       1     -1.05    15.999
   10544      ob       1    MUSC   O01kg       1     -1.05    15.999
   10545      ob       1    MUSC   O01kh       1     -1.05    15.999
   10546      ob       1    MUSC   O01ki       1     -1.05    15.999
   10547      ob       1    MUSC   O01kj       1     -1.05    15.999
   10548      ob       1    MUSC   O01kk       1     -1.05    15.999
   10549      ob       1    MUSC   O01kl       1     -1.05    15.999
   10550      ob       1    MUSC   O01km       1     -1.05    15.999
   10551      ob       1    MUSC   O01kn       1     -1.05    15.999
   10552      ob       1    MUSC   O01ko       1     -1.05    15.999
   10553      ob       1    MUSC   O01kp       1     -1.05    15.999
   10554      ob       1    MUSC   O01kq       1     -1.05    15.999
   10555      oh       1    MUSC   O01kr       1     -0.95    15.999
   10556      oh       1    MUSC   O01ks       1     -0.95    15.999
   10557      oh       1    MUSC   O01kt       1     -0.95    15.999
   10558      oh       1    MUSC   O01ku       1     -0.95    15.999
   10559      ob       1    MUSC   O01kv       1     -1.05    15.999
   10560      ob       1    MUSC   O01kw       1     -1.05    15.999
   10561      ob       1    MUSC   O01kx       1     -1.05    15.999
   10562      ob       1    MUSC   O01ky       1     -1.05    15.999
   10563      ob       1    MUSC   O01kz       1     -1.05    15.999
   10564      ob       1    MUSC   O01l0       1     -1.05    15.999
   10565      ob       1    MUSC   O01l1       1     -1.05    15.999
   10566      ob       1    MUSC   O01l2       1     -1.05    15.999
   10567      ob       1    MUSC   O01l3       1     -1.05    15.999
   10568      ob       1    MUSC   O01l4       1     -1.05    15.999
   10569      ob       1    MUSC   O01l5       1     -1.05    15.999
   10570      ob       1    MUSC   O01l6       1     -1.05    15.999
   10571      ob       1    MUSC   O01l7       1     -1.05    15.999
   10572      ob       1    MUSC   O01l8       1     -1.05    15.999
   10573      ob       1    MUSC   O01l9       1     -1.05    15.999
   10574      ob       1    MUSC   O01lA       1     -1.05    15.999
   10575       K       1    MUSC   K006p       1       1.0    39.098
   10576       K       1    MUSC   K006q       1       1.0    39.098
   10577       K       1    MUSC   K006r       1       1.0    39.098
   10578       K       1    MUSC   K006s       1       1.0    39.098
   10579      ao       1    MUSC   Al0ID       1     1.575    26.982
   10580      ao       1    MUSC   Al0IE       1     1.575    26.982
   10581      ao       1    MUSC   Al0IF       1     1.575    26.982
   10582      ao       1    MUSC   Al0IG       1     1.575    26.982
   10583      ao       1    MUSC   Al0IH       1     1.575    26.982
   10584      ao       1    MUSC   Al0II       1     1.575    26.982
   10585      ao       1    MUSC   Al0IJ       1     1.575    26.982
   10586      ao       1    MUSC   Al0IK       1     1.575    26.982
   10587      st       1    MUSC   Si0aP       1       2.1    28.086
   10588      st       1    MUSC   Si0aQ       1       2.1    28.086
   10589      st       1    MUSC   Si0aR       1       2.1    28.086
   10590      st       1    MUSC   Si0aS       1       2.1    28.086
   10591      st       1    MUSC   Si0aT       1       2.1    28.086
   10592      st       1    MUSC   Si0aU       1       2.1    28.086
   10593      st       1    MUSC   Si0aV       1       2.1    28.086
   10594      st       1    MUSC   Si0aW       1       2.1    28.086
   10595      st       1    MUSC   Si0aX       1       2.1    28.086
   10596      st       1    MUSC   Si0aY       1       2.1    28.086
   10597      st       1    MUSC   Si0aZ       1       2.1    28.086
   10598      st       1    MUSC   Si0aa       1       2.1    28.086
   10599      st       1    MUSC   Si0ab       1       2.1    28.086
   10600      st       1    MUSC   Si0ac       1       2.1    28.086
   10601      st       1    MUSC   Si0ad       1       2.1    28.086
   10602      st       1    MUSC   Si0ae       1       2.1    28.086
   10603      ob       1    MUSC   O01lB       1     -1.05    15.999
   10604      ob       1    MUSC   O01lC       1     -1.05    15.999
   10605      ob       1    MUSC   O01lD       1     -1.05    15.999
   10606      ob       1    MUSC   O01lE       1     -1.05    15.999
   10607      oh       1    MUSC   O01lF       1     -0.95    15.999
   10608      oh       1    MUSC   O01lG       1     -0.95    15.999
   10609      oh       1    MUSC   O01lH       1     -0.95    15.999
   10610      oh       1    MUSC   O01lI       1     -0.95    15.999
   10611      ob       1    MUSC   O01lJ       1     -1.05    15.999
   10612      ob       1    MUSC   O01lK       1     -1.05    15.999
   10613      ob       1    MUSC   O01lL       1     -1.05    15.999
   10614      ob       1    MUSC   O01lM       1     -1.05    15.999
   10615      ob       1    MUSC   O01lN       1     -1.05    15.999
   10616      ob       1    MUSC   O01lO       1     -1.05    15.999
   10617      ob       1    MUSC   O01lP       1     -1.05    15.999
   10618      ob       1    MUSC   O01lQ       1     -1.05    15.999
   10619      ob       1    MUSC   O01lR       1     -1.05    15.999
   10620      ob       1    MUSC   O01lS       1     -1.05    15.999
   10621      ob       1    MUSC   O01lT       1     -1.05    15.999
   10622      ob       1    MUSC   O01lU       1     -1.05    15.999
   10623      ob       1    MUSC   O01lV       1     -1.05    15.999
   10624      ob       1    MUSC   O01lW       1     -1.05    15.999
   10625      ob       1    MUSC   O01lX       1     -1.05    15.999
   10626      ob       1    MUSC   O01lY       1     -1.05    15.999
   10627      ob       1    MUSC   O01lZ       1     -1.05    15.999
   10628      ob       1    MUSC   O01la       1     -1.05    15.999
   10629      ob       1    MUSC   O01lb       1     -1.05    15.999
   10630      ob       1    MUSC   O01lc       1     -1.05    15.999
   10631      oh       1    MUSC   O01ld       1     -0.95    15.999
   10632      oh       1    MUSC   O01le       1     -0.95    15.999
   10633      oh       1    MUSC   O01lf       1     -0.95    15.999
   10634      oh       1    MUSC   O01lg       1     -0.95    15.999
   10635      ob       1    MUSC   O01lh       1     -1.05    15.999
   10636      ob       1    MUSC   O01li       1     -1.05    15.999
   10637      ob       1    MUSC   O01lj       1     -1.05    15.999
   10638      ob       1    MUSC   O01lk       1     -1.05    15.999
   10639      ob       1    MUSC   O01ll       1     -1.05    15.999
   10640      ob       1    MUSC   O01lm       1     -1.05    15.999
   10641      ob       1    MUSC   O01ln       1     -1.05    15.999
   10642      ob       1    MUSC   O01lo       1     -1.05    15.999
   10643      ob       1    MUSC   O01lp       1     -1.05    15.999
   10644      ob       1    MUSC   O01lq       1     -1.05    15.999
   10645      ob       1    MUSC   O01lr       1     -1.05    15.999
   10646      ob       1    MUSC   O01ls       1     -1.05    15.999
   10647      ob       1    MUSC   O01lt       1     -1.05    15.999
   10648      ob       1    MUSC   O01lu       1     -1.05    15.999
   10649      ob       1    MUSC   O01lv       1     -1.05    15.999
   10650      ob       1    MUSC   O01lw       1     -1.05    15.999
   10651       K       1    MUSC   K006t       1       1.0    39.098
   10652       K       1    MUSC   K006u       1       1.0    39.098
   10653      ao       1    MUSC   Al0IL       1     1.575    26.982
   10654      ao       1    MUSC   Al0IM       1     1.575    26.982
   10655      ao       1    MUSC   Al0IN       1     1.575    26.982
   10656      ao       1    MUSC   Al0IO       1     1.575    26.982
   10657      ao       1    MUSC   Al0IP       1     1.575    26.982
   10658      ao       1    MUSC   Al0IQ       1     1.575    26.982
   10659      ao       1    MUSC   Al0IR       1     1.575    26.982
   10660      ao       1    MUSC   Al0IS       1     1.575    26.982
   10661      st       1    MUSC   Si0af       1       2.1    28.086
   10662      st       1    MUSC   Si0ag       1       2.1    28.086
   10663      st       1    MUSC   Si0ah       1       2.1    28.086
   10664      st       1    MUSC   Si0ai       1       2.1    28.086
   10665      st       1    MUSC   Si0aj       1       2.1    28.086
   10666      st       1    MUSC   Si0ak       1       2.1    28.086
   10667      st       1    MUSC   Si0al       1       2.1    28.086
   10668      st       1    MUSC   Si0am       1       2.1    28.086
   10669      st       1    MUSC   Si0an       1       2.1    28.086
   10670      st       1    MUSC   Si0ao       1       2.1    28.086
   10671      st       1    MUSC   Si0ap       1       2.1    28.086
   10672      st       1    MUSC   Si0aq       1       2.1    28.086
   10673      st       1    MUSC   Si0ar       1       2.1    28.086
   10674      st       1    MUSC   Si0as       1       2.1    28.086
   10675      st       1    MUSC   Si0at       1       2.1    28.086
   10676      st       1    MUSC   Si0au       1       2.1    28.086
   10677      ob       1    MUSC   O01lx       1     -1.05    15.999
   10678      ob       1    MUSC   O01ly       1     -1.05    15.999
   10679      ob       1    MUSC   O01lz       1     -1.05    15.999
   10680      ob       1    MUSC   O01m0       1     -1.05    15.999
   10681      oh       1    MUSC   O01m1       1     -0.95    15.999
   10682      oh       1    MUSC   O01m2       1     -0.95    15.999
   10683      oh       1    MUSC   O01m3       1     -0.95    15.999
   10684      oh       1    MUSC   O01m4       1     -0.95    15.999
   10685      ob       1    MUSC   O01m5       1     -1.05    15.999
   10686      ob       1    MUSC   O01m6       1     -1.05    15.999
   10687      ob       1    MUSC   O01m7       1     -1.05    15.999
   10688      ob       1    MUSC   O01m8       1     -1.05    15.999
   10689      ob       1    MUSC   O01m9       1     -1.05    15.999
   10690      ob       1    MUSC   O01mA       1     -1.05    15.999
   10691      ob       1    MUSC   O01mB       1     -1.05    15.999
   10692      ob       1    MUSC   O01mC       1     -1.05    15.999
   10693      ob       1    MUSC   O01mD       1     -1.05    15.999
   10694      ob       1    MUSC   O01mE       1     -1.05    15.999
   10695      ob       1    MUSC   O01mF       1     -1.05    15.999
   10696      ob       1    MUSC   O01mG       1     -1.05    15.999
   10697      ob       1    MUSC   O01mH       1     -1.05    15.999
   10698      ob       1    MUSC   O01mI       1     -1.05    15.999
   10699      ob       1    MUSC   O01mJ       1     -1.05    15.999
   10700      ob       1    MUSC   O01mK       1     -1.05    15.999
   10701      ob       1    MUSC   O01mL       1     -1.05    15.999
   10702      ob       1    MUSC   O01mM       1     -1.05    15.999
   10703      ob       1    MUSC   O01mN       1     -1.05    15.999
   10704      ob       1    MUSC   O01mO       1     -1.05    15.999
   10705      oh       1    MUSC   O01mP       1     -0.95    15.999
   10706      oh       1    MUSC   O01mQ       1     -0.95    15.999
   10707      oh       1    MUSC   O01mR       1     -0.95    15.999
   10708      oh       1    MUSC   O01mS       1     -0.95    15.999
   10709      ob       1    MUSC   O01mT       1     -1.05    15.999
   10710      ob       1    MUSC   O01mU       1     -1.05    15.999
   10711      ob       1    MUSC   O01mV       1     -1.05    15.999
   10712      ob       1    MUSC   O01mW       1     -1.05    15.999
   10713      ob       1    MUSC   O01mX       1     -1.05    15.999
   10714      ob       1    MUSC   O01mY       1     -1.05    15.999
   10715      ob       1    MUSC   O01mZ       1     -1.05    15.999
   10716      ob       1    MUSC   O01ma       1     -1.05    15.999
   10717      ob       1    MUSC   O01mb       1     -1.05    15.999
   10718      ob       1    MUSC   O01mc       1     -1.05    15.999
   10719      ob       1    MUSC   O01md       1     -1.05    15.999
   10720      ob       1    MUSC   O01me       1     -1.05    15.999
   10721      ob       1    MUSC   O01mf       1     -1.05    15.999
   10722      ob       1    MUSC   O01mg       1     -1.05    15.999
   10723      ob       1    MUSC   O01mh       1     -1.05    15.999
   10724      ob       1    MUSC   O01mi       1     -1.05    15.999
   10725       K       1    MUSC   K006v       1       1.0    39.098
   10726       K       1    MUSC   K006w       1       1.0    39.098
   10727       K       1    MUSC   K006x       1       1.0    39.098
   10728       K       1    MUSC   K006y       1       1.0    39.098
   10729      ao       1    MUSC   Al0IT       1     1.575    26.982
   10730      ao       1    MUSC   Al0IU       1     1.575    26.982
   10731      ao       1    MUSC   Al0IV       1     1.575    26.982
   10732      ao       1    MUSC   Al0IW       1     1.575    26.982
   10733      ao       1    MUSC   Al0IX       1     1.575    26.982
   10734      ao       1    MUSC   Al0IY       1     1.575    26.982
   10735      ao       1    MUSC   Al0IZ       1     1.575    26.982
   10736      ao       1    MUSC   Al0Ia       1     1.575    26.982
   10737      st       1    MUSC   Si0av       1       2.1    28.086
   10738      st       1    MUSC   Si0aw       1       2.1    28.086
   10739      st       1    MUSC   Si0ax       1       2.1    28.086
   10740      st       1    MUSC   Si0ay       1       2.1    28.086
   10741      st       1    MUSC   Si0az       1       2.1    28.086
   10742      st       1    MUSC   Si0b0       1       2.1    28.086
   10743      st       1    MUSC   Si0b1       1       2.1    28.086
   10744      st       1    MUSC   Si0b2       1       2.1    28.086
   10745      st       1    MUSC   Si0b3       1       2.1    28.086
   10746      st       1    MUSC   Si0b4       1       2.1    28.086
   10747      st       1    MUSC   Si0b5       1       2.1    28.086
   10748      st       1    MUSC   Si0b6       1       2.1    28.086
   10749      st       1    MUSC   Si0b7       1       2.1    28.086
   10750      st       1    MUSC   Si0b8       1       2.1    28.086
   10751      st       1    MUSC   Si0b9       1       2.1    28.086
   10752      st       1    MUSC   Si0bA       1       2.1    28.086
   10753      ob       1    MUSC   O01mj       1     -1.05    15.999
   10754      ob       1    MUSC   O01mk       1     -1.05    15.999
   10755      ob       1    MUSC   O01ml       1     -1.05    15.999
   10756      ob       1    MUSC   O01mm       1     -1.05    15.999
   10757      oh       1    MUSC   O01mn       1     -0.95    15.999
   10758      oh       1    MUSC   O01mo       1     -0.95    15.999
   10759      oh       1    MUSC   O01mp       1     -0.95    15.999
   10760      oh       1    MUSC   O01mq       1     -0.95    15.999
   10761      ob       1    MUSC   O01mr       1     -1.05    15.999
   10762      ob       1    MUSC   O01ms       1     -1.05    15.999
   10763      ob       1    MUSC   O01mt       1     -1.05    15.999
   10764      ob       1    MUSC   O01mu       1     -1.05    15.999
   10765      ob       1    MUSC   O01mv       1     -1.05    15.999
   10766      ob       1    MUSC   O01mw       1     -1.05    15.999
   10767      ob       1    MUSC   O01mx       1     -1.05    15.999
   10768      ob       1    MUSC   O01my       1     -1.05    15.999
   10769      ob       1    MUSC   O01mz       1     -1.05    15.999
   10770      ob       1    MUSC   O01n0       1     -1.05    15.999
   10771      ob       1    MUSC   O01n1       1     -1.05    15.999
   10772      ob       1    MUSC   O01n2       1     -1.05    15.999
   10773      ob       1    MUSC   O01n3       1     -1.05    15.999
   10774      ob       1    MUSC   O01n4       1     -1.05    15.999
   10775      ob       1    MUSC   O01n5       1     -1.05    15.999
   10776      ob       1    MUSC   O01n6       1     -1.05    15.999
   10777      ob       1    MUSC   O01n7       1     -1.05    15.999
   10778      ob       1    MUSC   O01n8       1     -1.05    15.999
   10779      ob       1    MUSC   O01n9       1     -1.05    15.999
   10780      ob       1    MUSC   O01nA       1     -1.05    15.999
   10781      oh       1    MUSC   O01nB       1     -0.95    15.999
   10782      oh       1    MUSC   O01nC       1     -0.95    15.999
   10783      oh       1    MUSC   O01nD       1     -0.95    15.999
   10784      oh       1    MUSC   O01nE       1     -0.95    15.999
   10785      ob       1    MUSC   O01nF       1     -1.05    15.999
   10786      ob       1    MUSC   O01nG       1     -1.05    15.999
   10787      ob       1    MUSC   O01nH       1     -1.05    15.999
   10788      ob       1    MUSC   O01nI       1     -1.05    15.999
   10789      ob       1    MUSC   O01nJ       1     -1.05    15.999
   10790      ob       1    MUSC   O01nK       1     -1.05    15.999
   10791      ob       1    MUSC   O01nL       1     -1.05    15.999
   10792      ob       1    MUSC   O01nM       1     -1.05    15.999
   10793      ob       1    MUSC   O01nN       1     -1.05    15.999
   10794      ob       1    MUSC   O01nO       1     -1.05    15.999
   10795      ob       1    MUSC   O01nP       1     -1.05    15.999
   10796      ob       1    MUSC   O01nQ       1     -1.05    15.999
   10797      ob       1    MUSC   O01nR       1     -1.05    15.999
   10798      ob       1    MUSC   O01nS       1     -1.05    15.999
   10799      ob       1    MUSC   O01nT       1     -1.05    15.999
   10800      ob       1    MUSC   O01nU       1     -1.05    15.999
   10801       K       1    MUSC   K006z       1       1.0    39.098
   10802       K       1    MUSC   K0070       1       1.0    39.098
   10803      ao       1    MUSC   Al0Ib       1     1.575    26.982
   10804      ao       1    MUSC   Al0Ic       1     1.575    26.982
   10805      ao       1    MUSC   Al0Id       1     1.575    26.982
   10806      ao       1    MUSC   Al0Ie       1     1.575    26.982
   10807      ao       1    MUSC   Al0If       1     1.575    26.982
   10808      ao       1    MUSC   Al0Ig       1     1.575    26.982
   10809      ao       1    MUSC   Al0Ih       1     1.575    26.982
   10810      ao       1    MUSC   Al0Ii       1     1.575    26.982
   10811      st       1    MUSC   Si0bB       1       2.1    28.086
   10812      st       1    MUSC   Si0bC       1       2.1    28.086
   10813      st       1    MUSC   Si0bD       1       2.1    28.086
   10814      st       1    MUSC   Si0bE       1       2.1    28.086
   10815      st       1    MUSC   Si0bF       1       2.1    28.086
   10816      st       1    MUSC   Si0bG       1       2.1    28.086
   10817      st       1    MUSC   Si0bH       1       2.1    28.086
   10818      st       1    MUSC   Si0bI       1       2.1    28.086
   10819      st       1    MUSC   Si0bJ       1       2.1    28.086
   10820      st       1    MUSC   Si0bK       1       2.1    28.086
   10821      st       1    MUSC   Si0bL       1       2.1    28.086
   10822      st       1    MUSC   Si0bM       1       2.1    28.086
   10823      st       1    MUSC   Si0bN       1       2.1    28.086
   10824      st       1    MUSC   Si0bO       1       2.1    28.086
   10825      st       1    MUSC   Si0bP       1       2.1    28.086
   10826      st       1    MUSC   Si0bQ       1       2.1    28.086
   10827      ob       1    MUSC   O01nV       1     -1.05    15.999
   10828      ob       1    MUSC   O01nW       1     -1.05    15.999
   10829      ob       1    MUSC   O01nX       1     -1.05    15.999
   10830      ob       1    MUSC   O01nY       1     -1.05    15.999
   10831      oh       1    MUSC   O01nZ       1     -0.95    15.999
   10832      oh       1    MUSC   O01na       1     -0.95    15.999
   10833      oh       1    MUSC   O01nb       1     -0.95    15.999
   10834      oh       1    MUSC   O01nc       1     -0.95    15.999
   10835      ob       1    MUSC   O01nd       1     -1.05    15.999
   10836      ob       1    MUSC   O01ne       1     -1.05    15.999
   10837      ob       1    MUSC   O01nf       1     -1.05    15.999
   10838      ob       1    MUSC   O01ng       1     -1.05    15.999
   10839      ob       1    MUSC   O01nh       1     -1.05    15.999
   10840      ob       1    MUSC   O01ni       1     -1.05    15.999
   10841      ob       1    MUSC   O01nj       1     -1.05    15.999
   10842      ob       1    MUSC   O01nk       1     -1.05    15.999
   10843      ob       1    MUSC   O01nl       1     -1.05    15.999
   10844      ob       1    MUSC   O01nm       1     -1.05    15.999
   10845      ob       1    MUSC   O01nn       1     -1.05    15.999
   10846      ob       1    MUSC   O01no       1     -1.05    15.999
   10847      ob       1    MUSC   O01np       1     -1.05    15.999
   10848      ob       1    MUSC   O01nq       1     -1.05    15.999
   10849      ob       1    MUSC   O01nr       1     -1.05    15.999
   10850      ob       1    MUSC   O01ns       1     -1.05    15.999
   10851      ob       1    MUSC   O01nt       1     -1.05    15.999
   10852      ob       1    MUSC   O01nu       1     -1.05    15.999
   10853      ob       1    MUSC   O01nv       1     -1.05    15.999
   10854      ob       1    MUSC   O01nw       1     -1.05    15.999
   10855      oh       1    MUSC   O01nx       1     -0.95    15.999
   10856      oh       1    MUSC   O01ny       1     -0.95    15.999
   10857      oh       1    MUSC   O01nz       1     -0.95    15.999
   10858      oh       1    MUSC   O01o0       1     -0.95    15.999
   10859      ob       1    MUSC   O01o1       1     -1.05    15.999
   10860      ob       1    MUSC   O01o2       1     -1.05    15.999
   10861      ob       1    MUSC   O01o3       1     -1.05    15.999
   10862      ob       1    MUSC   O01o4       1     -1.05    15.999
   10863      ob       1    MUSC   O01o5       1     -1.05    15.999
   10864      ob       1    MUSC   O01o6       1     -1.05    15.999
   10865      ob       1    MUSC   O01o7       1     -1.05    15.999
   10866      ob       1    MUSC   O01o8       1     -1.05    15.999
   10867      ob       1    MUSC   O01o9       1     -1.05    15.999
   10868      ob       1    MUSC   O01oA       1     -1.05    15.999
   10869      ob       1    MUSC   O01oB       1     -1.05    15.999
   10870      ob       1    MUSC   O01oC       1     -1.05    15.999
   10871      ob       1    MUSC   O01oD       1     -1.05    15.999
   10872      ob       1    MUSC   O01oE       1     -1.05    15.999
   10873      ob       1    MUSC   O01oF       1     -1.05    15.999
   10874      ob       1    MUSC   O01oG       1     -1.05    15.999
   10875       K       1    MUSC   K0071       1       1.0    39.098
   10876       K       1    MUSC   K0072       1       1.0    39.098
   10877       K       1    MUSC   K0073       1       1.0    39.098
   10878       K       1    MUSC   K0074       1       1.0    39.098
   10879      ao       1    MUSC   Al0Ij       1     1.575    26.982
   10880      ao       1    MUSC   Al0Ik       1     1.575    26.982
   10881      ao       1    MUSC   Al0Il       1     1.575    26.982
   10882      ao       1    MUSC   Al0Im       1     1.575    26.982
   10883      ao       1    MUSC   Al0In       1     1.575    26.982
   10884      ao       1    MUSC   Al0Io       1     1.575    26.982
   10885      ao       1    MUSC   Al0Ip       1     1.575    26.982
   10886      ao       1    MUSC   Al0Iq       1     1.575    26.982
   10887      st       1    MUSC   Si0bR       1       2.1    28.086
   10888      st       1    MUSC   Si0bS       1       2.1    28.086
   10889      st       1    MUSC   Si0bT       1       2.1    28.086
   10890      st       1    MUSC   Si0bU       1       2.1    28.086
   10891      st       1    MUSC   Si0bV       1       2.1    28.086
   10892      st       1    MUSC   Si0bW       1       2.1    28.086
   10893      st       1    MUSC   Si0bX       1       2.1    28.086
   10894      st       1    MUSC   Si0bY       1       2.1    28.086
   10895      st       1    MUSC   Si0bZ       1       2.1    28.086
   10896      st       1    MUSC   Si0ba       1       2.1    28.086
   10897      st       1    MUSC   Si0bb       1       2.1    28.086
   10898      st       1    MUSC   Si0bc       1       2.1    28.086
   10899      st       1    MUSC   Si0bd       1       2.1    28.086
   10900      st       1    MUSC   Si0be       1       2.1    28.086
   10901      st       1    MUSC   Si0bf       1       2.1    28.086
   10902      st       1    MUSC   Si0bg       1       2.1    28.086
   10903      ob       1    MUSC   O01oH       1     -1.05    15.999
   10904      ob       1    MUSC   O01oI       1     -1.05    15.999
   10905      ob       1    MUSC   O01oJ       1     -1.05    15.999
   10906      ob       1    MUSC   O01oK       1     -1.05    15.999
   10907      oh       1    MUSC   O01oL       1     -0.95    15.999
   10908      oh       1    MUSC   O01oM       1     -0.95    15.999
   10909      oh       1    MUSC   O01oN       1     -0.95    15.999
   10910      oh       1    MUSC   O01oO       1     -0.95    15.999
   10911      ob       1    MUSC   O01oP       1     -1.05    15.999
   10912      ob       1    MUSC   O01oQ       1     -1.05    15.999
   10913      ob       1    MUSC   O01oR       1     -1.05    15.999
   10914      ob       1    MUSC   O01oS       1     -1.05    15.999
   10915      ob       1    MUSC   O01oT       1     -1.05    15.999
   10916      ob       1    MUSC   O01oU       1     -1.05    15.999
   10917      ob       1    MUSC   O01oV       1     -1.05    15.999
   10918      ob       1    MUSC   O01oW       1     -1.05    15.999
   10919      ob       1    MUSC   O01oX       1     -1.05    15.999
   10920      ob       1    MUSC   O01oY       1     -1.05    15.999
   10921      ob       1    MUSC   O01oZ       1     -1.05    15.999
   10922      ob       1    MUSC   O01oa       1     -1.05    15.999
   10923      ob       1    MUSC   O01ob       1     -1.05    15.999
   10924      ob       1    MUSC   O01oc       1     -1.05    15.999
   10925      ob       1    MUSC   O01od       1     -1.05    15.999
   10926      ob       1    MUSC   O01oe       1     -1.05    15.999
   10927      ob       1    MUSC   O01of       1     -1.05    15.999
   10928      ob       1    MUSC   O01og       1     -1.05    15.999
   10929      ob       1    MUSC   O01oh       1     -1.05    15.999
   10930      ob       1    MUSC   O01oi       1     -1.05    15.999
   10931      oh       1    MUSC   O01oj       1     -0.95    15.999
   10932      oh       1    MUSC   O01ok       1     -0.95    15.999
   10933      oh       1    MUSC   O01ol       1     -0.95    15.999
   10934      oh       1    MUSC   O01om       1     -0.95    15.999
   10935      ob       1    MUSC   O01on       1     -1.05    15.999
   10936      ob       1    MUSC   O01oo       1     -1.05    15.999
   10937      ob       1    MUSC   O01op       1     -1.05    15.999
   10938      ob       1    MUSC   O01oq       1     -1.05    15.999
   10939      ob       1    MUSC   O01or       1     -1.05    15.999
   10940      ob       1    MUSC   O01os       1     -1.05    15.999
   10941      ob       1    MUSC   O01ot       1     -1.05    15.999
   10942      ob       1    MUSC   O01ou       1     -1.05    15.999
   10943      ob       1    MUSC   O01ov       1     -1.05    15.999
   10944      ob       1    MUSC   O01ow       1     -1.05    15.999
   10945      ob       1    MUSC   O01ox       1     -1.05    15.999
   10946      ob       1    MUSC   O01oy       1     -1.05    15.999
   10947      ob       1    MUSC   O01oz       1     -1.05    15.999
   10948      ob       1    MUSC   O01p0       1     -1.05    15.999
   10949      ob       1    MUSC   O01p1       1     -1.05    15.999
   10950      ob       1    MUSC   O01p2       1     -1.05    15.999
   10951       K       1    MUSC   K0075       1       1.0    39.098
   10952       K       1    MUSC   K0076       1       1.0    39.098
   10953      ao       1    MUSC   Al0Ir       1     1.575    26.982
   10954      ao       1    MUSC   Al0Is       1     1.575    26.982
   10955      ao       1    MUSC   Al0It       1     1.575    26.982
   10956      ao       1    MUSC   Al0Iu       1     1.575    26.982
   10957      ao       1    MUSC   Al0Iv       1     1.575    26.982
   10958      ao       1    MUSC   Al0Iw       1     1.575    26.982
   10959      ao       1    MUSC   Al0Ix       1     1.575    26.982
   10960      ao       1    MUSC   Al0Iy       1     1.575    26.982
   10961      st       1    MUSC   Si0bh       1       2.1    28.086
   10962      st       1    MUSC   Si0bi       1       2.1    28.086
   10963      st       1    MUSC   Si0bj       1       2.1    28.086
   10964      st       1    MUSC   Si0bk       1       2.1    28.086
   10965      st       1    MUSC   Si0bl       1       2.1    28.086
   10966      st       1    MUSC   Si0bm       1       2.1    28.086
   10967      st       1    MUSC   Si0bn       1       2.1    28.086
   10968      st       1    MUSC   Si0bo       1       2.1    28.086
   10969      st       1    MUSC   Si0bp       1       2.1    28.086
   10970      st       1    MUSC   Si0bq       1       2.1    28.086
   10971      st       1    MUSC   Si0br       1       2.1    28.086
   10972      st       1    MUSC   Si0bs       1       2.1    28.086
   10973      st       1    MUSC   Si0bt       1       2.1    28.086
   10974      st       1    MUSC   Si0bu       1       2.1    28.086
   10975      st       1    MUSC   Si0bv       1       2.1    28.086
   10976      st       1    MUSC   Si0bw       1       2.1    28.086
   10977      ob       1    MUSC   O01p3       1     -1.05    15.999
   10978      ob       1    MUSC   O01p4       1     -1.05    15.999
   10979      ob       1    MUSC   O01p5       1     -1.05    15.999
   10980      ob       1    MUSC   O01p6       1     -1.05    15.999
   10981      oh       1    MUSC   O01p7       1     -0.95    15.999
   10982      oh       1    MUSC   O01p8       1     -0.95    15.999
   10983      oh       1    MUSC   O01p9       1     -0.95    15.999
   10984      oh       1    MUSC   O01pA       1     -0.95    15.999
   10985      ob       1    MUSC   O01pB       1     -1.05    15.999
   10986      ob       1    MUSC   O01pC       1     -1.05    15.999
   10987      ob       1    MUSC   O01pD       1     -1.05    15.999
   10988      ob       1    MUSC   O01pE       1     -1.05    15.999
   10989      ob       1    MUSC   O01pF       1     -1.05    15.999
   10990      ob       1    MUSC   O01pG       1     -1.05    15.999
   10991      ob       1    MUSC   O01pH       1     -1.05    15.999
   10992      ob       1    MUSC   O01pI       1     -1.05    15.999
   10993      ob       1    MUSC   O01pJ       1     -1.05    15.999
   10994      ob       1    MUSC   O01pK       1     -1.05    15.999
   10995      ob       1    MUSC   O01pL       1     -1.05    15.999
   10996      ob       1    MUSC   O01pM       1     -1.05    15.999
   10997      ob       1    MUSC   O01pN       1     -1.05    15.999
   10998      ob       1    MUSC   O01pO       1     -1.05    15.999
   10999      ob       1    MUSC   O01pP       1     -1.05    15.999
   11000      ob       1    MUSC   O01pQ       1     -1.05    15.999
   11001      ob       1    MUSC   O01pR       1     -1.05    15.999
   11002      ob       1    MUSC   O01pS       1     -1.05    15.999
   11003      ob       1    MUSC   O01pT       1     -1.05    15.999
   11004      ob       1    MUSC   O01pU       1     -1.05    15.999
   11005      oh       1    MUSC   O01pV       1     -0.95    15.999
   11006      oh       1    MUSC   O01pW       1     -0.95    15.999
   11007      oh       1    MUSC   O01pX       1     -0.95    15.999
   11008      oh       1    MUSC   O01pY       1     -0.95    15.999
   11009      ob       1    MUSC   O01pZ       1     -1.05    15.999
   11010      ob       1    MUSC   O01pa       1     -1.05    15.999
   11011      ob       1    MUSC   O01pb       1     -1.05    15.999
   11012      ob       1    MUSC   O01pc       1     -1.05    15.999
   11013      ob       1    MUSC   O01pd       1     -1.05    15.999
   11014      ob       1    MUSC   O01pe       1     -1.05    15.999
   11015      ob       1    MUSC   O01pf       1     -1.05    15.999
   11016      ob       1    MUSC   O01pg       1     -1.05    15.999
   11017      ob       1    MUSC   O01ph       1     -1.05    15.999
   11018      ob       1    MUSC   O01pi       1     -1.05    15.999
   11019      ob       1    MUSC   O01pj       1     -1.05    15.999
   11020      ob       1    MUSC   O01pk       1     -1.05    15.999
   11021      ob       1    MUSC   O01pl       1     -1.05    15.999
   11022      ob       1    MUSC   O01pm       1     -1.05    15.999
   11023      ob       1    MUSC   O01pn       1     -1.05    15.999
   11024      ob       1    MUSC   O01po       1     -1.05    15.999
   11025       K       1    MUSC   K0077       1       1.0    39.098
   11026       K       1    MUSC   K0078       1       1.0    39.098
   11027       K       1    MUSC   K0079       1       1.0    39.098
   11028       K       1    MUSC   K007A       1       1.0    39.098
   11029      ao       1    MUSC   Al0Iz       1     1.575    26.982
   11030      ao       1    MUSC   Al0J0       1     1.575    26.982
   11031      ao       1    MUSC   Al0J1       1     1.575    26.982
   11032      ao       1    MUSC   Al0J2       1     1.575    26.982
   11033      ao       1    MUSC   Al0J3       1     1.575    26.982
   11034      ao       1    MUSC   Al0J4       1     1.575    26.982
   11035      ao       1    MUSC   Al0J5       1     1.575    26.982
   11036      ao       1    MUSC   Al0J6       1     1.575    26.982
   11037      st       1    MUSC   Si0bx       1       2.1    28.086
   11038      st       1    MUSC   Si0by       1       2.1    28.086
   11039      st       1    MUSC   Si0bz       1       2.1    28.086
   11040      st       1    MUSC   Si0c0       1       2.1    28.086
   11041      st       1    MUSC   Si0c1       1       2.1    28.086
   11042      st       1    MUSC   Si0c2       1       2.1    28.086
   11043      st       1    MUSC   Si0c3       1       2.1    28.086
   11044      st       1    MUSC   Si0c4       1       2.1    28.086
   11045      st       1    MUSC   Si0c5       1       2.1    28.086
   11046      st       1    MUSC   Si0c6       1       2.1    28.086
   11047      st       1    MUSC   Si0c7       1       2.1    28.086
   11048      st       1    MUSC   Si0c8       1       2.1    28.086
   11049      st       1    MUSC   Si0c9       1       2.1    28.086
   11050      st       1    MUSC   Si0cA       1       2.1    28.086
   11051      st       1    MUSC   Si0cB       1       2.1    28.086
   11052      st       1    MUSC   Si0cC       1       2.1    28.086
   11053      ob       1    MUSC   O01pp       1     -1.05    15.999
   11054      ob       1    MUSC   O01pq       1     -1.05    15.999
   11055      ob       1    MUSC   O01pr       1     -1.05    15.999
   11056      ob       1    MUSC   O01ps       1     -1.05    15.999
   11057      oh       1    MUSC   O01pt       1     -0.95    15.999
   11058      oh       1    MUSC   O01pu       1     -0.95    15.999
   11059      oh       1    MUSC   O01pv       1     -0.95    15.999
   11060      oh       1    MUSC   O01pw       1     -0.95    15.999
   11061      ob       1    MUSC   O01px       1     -1.05    15.999
   11062      ob       1    MUSC   O01py       1     -1.05    15.999
   11063      ob       1    MUSC   O01pz       1     -1.05    15.999
   11064      ob       1    MUSC   O01q0       1     -1.05    15.999
   11065      ob       1    MUSC   O01q1       1     -1.05    15.999
   11066      ob       1    MUSC   O01q2       1     -1.05    15.999
   11067      ob       1    MUSC   O01q3       1     -1.05    15.999
   11068      ob       1    MUSC   O01q4       1     -1.05    15.999
   11069      ob       1    MUSC   O01q5       1     -1.05    15.999
   11070      ob       1    MUSC   O01q6       1     -1.05    15.999
   11071      ob       1    MUSC   O01q7       1     -1.05    15.999
   11072      ob       1    MUSC   O01q8       1     -1.05    15.999
   11073      ob       1    MUSC   O01q9       1     -1.05    15.999
   11074      ob       1    MUSC   O01qA       1     -1.05    15.999
   11075      ob       1    MUSC   O01qB       1     -1.05    15.999
   11076      ob       1    MUSC   O01qC       1     -1.05    15.999
   11077      ob       1    MUSC   O01qD       1     -1.05    15.999
   11078      ob       1    MUSC   O01qE       1     -1.05    15.999
   11079      ob       1    MUSC   O01qF       1     -1.05    15.999
   11080      ob       1    MUSC   O01qG       1     -1.05    15.999
   11081      oh       1    MUSC   O01qH       1     -0.95    15.999
   11082      oh       1    MUSC   O01qI       1     -0.95    15.999
   11083      oh       1    MUSC   O01qJ       1     -0.95    15.999
   11084      oh       1    MUSC   O01qK       1     -0.95    15.999
   11085      ob       1    MUSC   O01qL       1     -1.05    15.999
   11086      ob       1    MUSC   O01qM       1     -1.05    15.999
   11087      ob       1    MUSC   O01qN       1     -1.05    15.999
   11088      ob       1    MUSC   O01qO       1     -1.05    15.999
   11089      ob       1    MUSC   O01qP       1     -1.05    15.999
   11090      ob       1    MUSC   O01qQ       1     -1.05    15.999
   11091      ob       1    MUSC   O01qR       1     -1.05    15.999
   11092      ob       1    MUSC   O01qS       1     -1.05    15.999
   11093      ob       1    MUSC   O01qT       1     -1.05    15.999
   11094      ob       1    MUSC   O01qU       1     -1.05    15.999
   11095      ob       1    MUSC   O01qV       1     -1.05    15.999
   11096      ob       1    MUSC   O01qW       1     -1.05    15.999
   11097      ob       1    MUSC   O01qX       1     -1.05    15.999
   11098      ob       1    MUSC   O01qY       1     -1.05    15.999
   11099      ob       1    MUSC   O01qZ       1     -1.05    15.999
   11100      ob       1    MUSC   O01qa       1     -1.05    15.999
   11101       K       1    MUSC   K007B       1       1.0    39.098
   11102       K       1    MUSC   K007C       1       1.0    39.098
   11103      ao       1    MUSC   Al0J7       1     1.575    26.982
   11104      ao       1    MUSC   Al0J8       1     1.575    26.982
   11105      ao       1    MUSC   Al0J9       1     1.575    26.982
   11106      ao       1    MUSC   Al0JA       1     1.575    26.982
   11107      ao       1    MUSC   Al0JB       1     1.575    26.982
   11108      ao       1    MUSC   Al0JC       1     1.575    26.982
   11109      ao       1    MUSC   Al0JD       1     1.575    26.982
   11110      ao       1    MUSC   Al0JE       1     1.575    26.982
   11111      st       1    MUSC   Si0cD       1       2.1    28.086
   11112      st       1    MUSC   Si0cE       1       2.1    28.086
   11113      st       1    MUSC   Si0cF       1       2.1    28.086
   11114      st       1    MUSC   Si0cG       1       2.1    28.086
   11115      st       1    MUSC   Si0cH       1       2.1    28.086
   11116      st       1    MUSC   Si0cI       1       2.1    28.086
   11117      st       1    MUSC   Si0cJ       1       2.1    28.086
   11118      st       1    MUSC   Si0cK       1       2.1    28.086
   11119      st       1    MUSC   Si0cL       1       2.1    28.086
   11120      st       1    MUSC   Si0cM       1       2.1    28.086
   11121      st       1    MUSC   Si0cN       1       2.1    28.086
   11122      st       1    MUSC   Si0cO       1       2.1    28.086
   11123      st       1    MUSC   Si0cP       1       2.1    28.086
   11124      st       1    MUSC   Si0cQ       1       2.1    28.086
   11125      st       1    MUSC   Si0cR       1       2.1    28.086
   11126      st       1    MUSC   Si0cS       1       2.1    28.086
   11127      ob       1    MUSC   O01qb       1     -1.05    15.999
   11128      ob       1    MUSC   O01qc       1     -1.05    15.999
   11129      ob       1    MUSC   O01qd       1     -1.05    15.999
   11130      ob       1    MUSC   O01qe       1     -1.05    15.999
   11131      oh       1    MUSC   O01qf       1     -0.95    15.999
   11132      oh       1    MUSC   O01qg       1     -0.95    15.999
   11133      oh       1    MUSC   O01qh       1     -0.95    15.999
   11134      oh       1    MUSC   O01qi       1     -0.95    15.999
   11135      ob       1    MUSC   O01qj       1     -1.05    15.999
   11136      ob       1    MUSC   O01qk       1     -1.05    15.999
   11137      ob       1    MUSC   O01ql       1     -1.05    15.999
   11138      ob       1    MUSC   O01qm       1     -1.05    15.999
   11139      ob       1    MUSC   O01qn       1     -1.05    15.999
   11140      ob       1    MUSC   O01qo       1     -1.05    15.999
   11141      ob       1    MUSC   O01qp       1     -1.05    15.999
   11142      ob       1    MUSC   O01qq       1     -1.05    15.999
   11143      ob       1    MUSC   O01qr       1     -1.05    15.999
   11144      ob       1    MUSC   O01qs       1     -1.05    15.999
   11145      ob       1    MUSC   O01qt       1     -1.05    15.999
   11146      ob       1    MUSC   O01qu       1     -1.05    15.999
   11147      ob       1    MUSC   O01qv       1     -1.05    15.999
   11148      ob       1    MUSC   O01qw       1     -1.05    15.999
   11149      ob       1    MUSC   O01qx       1     -1.05    15.999
   11150      ob       1    MUSC   O01qy       1     -1.05    15.999
   11151      ob       1    MUSC   O01qz       1     -1.05    15.999
   11152      ob       1    MUSC   O01r0       1     -1.05    15.999
   11153      ob       1    MUSC   O01r1       1     -1.05    15.999
   11154      ob       1    MUSC   O01r2       1     -1.05    15.999
   11155      oh       1    MUSC   O01r3       1     -0.95    15.999
   11156      oh       1    MUSC   O01r4       1     -0.95    15.999
   11157      oh       1    MUSC   O01r5       1     -0.95    15.999
   11158      oh       1    MUSC   O01r6       1     -0.95    15.999
   11159      ob       1    MUSC   O01r7       1     -1.05    15.999
   11160      ob       1    MUSC   O01r8       1     -1.05    15.999
   11161      ob       1    MUSC   O01r9       1     -1.05    15.999
   11162      ob       1    MUSC   O01rA       1     -1.05    15.999
   11163      ob       1    MUSC   O01rB       1     -1.05    15.999
   11164      ob       1    MUSC   O01rC       1     -1.05    15.999
   11165      ob       1    MUSC   O01rD       1     -1.05    15.999
   11166      ob       1    MUSC   O01rE       1     -1.05    15.999
   11167      ob       1    MUSC   O01rF       1     -1.05    15.999
   11168      ob       1    MUSC   O01rG       1     -1.05    15.999
   11169      ob       1    MUSC   O01rH       1     -1.05    15.999
   11170      ob       1    MUSC   O01rI       1     -1.05    15.999
   11171      ob       1    MUSC   O01rJ       1     -1.05    15.999
   11172      ob       1    MUSC   O01rK       1     -1.05    15.999
   11173      ob       1    MUSC   O01rL       1     -1.05    15.999
   11174      ob       1    MUSC   O01rM       1     -1.05    15.999
   11175       K       1    MUSC   K007D       1       1.0    39.098
   11176       K       1    MUSC   K007E       1       1.0    39.098
   11177       K       1    MUSC   K007F       1       1.0    39.098
   11178       K       1    MUSC   K007G       1       1.0    39.098
   11179      ao       1    MUSC   Al0JF       1     1.575    26.982
   11180      ao       1    MUSC   Al0JG       1     1.575    26.982
   11181      ao       1    MUSC   Al0JH       1     1.575    26.982
   11182      ao       1    MUSC   Al0JI       1     1.575    26.982
   11183      ao       1    MUSC   Al0JJ       1     1.575    26.982
   11184      ao       1    MUSC   Al0JK       1     1.575    26.982
   11185      ao       1    MUSC   Al0JL       1     1.575    26.982
   11186      ao       1    MUSC   Al0JM       1     1.575    26.982
   11187      st       1    MUSC   Si0cT       1       2.1    28.086
   11188      st       1    MUSC   Si0cU       1       2.1    28.086
   11189      st       1    MUSC   Si0cV       1       2.1    28.086
   11190      st       1    MUSC   Si0cW       1       2.1    28.086
   11191      st       1    MUSC   Si0cX       1       2.1    28.086
   11192      st       1    MUSC   Si0cY       1       2.1    28.086
   11193      st       1    MUSC   Si0cZ       1       2.1    28.086
   11194      st       1    MUSC   Si0ca       1       2.1    28.086
   11195      st       1    MUSC   Si0cb       1       2.1    28.086
   11196      st       1    MUSC   Si0cc       1       2.1    28.086
   11197      st       1    MUSC   Si0cd       1       2.1    28.086
   11198      st       1    MUSC   Si0ce       1       2.1    28.086
   11199      st       1    MUSC   Si0cf       1       2.1    28.086
   11200      st       1    MUSC   Si0cg       1       2.1    28.086
   11201      st       1    MUSC   Si0ch       1       2.1    28.086
   11202      st       1    MUSC   Si0ci       1       2.1    28.086
   11203      ob       1    MUSC   O01rN       1     -1.05    15.999
   11204      ob       1    MUSC   O01rO       1     -1.05    15.999
   11205      ob       1    MUSC   O01rP       1     -1.05    15.999
   11206      ob       1    MUSC   O01rQ       1     -1.05    15.999
   11207      oh       1    MUSC   O01rR       1     -0.95    15.999
   11208      oh       1    MUSC   O01rS       1     -0.95    15.999
   11209      oh       1    MUSC   O01rT       1     -0.95    15.999
   11210      oh       1    MUSC   O01rU       1     -0.95    15.999
   11211      ob       1    MUSC   O01rV       1     -1.05    15.999
   11212      ob       1    MUSC   O01rW       1     -1.05    15.999
   11213      ob       1    MUSC   O01rX       1     -1.05    15.999
   11214      ob       1    MUSC   O01rY       1     -1.05    15.999
   11215      ob       1    MUSC   O01rZ       1     -1.05    15.999
   11216      ob       1    MUSC   O01ra       1     -1.05    15.999
   11217      ob       1    MUSC   O01rb       1     -1.05    15.999
   11218      ob       1    MUSC   O01rc       1     -1.05    15.999
   11219      ob       1    MUSC   O01rd       1     -1.05    15.999
   11220      ob       1    MUSC   O01re       1     -1.05    15.999
   11221      ob       1    MUSC   O01rf       1     -1.05    15.999
   11222      ob       1    MUSC   O01rg       1     -1.05    15.999
   11223      ob       1    MUSC   O01rh       1     -1.05    15.999
   11224      ob       1    MUSC   O01ri       1     -1.05    15.999
   11225      ob       1    MUSC   O01rj       1     -1.05    15.999
   11226      ob       1    MUSC   O01rk       1     -1.05    15.999
   11227      ob       1    MUSC   O01rl       1     -1.05    15.999
   11228      ob       1    MUSC   O01rm       1     -1.05    15.999
   11229      ob       1    MUSC   O01rn       1     -1.05    15.999
   11230      ob       1    MUSC   O01ro       1     -1.05    15.999
   11231      oh       1    MUSC   O01rp       1     -0.95    15.999
   11232      oh       1    MUSC   O01rq       1     -0.95    15.999
   11233      oh       1    MUSC   O01rr       1     -0.95    15.999
   11234      oh       1    MUSC   O01rs       1     -0.95    15.999
   11235      ob       1    MUSC   O01rt       1     -1.05    15.999
   11236      ob       1    MUSC   O01ru       1     -1.05    15.999
   11237      ob       1    MUSC   O01rv       1     -1.05    15.999
   11238      ob       1    MUSC   O01rw       1     -1.05    15.999
   11239      ob       1    MUSC   O01rx       1     -1.05    15.999
   11240      ob       1    MUSC   O01ry       1     -1.05    15.999
   11241      ob       1    MUSC   O01rz       1     -1.05    15.999
   11242      ob       1    MUSC   O01s0       1     -1.05    15.999
   11243      ob       1    MUSC   O01s1       1     -1.05    15.999
   11244      ob       1    MUSC   O01s2       1     -1.05    15.999
   11245      ob       1    MUSC   O01s3       1     -1.05    15.999
   11246      ob       1    MUSC   O01s4       1     -1.05    15.999
   11247      ob       1    MUSC   O01s5       1     -1.05    15.999
   11248      ob       1    MUSC   O01s6       1     -1.05    15.999
   11249      ob       1    MUSC   O01s7       1     -1.05    15.999
   11250      ob       1    MUSC   O01s8       1     -1.05    15.999
   11251       K       1    MUSC   K007H       1       1.0    39.098
   11252       K       1    MUSC   K007I       1       1.0    39.098
   11253      ao       1    MUSC   Al0JN       1     1.575    26.982
   11254      ao       1    MUSC   Al0JO       1     1.575    26.982
   11255      ao       1    MUSC   Al0JP       1     1.575    26.982
   11256      ao       1    MUSC   Al0JQ       1     1.575    26.982
   11257      ao       1    MUSC   Al0JR       1     1.575    26.982
   11258      ao       1    MUSC   Al0JS       1     1.575    26.982
   11259      ao       1    MUSC   Al0JT       1     1.575    26.982
   11260      ao       1    MUSC   Al0JU       1     1.575    26.982
   11261      st       1    MUSC   Si0cj       1       2.1    28.086
   11262      st       1    MUSC   Si0ck       1       2.1    28.086
   11263      st       1    MUSC   Si0cl       1       2.1    28.086
   11264      st       1    MUSC   Si0cm       1       2.1    28.086
   11265      st       1    MUSC   Si0cn       1       2.1    28.086
   11266      st       1    MUSC   Si0co       1       2.1    28.086
   11267      st       1    MUSC   Si0cp       1       2.1    28.086
   11268      st       1    MUSC   Si0cq       1       2.1    28.086
   11269      st       1    MUSC   Si0cr       1       2.1    28.086
   11270      st       1    MUSC   Si0cs       1       2.1    28.086
   11271      st       1    MUSC   Si0ct       1       2.1    28.086
   11272      st       1    MUSC   Si0cu       1       2.1    28.086
   11273      st       1    MUSC   Si0cv       1       2.1    28.086
   11274      st       1    MUSC   Si0cw       1       2.1    28.086
   11275      st       1    MUSC   Si0cx       1       2.1    28.086
   11276      st       1    MUSC   Si0cy       1       2.1    28.086
   11277      ob       1    MUSC   O01s9       1     -1.05    15.999
   11278      ob       1    MUSC   O01sA       1     -1.05    15.999
   11279      ob       1    MUSC   O01sB       1     -1.05    15.999
   11280      ob       1    MUSC   O01sC       1     -1.05    15.999
   11281      oh       1    MUSC   O01sD       1     -0.95    15.999
   11282      oh       1    MUSC   O01sE       1     -0.95    15.999
   11283      oh       1    MUSC   O01sF       1     -0.95    15.999
   11284      oh       1    MUSC   O01sG       1     -0.95    15.999
   11285      ob       1    MUSC   O01sH       1     -1.05    15.999
   11286      ob       1    MUSC   O01sI       1     -1.05    15.999
   11287      ob       1    MUSC   O01sJ       1     -1.05    15.999
   11288      ob       1    MUSC   O01sK       1     -1.05    15.999
   11289      ob       1    MUSC   O01sL       1     -1.05    15.999
   11290      ob       1    MUSC   O01sM       1     -1.05    15.999
   11291      ob       1    MUSC   O01sN       1     -1.05    15.999
   11292      ob       1    MUSC   O01sO       1     -1.05    15.999
   11293      ob       1    MUSC   O01sP       1     -1.05    15.999
   11294      ob       1    MUSC   O01sQ       1     -1.05    15.999
   11295      ob       1    MUSC   O01sR       1     -1.05    15.999
   11296      ob       1    MUSC   O01sS       1     -1.05    15.999
   11297      ob       1    MUSC   O01sT       1     -1.05    15.999
   11298      ob       1    MUSC   O01sU       1     -1.05    15.999
   11299      ob       1    MUSC   O01sV       1     -1.05    15.999
   11300      ob       1    MUSC   O01sW       1     -1.05    15.999
   11301      ob       1    MUSC   O01sX       1     -1.05    15.999
   11302      ob       1    MUSC   O01sY       1     -1.05    15.999
   11303      ob       1    MUSC   O01sZ       1     -1.05    15.999
   11304      ob       1    MUSC   O01sa       1     -1.05    15.999
   11305      oh       1    MUSC   O01sb       1     -0.95    15.999
   11306      oh       1    MUSC   O01sc       1     -0.95    15.999
   11307      oh       1    MUSC   O01sd       1     -0.95    15.999
   11308      oh       1    MUSC   O01se       1     -0.95    15.999
   11309      ob       1    MUSC   O01sf       1     -1.05    15.999
   11310      ob       1    MUSC   O01sg       1     -1.05    15.999
   11311      ob       1    MUSC   O01sh       1     -1.05    15.999
   11312      ob       1    MUSC   O01si       1     -1.05    15.999
   11313      ob       1    MUSC   O01sj       1     -1.05    15.999
   11314      ob       1    MUSC   O01sk       1     -1.05    15.999
   11315      ob       1    MUSC   O01sl       1     -1.05    15.999
   11316      ob       1    MUSC   O01sm       1     -1.05    15.999
   11317      ob       1    MUSC   O01sn       1     -1.05    15.999
   11318      ob       1    MUSC   O01so       1     -1.05    15.999
   11319      ob       1    MUSC   O01sp       1     -1.05    15.999
   11320      ob       1    MUSC   O01sq       1     -1.05    15.999
   11321      ob       1    MUSC   O01sr       1     -1.05    15.999
   11322      ob       1    MUSC   O01ss       1     -1.05    15.999
   11323      ob       1    MUSC   O01st       1     -1.05    15.999
   11324      ob       1    MUSC   O01su       1     -1.05    15.999
   11325       K       1    MUSC   K007J       1       1.0    39.098
   11326       K       1    MUSC   K007K       1       1.0    39.098
   11327       K       1    MUSC   K007L       1       1.0    39.098
   11328       K       1    MUSC   K007M       1       1.0    39.098
   11329      ao       1    MUSC   Al0JV       1     1.575    26.982
   11330      ao       1    MUSC   Al0JW       1     1.575    26.982
   11331      ao       1    MUSC   Al0JX       1     1.575    26.982
   11332      ao       1    MUSC   Al0JY       1     1.575    26.982
   11333      ao       1    MUSC   Al0JZ       1     1.575    26.982
   11334      ao       1    MUSC   Al0Ja       1     1.575    26.982
   11335      ao       1    MUSC   Al0Jb       1     1.575    26.982
   11336      ao       1    MUSC   Al0Jc       1     1.575    26.982
   11337      st       1    MUSC   Si0cz       1       2.1    28.086
   11338      st       1    MUSC   Si0d0       1       2.1    28.086
   11339      st       1    MUSC   Si0d1       1       2.1    28.086
   11340      st       1    MUSC   Si0d2       1       2.1    28.086
   11341      st       1    MUSC   Si0d3       1       2.1    28.086
   11342      st       1    MUSC   Si0d4       1       2.1    28.086
   11343      st       1    MUSC   Si0d5       1       2.1    28.086
   11344      st       1    MUSC   Si0d6       1       2.1    28.086
   11345      st       1    MUSC   Si0d7       1       2.1    28.086
   11346      st       1    MUSC   Si0d8       1       2.1    28.086
   11347      st       1    MUSC   Si0d9       1       2.1    28.086
   11348      st       1    MUSC   Si0dA       1       2.1    28.086
   11349      st       1    MUSC   Si0dB       1       2.1    28.086
   11350      st       1    MUSC   Si0dC       1       2.1    28.086
   11351      st       1    MUSC   Si0dD       1       2.1    28.086
   11352      st       1    MUSC   Si0dE       1       2.1    28.086
   11353      ob       1    MUSC   O01sv       1     -1.05    15.999
   11354      ob       1    MUSC   O01sw       1     -1.05    15.999
   11355      ob       1    MUSC   O01sx       1     -1.05    15.999
   11356      ob       1    MUSC   O01sy       1     -1.05    15.999
   11357      oh       1    MUSC   O01sz       1     -0.95    15.999
   11358      oh       1    MUSC   O01t0       1     -0.95    15.999
   11359      oh       1    MUSC   O01t1       1     -0.95    15.999
   11360      oh       1    MUSC   O01t2       1     -0.95    15.999
   11361      ob       1    MUSC   O01t3       1     -1.05    15.999
   11362      ob       1    MUSC   O01t4       1     -1.05    15.999
   11363      ob       1    MUSC   O01t5       1     -1.05    15.999
   11364      ob       1    MUSC   O01t6       1     -1.05    15.999
   11365      ob       1    MUSC   O01t7       1     -1.05    15.999
   11366      ob       1    MUSC   O01t8       1     -1.05    15.999
   11367      ob       1    MUSC   O01t9       1     -1.05    15.999
   11368      ob       1    MUSC   O01tA       1     -1.05    15.999
   11369      ob       1    MUSC   O01tB       1     -1.05    15.999
   11370      ob       1    MUSC   O01tC       1     -1.05    15.999
   11371      ob       1    MUSC   O01tD       1     -1.05    15.999
   11372      ob       1    MUSC   O01tE       1     -1.05    15.999
   11373      ob       1    MUSC   O01tF       1     -1.05    15.999
   11374      ob       1    MUSC   O01tG       1     -1.05    15.999
   11375      ob       1    MUSC   O01tH       1     -1.05    15.999
   11376      ob       1    MUSC   O01tI       1     -1.05    15.999
   11377      ob       1    MUSC   O01tJ       1     -1.05    15.999
   11378      ob       1    MUSC   O01tK       1     -1.05    15.999
   11379      ob       1    MUSC   O01tL       1     -1.05    15.999
   11380      ob       1    MUSC   O01tM       1     -1.05    15.999
   11381      oh       1    MUSC   O01tN       1     -0.95    15.999
   11382      oh       1    MUSC   O01tO       1     -0.95    15.999
   11383      oh       1    MUSC   O01tP       1     -0.95    15.999
   11384      oh       1    MUSC   O01tQ       1     -0.95    15.999
   11385      ob       1    MUSC   O01tR       1     -1.05    15.999
   11386      ob       1    MUSC   O01tS       1     -1.05    15.999
   11387      ob       1    MUSC   O01tT       1     -1.05    15.999
   11388      ob       1    MUSC   O01tU       1     -1.05    15.999
   11389      ob       1    MUSC   O01tV       1     -1.05    15.999
   11390      ob       1    MUSC   O01tW       1     -1.05    15.999
   11391      ob       1    MUSC   O01tX       1     -1.05    15.999
   11392      ob       1    MUSC   O01tY       1     -1.05    15.999
   11393      ob       1    MUSC   O01tZ       1     -1.05    15.999
   11394      ob       1    MUSC   O01ta       1     -1.05    15.999
   11395      ob       1    MUSC   O01tb       1     -1.05    15.999
   11396      ob       1    MUSC   O01tc       1     -1.05    15.999
   11397      ob       1    MUSC   O01td       1     -1.05    15.999
   11398      ob       1    MUSC   O01te       1     -1.05    15.999
   11399      ob       1    MUSC   O01tf       1     -1.05    15.999
   11400      ob       1    MUSC   O01tg       1     -1.05    15.999
   11401       K       1    MUSC   K007N       1       1.0    39.098
   11402       K       1    MUSC   K007O       1       1.0    39.098
   11403      ao       1    MUSC   Al0Jd       1     1.575    26.982
   11404      ao       1    MUSC   Al0Je       1     1.575    26.982
   11405      ao       1    MUSC   Al0Jf       1     1.575    26.982
   11406      ao       1    MUSC   Al0Jg       1     1.575    26.982
   11407      ao       1    MUSC   Al0Jh       1     1.575    26.982
   11408      ao       1    MUSC   Al0Ji       1     1.575    26.982
   11409      ao       1    MUSC   Al0Jj       1     1.575    26.982
   11410      ao       1    MUSC   Al0Jk       1     1.575    26.982
   11411      st       1    MUSC   Si0dF       1       2.1    28.086
   11412      st       1    MUSC   Si0dG       1       2.1    28.086
   11413      st       1    MUSC   Si0dH       1       2.1    28.086
   11414      st       1    MUSC   Si0dI       1       2.1    28.086
   11415      st       1    MUSC   Si0dJ       1       2.1    28.086
   11416      st       1    MUSC   Si0dK       1       2.1    28.086
   11417      st       1    MUSC   Si0dL       1       2.1    28.086
   11418      st       1    MUSC   Si0dM       1       2.1    28.086
   11419      st       1    MUSC   Si0dN       1       2.1    28.086
   11420      st       1    MUSC   Si0dO       1       2.1    28.086
   11421      st       1    MUSC   Si0dP       1       2.1    28.086
   11422      st       1    MUSC   Si0dQ       1       2.1    28.086
   11423      st       1    MUSC   Si0dR       1       2.1    28.086
   11424      st       1    MUSC   Si0dS       1       2.1    28.086
   11425      st       1    MUSC   Si0dT       1       2.1    28.086
   11426      st       1    MUSC   Si0dU       1       2.1    28.086
   11427      ob       1    MUSC   O01th       1     -1.05    15.999
   11428      ob       1    MUSC   O01ti       1     -1.05    15.999
   11429      ob       1    MUSC   O01tj       1     -1.05    15.999
   11430      ob       1    MUSC   O01tk       1     -1.05    15.999
   11431      oh       1    MUSC   O01tl       1     -0.95    15.999
   11432      oh       1    MUSC   O01tm       1     -0.95    15.999
   11433      oh       1    MUSC   O01tn       1     -0.95    15.999
   11434      oh       1    MUSC   O01to       1     -0.95    15.999
   11435      ob       1    MUSC   O01tp       1     -1.05    15.999
   11436      ob       1    MUSC   O01tq       1     -1.05    15.999
   11437      ob       1    MUSC   O01tr       1     -1.05    15.999
   11438      ob       1    MUSC   O01ts       1     -1.05    15.999
   11439      ob       1    MUSC   O01tt       1     -1.05    15.999
   11440      ob       1    MUSC   O01tu       1     -1.05    15.999
   11441      ob       1    MUSC   O01tv       1     -1.05    15.999
   11442      ob       1    MUSC   O01tw       1     -1.05    15.999
   11443      ob       1    MUSC   O01tx       1     -1.05    15.999
   11444      ob       1    MUSC   O01ty       1     -1.05    15.999
   11445      ob       1    MUSC   O01tz       1     -1.05    15.999
   11446      ob       1    MUSC   O01u0       1     -1.05    15.999
   11447      ob       1    MUSC   O01u1       1     -1.05    15.999
   11448      ob       1    MUSC   O01u2       1     -1.05    15.999
   11449      ob       1    MUSC   O01u3       1     -1.05    15.999
   11450      ob       1    MUSC   O01u4       1     -1.05    15.999
   11451      ob       1    MUSC   O01u5       1     -1.05    15.999
   11452      ob       1    MUSC   O01u6       1     -1.05    15.999
   11453      ob       1    MUSC   O01u7       1     -1.05    15.999
   11454      ob       1    MUSC   O01u8       1     -1.05    15.999
   11455      oh       1    MUSC   O01u9       1     -0.95    15.999
   11456      oh       1    MUSC   O01uA       1     -0.95    15.999
   11457      oh       1    MUSC   O01uB       1     -0.95    15.999
   11458      oh       1    MUSC   O01uC       1     -0.95    15.999
   11459      ob       1    MUSC   O01uD       1     -1.05    15.999
   11460      ob       1    MUSC   O01uE       1     -1.05    15.999
   11461      ob       1    MUSC   O01uF       1     -1.05    15.999
   11462      ob       1    MUSC   O01uG       1     -1.05    15.999
   11463      ob       1    MUSC   O01uH       1     -1.05    15.999
   11464      ob       1    MUSC   O01uI       1     -1.05    15.999
   11465      ob       1    MUSC   O01uJ       1     -1.05    15.999
   11466      ob       1    MUSC   O01uK       1     -1.05    15.999
   11467      ob       1    MUSC   O01uL       1     -1.05    15.999
   11468      ob       1    MUSC   O01uM       1     -1.05    15.999
   11469      ob       1    MUSC   O01uN       1     -1.05    15.999
   11470      ob       1    MUSC   O01uO       1     -1.05    15.999
   11471      ob       1    MUSC   O01uP       1     -1.05    15.999
   11472      ob       1    MUSC   O01uQ       1     -1.05    15.999
   11473      ob       1    MUSC   O01uR       1     -1.05    15.999
   11474      ob       1    MUSC   O01uS       1     -1.05    15.999
   11475       K       1    MUSC   K007P       1       1.0    39.098
   11476       K       1    MUSC   K007Q       1       1.0    39.098
   11477       K       1    MUSC   K007R       1       1.0    39.098
   11478       K       1    MUSC   K007S       1       1.0    39.098
   11479      ao       1    MUSC   Al0Jl       1     1.575    26.982
   11480      ao       1    MUSC   Al0Jm       1     1.575    26.982
   11481      ao       1    MUSC   Al0Jn       1     1.575    26.982
   11482      ao       1    MUSC   Al0Jo       1     1.575    26.982
   11483      ao       1    MUSC   Al0Jp       1     1.575    26.982
   11484      ao       1    MUSC   Al0Jq       1     1.575    26.982
   11485      ao       1    MUSC   Al0Jr       1     1.575    26.982
   11486      ao       1    MUSC   Al0Js       1     1.575    26.982
   11487      st       1    MUSC   Si0dV       1       2.1    28.086
   11488      st       1    MUSC   Si0dW       1       2.1    28.086
   11489      st       1    MUSC   Si0dX       1       2.1    28.086
   11490      st       1    MUSC   Si0dY       1       2.1    28.086
   11491      st       1    MUSC   Si0dZ       1       2.1    28.086
   11492      st       1    MUSC   Si0da       1       2.1    28.086
   11493      st       1    MUSC   Si0db       1       2.1    28.086
   11494      st       1    MUSC   Si0dc       1       2.1    28.086
   11495      st       1    MUSC   Si0dd       1       2.1    28.086
   11496      st       1    MUSC   Si0de       1       2.1    28.086
   11497      st       1    MUSC   Si0df       1       2.1    28.086
   11498      st       1    MUSC   Si0dg       1       2.1    28.086
   11499      st       1    MUSC   Si0dh       1       2.1    28.086
   11500      st       1    MUSC   Si0di       1       2.1    28.086
   11501      st       1    MUSC   Si0dj       1       2.1    28.086
   11502      st       1    MUSC   Si0dk       1       2.1    28.086
   11503      ob       1    MUSC   O01uT       1     -1.05    15.999
   11504      ob       1    MUSC   O01uU       1     -1.05    15.999
   11505      ob       1    MUSC   O01uV       1     -1.05    15.999
   11506      ob       1    MUSC   O01uW       1     -1.05    15.999
   11507      oh       1    MUSC   O01uX       1     -0.95    15.999
   11508      oh       1    MUSC   O01uY       1     -0.95    15.999
   11509      oh       1    MUSC   O01uZ       1     -0.95    15.999
   11510      oh       1    MUSC   O01ua       1     -0.95    15.999
   11511      ob       1    MUSC   O01ub       1     -1.05    15.999
   11512      ob       1    MUSC   O01uc       1     -1.05    15.999
   11513      ob       1    MUSC   O01ud       1     -1.05    15.999
   11514      ob       1    MUSC   O01ue       1     -1.05    15.999
   11515      ob       1    MUSC   O01uf       1     -1.05    15.999
   11516      ob       1    MUSC   O01ug       1     -1.05    15.999
   11517      ob       1    MUSC   O01uh       1     -1.05    15.999
   11518      ob       1    MUSC   O01ui       1     -1.05    15.999
   11519      ob       1    MUSC   O01uj       1     -1.05    15.999
   11520      ob       1    MUSC   O01uk       1     -1.05    15.999
   11521      ob       1    MUSC   O01ul       1     -1.05    15.999
   11522      ob       1    MUSC   O01um       1     -1.05    15.999
   11523      ob       1    MUSC   O01un       1     -1.05    15.999
   11524      ob       1    MUSC   O01uo       1     -1.05    15.999
   11525      ob       1    MUSC   O01up       1     -1.05    15.999
   11526      ob       1    MUSC   O01uq       1     -1.05    15.999
   11527      ob       1    MUSC   O01ur       1     -1.05    15.999
   11528      ob       1    MUSC   O01us       1     -1.05    15.999
   11529      ob       1    MUSC   O01ut       1     -1.05    15.999
   11530      ob       1    MUSC   O01uu       1     -1.05    15.999
   11531      oh       1    MUSC   O01uv       1     -0.95    15.999
   11532      oh       1    MUSC   O01uw       1     -0.95    15.999
   11533      oh       1    MUSC   O01ux       1     -0.95    15.999
   11534      oh       1    MUSC   O01uy       1     -0.95    15.999
   11535      ob       1    MUSC   O01uz       1     -1.05    15.999
   11536      ob       1    MUSC   O01v0       1     -1.05    15.999
   11537      ob       1    MUSC   O01v1       1     -1.05    15.999
   11538      ob       1    MUSC   O01v2       1     -1.05    15.999
   11539      ob       1    MUSC   O01v3       1     -1.05    15.999
   11540      ob       1    MUSC   O01v4       1     -1.05    15.999
   11541      ob       1    MUSC   O01v5       1     -1.05    15.999
   11542      ob       1    MUSC   O01v6       1     -1.05    15.999
   11543      ob       1    MUSC   O01v7       1     -1.05    15.999
   11544      ob       1    MUSC   O01v8       1     -1.05    15.999
   11545      ob       1    MUSC   O01v9       1     -1.05    15.999
   11546      ob       1    MUSC   O01vA       1     -1.05    15.999
   11547      ob       1    MUSC   O01vB       1     -1.05    15.999
   11548      ob       1    MUSC   O01vC       1     -1.05    15.999
   11549      ob       1    MUSC   O01vD       1     -1.05    15.999
   11550      ob       1    MUSC   O01vE       1     -1.05    15.999
   11551       K       1    MUSC   K007T       1       1.0    39.098
   11552       K       1    MUSC   K007U       1       1.0    39.098
   11553      ao       1    MUSC   Al0Jt       1     1.575    26.982
   11554      ao       1    MUSC   Al0Ju       1     1.575    26.982
   11555      ao       1    MUSC   Al0Jv       1     1.575    26.982
   11556      ao       1    MUSC   Al0Jw       1     1.575    26.982
   11557      ao       1    MUSC   Al0Jx       1     1.575    26.982
   11558      ao       1    MUSC   Al0Jy       1     1.575    26.982
   11559      ao       1    MUSC   Al0Jz       1     1.575    26.982
   11560      ao       1    MUSC   Al0K0       1     1.575    26.982
   11561      st       1    MUSC   Si0dl       1       2.1    28.086
   11562      st       1    MUSC   Si0dm       1       2.1    28.086
   11563      st       1    MUSC   Si0dn       1       2.1    28.086
   11564      st       1    MUSC   Si0do       1       2.1    28.086
   11565      st       1    MUSC   Si0dp       1       2.1    28.086
   11566      st       1    MUSC   Si0dq       1       2.1    28.086
   11567      st       1    MUSC   Si0dr       1       2.1    28.086
   11568      st       1    MUSC   Si0ds       1       2.1    28.086
   11569      st       1    MUSC   Si0dt       1       2.1    28.086
   11570      st       1    MUSC   Si0du       1       2.1    28.086
   11571      st       1    MUSC   Si0dv       1       2.1    28.086
   11572      st       1    MUSC   Si0dw       1       2.1    28.086
   11573      st       1    MUSC   Si0dx       1       2.1    28.086
   11574      st       1    MUSC   Si0dy       1       2.1    28.086
   11575      st       1    MUSC   Si0dz       1       2.1    28.086
   11576      st       1    MUSC   Si0e0       1       2.1    28.086
   11577      ob       1    MUSC   O01vF       1     -1.05    15.999
   11578      ob       1    MUSC   O01vG       1     -1.05    15.999
   11579      ob       1    MUSC   O01vH       1     -1.05    15.999
   11580      ob       1    MUSC   O01vI       1     -1.05    15.999
   11581      oh       1    MUSC   O01vJ       1     -0.95    15.999
   11582      oh       1    MUSC   O01vK       1     -0.95    15.999
   11583      oh       1    MUSC   O01vL       1     -0.95    15.999
   11584      oh       1    MUSC   O01vM       1     -0.95    15.999
   11585      ob       1    MUSC   O01vN       1     -1.05    15.999
   11586      ob       1    MUSC   O01vO       1     -1.05    15.999
   11587      ob       1    MUSC   O01vP       1     -1.05    15.999
   11588      ob       1    MUSC   O01vQ       1     -1.05    15.999
   11589      ob       1    MUSC   O01vR       1     -1.05    15.999
   11590      ob       1    MUSC   O01vS       1     -1.05    15.999
   11591      ob       1    MUSC   O01vT       1     -1.05    15.999
   11592      ob       1    MUSC   O01vU       1     -1.05    15.999
   11593      ob       1    MUSC   O01vV       1     -1.05    15.999
   11594      ob       1    MUSC   O01vW       1     -1.05    15.999
   11595      ob       1    MUSC   O01vX       1     -1.05    15.999
   11596      ob       1    MUSC   O01vY       1     -1.05    15.999
   11597      ob       1    MUSC   O01vZ       1     -1.05    15.999
   11598      ob       1    MUSC   O01va       1     -1.05    15.999
   11599      ob       1    MUSC   O01vb       1     -1.05    15.999
   11600      ob       1    MUSC   O01vc       1     -1.05    15.999
   11601      ob       1    MUSC   O01vd       1     -1.05    15.999
   11602      ob       1    MUSC   O01ve       1     -1.05    15.999
   11603      ob       1    MUSC   O01vf       1     -1.05    15.999
   11604      ob       1    MUSC   O01vg       1     -1.05    15.999
   11605      oh       1    MUSC   O01vh       1     -0.95    15.999
   11606      oh       1    MUSC   O01vi       1     -0.95    15.999
   11607      oh       1    MUSC   O01vj       1     -0.95    15.999
   11608      oh       1    MUSC   O01vk       1     -0.95    15.999
   11609      ob       1    MUSC   O01vl       1     -1.05    15.999
   11610      ob       1    MUSC   O01vm       1     -1.05    15.999
   11611      ob       1    MUSC   O01vn       1     -1.05    15.999
   11612      ob       1    MUSC   O01vo       1     -1.05    15.999
   11613      ob       1    MUSC   O01vp       1     -1.05    15.999
   11614      ob       1    MUSC   O01vq       1     -1.05    15.999
   11615      ob       1    MUSC   O01vr       1     -1.05    15.999
   11616      ob       1    MUSC   O01vs       1     -1.05    15.999
   11617      ob       1    MUSC   O01vt       1     -1.05    15.999
   11618      ob       1    MUSC   O01vu       1     -1.05    15.999
   11619      ob       1    MUSC   O01vv       1     -1.05    15.999
   11620      ob       1    MUSC   O01vw       1     -1.05    15.999
   11621      ob       1    MUSC   O01vx       1     -1.05    15.999
   11622      ob       1    MUSC   O01vy       1     -1.05    15.999
   11623      ob       1    MUSC   O01vz       1     -1.05    15.999
   11624      ob       1    MUSC   O01w0       1     -1.05    15.999
   11625       K       1    MUSC   K007V       1       1.0    39.098
   11626       K       1    MUSC   K007W       1       1.0    39.098
   11627       K       1    MUSC   K007X       1       1.0    39.098
   11628       K       1    MUSC   K007Y       1       1.0    39.098
   11629      ao       1    MUSC   Al0K1       1     1.575    26.982
   11630      ao       1    MUSC   Al0K2       1     1.575    26.982
   11631      ao       1    MUSC   Al0K3       1     1.575    26.982
   11632      ao       1    MUSC   Al0K4       1     1.575    26.982
   11633      ao       1    MUSC   Al0K5       1     1.575    26.982
   11634      ao       1    MUSC   Al0K6       1     1.575    26.982
   11635      ao       1    MUSC   Al0K7       1     1.575    26.982
   11636      ao       1    MUSC   Al0K8       1     1.575    26.982
   11637      st       1    MUSC   Si0e1       1       2.1    28.086
   11638      st       1    MUSC   Si0e2       1       2.1    28.086
   11639      st       1    MUSC   Si0e3       1       2.1    28.086
   11640      st       1    MUSC   Si0e4       1       2.1    28.086
   11641      st       1    MUSC   Si0e5       1       2.1    28.086
   11642      st       1    MUSC   Si0e6       1       2.1    28.086
   11643      st       1    MUSC   Si0e7       1       2.1    28.086
   11644      st       1    MUSC   Si0e8       1       2.1    28.086
   11645      st       1    MUSC   Si0e9       1       2.1    28.086
   11646      st       1    MUSC   Si0eA       1       2.1    28.086
   11647      st       1    MUSC   Si0eB       1       2.1    28.086
   11648      st       1    MUSC   Si0eC       1       2.1    28.086
   11649      st       1    MUSC   Si0eD       1       2.1    28.086
   11650      st       1    MUSC   Si0eE       1       2.1    28.086
   11651      st       1    MUSC   Si0eF       1       2.1    28.086
   11652      st       1    MUSC   Si0eG       1       2.1    28.086
   11653      ob       1    MUSC   O01w1       1     -1.05    15.999
   11654      ob       1    MUSC   O01w2       1     -1.05    15.999
   11655      ob       1    MUSC   O01w3       1     -1.05    15.999
   11656      ob       1    MUSC   O01w4       1     -1.05    15.999
   11657      oh       1    MUSC   O01w5       1     -0.95    15.999
   11658      oh       1    MUSC   O01w6       1     -0.95    15.999
   11659      oh       1    MUSC   O01w7       1     -0.95    15.999
   11660      oh       1    MUSC   O01w8       1     -0.95    15.999
   11661      ob       1    MUSC   O01w9       1     -1.05    15.999
   11662      ob       1    MUSC   O01wA       1     -1.05    15.999
   11663      ob       1    MUSC   O01wB       1     -1.05    15.999
   11664      ob       1    MUSC   O01wC       1     -1.05    15.999
   11665      ob       1    MUSC   O01wD       1     -1.05    15.999
   11666      ob       1    MUSC   O01wE       1     -1.05    15.999
   11667      ob       1    MUSC   O01wF       1     -1.05    15.999
   11668      ob       1    MUSC   O01wG       1     -1.05    15.999
   11669      ob       1    MUSC   O01wH       1     -1.05    15.999
   11670      ob       1    MUSC   O01wI       1     -1.05    15.999
   11671      ob       1    MUSC   O01wJ       1     -1.05    15.999
   11672      ob       1    MUSC   O01wK       1     -1.05    15.999
   11673      ob       1    MUSC   O01wL       1     -1.05    15.999
   11674      ob       1    MUSC   O01wM       1     -1.05    15.999
   11675      ob       1    MUSC   O01wN       1     -1.05    15.999
   11676      ob       1    MUSC   O01wO       1     -1.05    15.999
   11677      ob       1    MUSC   O01wP       1     -1.05    15.999
   11678      ob       1    MUSC   O01wQ       1     -1.05    15.999
   11679      ob       1    MUSC   O01wR       1     -1.05    15.999
   11680      ob       1    MUSC   O01wS       1     -1.05    15.999
   11681      oh       1    MUSC   O01wT       1     -0.95    15.999
   11682      oh       1    MUSC   O01wU       1     -0.95    15.999
   11683      oh       1    MUSC   O01wV       1     -0.95    15.999
   11684      oh       1    MUSC   O01wW       1     -0.95    15.999
   11685      ob       1    MUSC   O01wX       1     -1.05    15.999
   11686      ob       1    MUSC   O01wY       1     -1.05    15.999
   11687      ob       1    MUSC   O01wZ       1     -1.05    15.999
   11688      ob       1    MUSC   O01wa       1     -1.05    15.999
   11689      ob       1    MUSC   O01wb       1     -1.05    15.999
   11690      ob       1    MUSC   O01wc       1     -1.05    15.999
   11691      ob       1    MUSC   O01wd       1     -1.05    15.999
   11692      ob       1    MUSC   O01we       1     -1.05    15.999
   11693      ob       1    MUSC   O01wf       1     -1.05    15.999
   11694      ob       1    MUSC   O01wg       1     -1.05    15.999
   11695      ob       1    MUSC   O01wh       1     -1.05    15.999
   11696      ob       1    MUSC   O01wi       1     -1.05    15.999
   11697      ob       1    MUSC   O01wj       1     -1.05    15.999
   11698      ob       1    MUSC   O01wk       1     -1.05    15.999
   11699      ob       1    MUSC   O01wl       1     -1.05    15.999
   11700      ob       1    MUSC   O01wm       1     -1.05    15.999
   11701       K       1    MUSC   K007Z       1       1.0    39.098
   11702       K       1    MUSC   K007a       1       1.0    39.098
   11703      ao       1    MUSC   Al0K9       1     1.575    26.982
   11704      ao       1    MUSC   Al0KA       1     1.575    26.982
   11705      ao       1    MUSC   Al0KB       1     1.575    26.982
   11706      ao       1    MUSC   Al0KC       1     1.575    26.982
   11707      ao       1    MUSC   Al0KD       1     1.575    26.982
   11708      ao       1    MUSC   Al0KE       1     1.575    26.982
   11709      ao       1    MUSC   Al0KF       1     1.575    26.982
   11710      ao       1    MUSC   Al0KG       1     1.575    26.982
   11711      st       1    MUSC   Si0eH       1       2.1    28.086
   11712      st       1    MUSC   Si0eI       1       2.1    28.086
   11713      st       1    MUSC   Si0eJ       1       2.1    28.086
   11714      st       1    MUSC   Si0eK       1       2.1    28.086
   11715      st       1    MUSC   Si0eL       1       2.1    28.086
   11716      st       1    MUSC   Si0eM       1       2.1    28.086
   11717      st       1    MUSC   Si0eN       1       2.1    28.086
   11718      st       1    MUSC   Si0eO       1       2.1    28.086
   11719      st       1    MUSC   Si0eP       1       2.1    28.086
   11720      st       1    MUSC   Si0eQ       1       2.1    28.086
   11721      st       1    MUSC   Si0eR       1       2.1    28.086
   11722      st       1    MUSC   Si0eS       1       2.1    28.086
   11723      st       1    MUSC   Si0eT       1       2.1    28.086
   11724      st       1    MUSC   Si0eU       1       2.1    28.086
   11725      st       1    MUSC   Si0eV       1       2.1    28.086
   11726      st       1    MUSC   Si0eW       1       2.1    28.086
   11727      ob       1    MUSC   O01wn       1     -1.05    15.999
   11728      ob       1    MUSC   O01wo       1     -1.05    15.999
   11729      ob       1    MUSC   O01wp       1     -1.05    15.999
   11730      ob       1    MUSC   O01wq       1     -1.05    15.999
   11731      oh       1    MUSC   O01wr       1     -0.95    15.999
   11732      oh       1    MUSC   O01ws       1     -0.95    15.999
   11733      oh       1    MUSC   O01wt       1     -0.95    15.999
   11734      oh       1    MUSC   O01wu       1     -0.95    15.999
   11735      ob       1    MUSC   O01wv       1     -1.05    15.999
   11736      ob       1    MUSC   O01ww       1     -1.05    15.999
   11737      ob       1    MUSC   O01wx       1     -1.05    15.999
   11738      ob       1    MUSC   O01wy       1     -1.05    15.999
   11739      ob       1    MUSC   O01wz       1     -1.05    15.999
   11740      ob       1    MUSC   O01x0       1     -1.05    15.999
   11741      ob       1    MUSC   O01x1       1     -1.05    15.999
   11742      ob       1    MUSC   O01x2       1     -1.05    15.999
   11743      ob       1    MUSC   O01x3       1     -1.05    15.999
   11744      ob       1    MUSC   O01x4       1     -1.05    15.999
   11745      ob       1    MUSC   O01x5       1     -1.05    15.999
   11746      ob       1    MUSC   O01x6       1     -1.05    15.999
   11747      ob       1    MUSC   O01x7       1     -1.05    15.999
   11748      ob       1    MUSC   O01x8       1     -1.05    15.999
   11749      ob       1    MUSC   O01x9       1     -1.05    15.999
   11750      ob       1    MUSC   O01xA       1     -1.05    15.999
   11751      ob       1    MUSC   O01xB       1     -1.05    15.999
   11752      ob       1    MUSC   O01xC       1     -1.05    15.999
   11753      ob       1    MUSC   O01xD       1     -1.05    15.999
   11754      ob       1    MUSC   O01xE       1     -1.05    15.999
   11755      oh       1    MUSC   O01xF       1     -0.95    15.999
   11756      oh       1    MUSC   O01xG       1     -0.95    15.999
   11757      oh       1    MUSC   O01xH       1     -0.95    15.999
   11758      oh       1    MUSC   O01xI       1     -0.95    15.999
   11759      ob       1    MUSC   O01xJ       1     -1.05    15.999
   11760      ob       1    MUSC   O01xK       1     -1.05    15.999
   11761      ob       1    MUSC   O01xL       1     -1.05    15.999
   11762      ob       1    MUSC   O01xM       1     -1.05    15.999
   11763      ob       1    MUSC   O01xN       1     -1.05    15.999
   11764      ob       1    MUSC   O01xO       1     -1.05    15.999
   11765      ob       1    MUSC   O01xP       1     -1.05    15.999
   11766      ob       1    MUSC   O01xQ       1     -1.05    15.999
   11767      ob       1    MUSC   O01xR       1     -1.05    15.999
   11768      ob       1    MUSC   O01xS       1     -1.05    15.999
   11769      ob       1    MUSC   O01xT       1     -1.05    15.999
   11770      ob       1    MUSC   O01xU       1     -1.05    15.999
   11771      ob       1    MUSC   O01xV       1     -1.05    15.999
   11772      ob       1    MUSC   O01xW       1     -1.05    15.999
   11773      ob       1    MUSC   O01xX       1     -1.05    15.999
   11774      ob       1    MUSC   O01xY       1     -1.05    15.999
   11775       K       1    MUSC   K007b       1       1.0    39.098
   11776       K       1    MUSC   K007c       1       1.0    39.098
   11777       K       1    MUSC   K007d       1       1.0    39.098
   11778       K       1    MUSC   K007e       1       1.0    39.098
   11779      ao       1    MUSC   Al0KH       1     1.575    26.982
   11780      ao       1    MUSC   Al0KI       1     1.575    26.982
   11781      ao       1    MUSC   Al0KJ       1     1.575    26.982
   11782      ao       1    MUSC   Al0KK       1     1.575    26.982
   11783      ao       1    MUSC   Al0KL       1     1.575    26.982
   11784      ao       1    MUSC   Al0KM       1     1.575    26.982
   11785      ao       1    MUSC   Al0KN       1     1.575    26.982
   11786      ao       1    MUSC   Al0KO       1     1.575    26.982
   11787      st       1    MUSC   Si0eX       1       2.1    28.086
   11788      st       1    MUSC   Si0eY       1       2.1    28.086
   11789      st       1    MUSC   Si0eZ       1       2.1    28.086
   11790      st       1    MUSC   Si0ea       1       2.1    28.086
   11791      st       1    MUSC   Si0eb       1       2.1    28.086
   11792      st       1    MUSC   Si0ec       1       2.1    28.086
   11793      st       1    MUSC   Si0ed       1       2.1    28.086
   11794      st       1    MUSC   Si0ee       1       2.1    28.086
   11795      st       1    MUSC   Si0ef       1       2.1    28.086
   11796      st       1    MUSC   Si0eg       1       2.1    28.086
   11797      st       1    MUSC   Si0eh       1       2.1    28.086
   11798      st       1    MUSC   Si0ei       1       2.1    28.086
   11799      st       1    MUSC   Si0ej       1       2.1    28.086
   11800      st       1    MUSC   Si0ek       1       2.1    28.086
   11801      st       1    MUSC   Si0el       1       2.1    28.086
   11802      st       1    MUSC   Si0em       1       2.1    28.086
   11803      ob       1    MUSC   O01xZ       1     -1.05    15.999
   11804      ob       1    MUSC   O01xa       1     -1.05    15.999
   11805      ob       1    MUSC   O01xb       1     -1.05    15.999
   11806      ob       1    MUSC   O01xc       1     -1.05    15.999
   11807      oh       1    MUSC   O01xd       1     -0.95    15.999
   11808      oh       1    MUSC   O01xe       1     -0.95    15.999
   11809      oh       1    MUSC   O01xf       1     -0.95    15.999
   11810      oh       1    MUSC   O01xg       1     -0.95    15.999
   11811      ob       1    MUSC   O01xh       1     -1.05    15.999
   11812      ob       1    MUSC   O01xi       1     -1.05    15.999
   11813      ob       1    MUSC   O01xj       1     -1.05    15.999
   11814      ob       1    MUSC   O01xk       1     -1.05    15.999
   11815      ob       1    MUSC   O01xl       1     -1.05    15.999
   11816      ob       1    MUSC   O01xm       1     -1.05    15.999
   11817      ob       1    MUSC   O01xn       1     -1.05    15.999
   11818      ob       1    MUSC   O01xo       1     -1.05    15.999
   11819      ob       1    MUSC   O01xp       1     -1.05    15.999
   11820      ob       1    MUSC   O01xq       1     -1.05    15.999
   11821      ob       1    MUSC   O01xr       1     -1.05    15.999
   11822      ob       1    MUSC   O01xs       1     -1.05    15.999
   11823      ob       1    MUSC   O01xt       1     -1.05    15.999
   11824      ob       1    MUSC   O01xu       1     -1.05    15.999
   11825      ob       1    MUSC   O01xv       1     -1.05    15.999
   11826      ob       1    MUSC   O01xw       1     -1.05    15.999
   11827      ob       1    MUSC   O01xx       1     -1.05    15.999
   11828      ob       1    MUSC   O01xy       1     -1.05    15.999
   11829      ob       1    MUSC   O01xz       1     -1.05    15.999
   11830      ob       1    MUSC   O01y0       1     -1.05    15.999
   11831      oh       1    MUSC   O01y1       1     -0.95    15.999
   11832      oh       1    MUSC   O01y2       1     -0.95    15.999
   11833      oh       1    MUSC   O01y3       1     -0.95    15.999
   11834      oh       1    MUSC   O01y4       1     -0.95    15.999
   11835      ob       1    MUSC   O01y5       1     -1.05    15.999
   11836      ob       1    MUSC   O01y6       1     -1.05    15.999
   11837      ob       1    MUSC   O01y7       1     -1.05    15.999
   11838      ob       1    MUSC   O01y8       1     -1.05    15.999
   11839      ob       1    MUSC   O01y9       1     -1.05    15.999
   11840      ob       1    MUSC   O01yA       1     -1.05    15.999
   11841      ob       1    MUSC   O01yB       1     -1.05    15.999
   11842      ob       1    MUSC   O01yC       1     -1.05    15.999
   11843      ob       1    MUSC   O01yD       1     -1.05    15.999
   11844      ob       1    MUSC   O01yE       1     -1.05    15.999
   11845      ob       1    MUSC   O01yF       1     -1.05    15.999
   11846      ob       1    MUSC   O01yG       1     -1.05    15.999
   11847      ob       1    MUSC   O01yH       1     -1.05    15.999
   11848      ob       1    MUSC   O01yI       1     -1.05    15.999
   11849      ob       1    MUSC   O01yJ       1     -1.05    15.999
   11850      ob       1    MUSC   O01yK       1     -1.05    15.999
   11851       K       1    MUSC   K007f       1       1.0    39.098
   11852       K       1    MUSC   K007g       1       1.0    39.098
   11853      ao       1    MUSC   Al0KP       1     1.575    26.982
   11854      ao       1    MUSC   Al0KQ       1     1.575    26.982
   11855      ao       1    MUSC   Al0KR       1     1.575    26.982
   11856      ao       1    MUSC   Al0KS       1     1.575    26.982
   11857      ao       1    MUSC   Al0KT       1     1.575    26.982
   11858      ao       1    MUSC   Al0KU       1     1.575    26.982
   11859      ao       1    MUSC   Al0KV       1     1.575    26.982
   11860      ao       1    MUSC   Al0KW       1     1.575    26.982
   11861      st       1    MUSC   Si0en       1       2.1    28.086
   11862      st       1    MUSC   Si0eo       1       2.1    28.086
   11863      st       1    MUSC   Si0ep       1       2.1    28.086
   11864      st       1    MUSC   Si0eq       1       2.1    28.086
   11865      st       1    MUSC   Si0er       1       2.1    28.086
   11866      st       1    MUSC   Si0es       1       2.1    28.086
   11867      st       1    MUSC   Si0et       1       2.1    28.086
   11868      st       1    MUSC   Si0eu       1       2.1    28.086
   11869      st       1    MUSC   Si0ev       1       2.1    28.086
   11870      st       1    MUSC   Si0ew       1       2.1    28.086
   11871      st       1    MUSC   Si0ex       1       2.1    28.086
   11872      st       1    MUSC   Si0ey       1       2.1    28.086
   11873      st       1    MUSC   Si0ez       1       2.1    28.086
   11874      st       1    MUSC   Si0f0       1       2.1    28.086
   11875      st       1    MUSC   Si0f1       1       2.1    28.086
   11876      st       1    MUSC   Si0f2       1       2.1    28.086
   11877      ob       1    MUSC   O01yL       1     -1.05    15.999
   11878      ob       1    MUSC   O01yM       1     -1.05    15.999
   11879      ob       1    MUSC   O01yN       1     -1.05    15.999
   11880      ob       1    MUSC   O01yO       1     -1.05    15.999
   11881      oh       1    MUSC   O01yP       1     -0.95    15.999
   11882      oh       1    MUSC   O01yQ       1     -0.95    15.999
   11883      oh       1    MUSC   O01yR       1     -0.95    15.999
   11884      oh       1    MUSC   O01yS       1     -0.95    15.999
   11885      ob       1    MUSC   O01yT       1     -1.05    15.999
   11886      ob       1    MUSC   O01yU       1     -1.05    15.999
   11887      ob       1    MUSC   O01yV       1     -1.05    15.999
   11888      ob       1    MUSC   O01yW       1     -1.05    15.999
   11889      ob       1    MUSC   O01yX       1     -1.05    15.999
   11890      ob       1    MUSC   O01yY       1     -1.05    15.999
   11891      ob       1    MUSC   O01yZ       1     -1.05    15.999
   11892      ob       1    MUSC   O01ya       1     -1.05    15.999
   11893      ob       1    MUSC   O01yb       1     -1.05    15.999
   11894      ob       1    MUSC   O01yc       1     -1.05    15.999
   11895      ob       1    MUSC   O01yd       1     -1.05    15.999
   11896      ob       1    MUSC   O01ye       1     -1.05    15.999
   11897      ob       1    MUSC   O01yf       1     -1.05    15.999
   11898      ob       1    MUSC   O01yg       1     -1.05    15.999
   11899      ob       1    MUSC   O01yh       1     -1.05    15.999
   11900      ob       1    MUSC   O01yi       1     -1.05    15.999
   11901      ob       1    MUSC   O01yj       1     -1.05    15.999
   11902      ob       1    MUSC   O01yk       1     -1.05    15.999
   11903      ob       1    MUSC   O01yl       1     -1.05    15.999
   11904      ob       1    MUSC   O01ym       1     -1.05    15.999
   11905      oh       1    MUSC   O01yn       1     -0.95    15.999
   11906      oh       1    MUSC   O01yo       1     -0.95    15.999
   11907      oh       1    MUSC   O01yp       1     -0.95    15.999
   11908      oh       1    MUSC   O01yq       1     -0.95    15.999
   11909      ob       1    MUSC   O01yr       1     -1.05    15.999
   11910      ob       1    MUSC   O01ys       1     -1.05    15.999
   11911      ob       1    MUSC   O01yt       1     -1.05    15.999
   11912      ob       1    MUSC   O01yu       1     -1.05    15.999
   11913      ob       1    MUSC   O01yv       1     -1.05    15.999
   11914      ob       1    MUSC   O01yw       1     -1.05    15.999
   11915      ob       1    MUSC   O01yx       1     -1.05    15.999
   11916      ob       1    MUSC   O01yy       1     -1.05    15.999
   11917      ob       1    MUSC   O01yz       1     -1.05    15.999
   11918      ob       1    MUSC   O01z0       1     -1.05    15.999
   11919      ob       1    MUSC   O01z1       1     -1.05    15.999
   11920      ob       1    MUSC   O01z2       1     -1.05    15.999
   11921      ob       1    MUSC   O01z3       1     -1.05    15.999
   11922      ob       1    MUSC   O01z4       1     -1.05    15.999
   11923      ob       1    MUSC   O01z5       1     -1.05    15.999
   11924      ob       1    MUSC   O01z6       1     -1.05    15.999
   11925       K       1    MUSC   K007h       1       1.0    39.098
   11926       K       1    MUSC   K007i       1       1.0    39.098
   11927       K       1    MUSC   K007j       1       1.0    39.098
   11928       K       1    MUSC   K007k       1       1.0    39.098
   11929      ao       1    MUSC   Al0KX       1     1.575    26.982
   11930      ao       1    MUSC   Al0KY       1     1.575    26.982
   11931      ao       1    MUSC   Al0KZ       1     1.575    26.982
   11932      ao       1    MUSC   Al0Ka       1     1.575    26.982
   11933      ao       1    MUSC   Al0Kb       1     1.575    26.982
   11934      ao       1    MUSC   Al0Kc       1     1.575    26.982
   11935      ao       1    MUSC   Al0Kd       1     1.575    26.982
   11936      ao       1    MUSC   Al0Ke       1     1.575    26.982
   11937      st       1    MUSC   Si0f3       1       2.1    28.086
   11938      st       1    MUSC   Si0f4       1       2.1    28.086
   11939      st       1    MUSC   Si0f5       1       2.1    28.086
   11940      st       1    MUSC   Si0f6       1       2.1    28.086
   11941      st       1    MUSC   Si0f7       1       2.1    28.086
   11942      st       1    MUSC   Si0f8       1       2.1    28.086
   11943      st       1    MUSC   Si0f9       1       2.1    28.086
   11944      st       1    MUSC   Si0fA       1       2.1    28.086
   11945      st       1    MUSC   Si0fB       1       2.1    28.086
   11946      st       1    MUSC   Si0fC       1       2.1    28.086
   11947      st       1    MUSC   Si0fD       1       2.1    28.086
   11948      st       1    MUSC   Si0fE       1       2.1    28.086
   11949      st       1    MUSC   Si0fF       1       2.1    28.086
   11950      st       1    MUSC   Si0fG       1       2.1    28.086
   11951      st       1    MUSC   Si0fH       1       2.1    28.086
   11952      st       1    MUSC   Si0fI       1       2.1    28.086
   11953      ob       1    MUSC   O01z7       1     -1.05    15.999
   11954      ob       1    MUSC   O01z8       1     -1.05    15.999
   11955      ob       1    MUSC   O01z9       1     -1.05    15.999
   11956      ob       1    MUSC   O01zA       1     -1.05    15.999
   11957      oh       1    MUSC   O01zB       1     -0.95    15.999
   11958      oh       1    MUSC   O01zC       1     -0.95    15.999
   11959      oh       1    MUSC   O01zD       1     -0.95    15.999
   11960      oh       1    MUSC   O01zE       1     -0.95    15.999
   11961      ob       1    MUSC   O01zF       1     -1.05    15.999
   11962      ob       1    MUSC   O01zG       1     -1.05    15.999
   11963      ob       1    MUSC   O01zH       1     -1.05    15.999
   11964      ob       1    MUSC   O01zI       1     -1.05    15.999
   11965      ob       1    MUSC   O01zJ       1     -1.05    15.999
   11966      ob       1    MUSC   O01zK       1     -1.05    15.999
   11967      ob       1    MUSC   O01zL       1     -1.05    15.999
   11968      ob       1    MUSC   O01zM       1     -1.05    15.999
   11969      ob       1    MUSC   O01zN       1     -1.05    15.999
   11970      ob       1    MUSC   O01zO       1     -1.05    15.999
   11971      ob       1    MUSC   O01zP       1     -1.05    15.999
   11972      ob       1    MUSC   O01zQ       1     -1.05    15.999
   11973      ob       1    MUSC   O01zR       1     -1.05    15.999
   11974      ob       1    MUSC   O01zS       1     -1.05    15.999
   11975      ob       1    MUSC   O01zT       1     -1.05    15.999
   11976      ob       1    MUSC   O01zU       1     -1.05    15.999
   11977      ob       1    MUSC   O01zV       1     -1.05    15.999
   11978      ob       1    MUSC   O01zW       1     -1.05    15.999
   11979      ob       1    MUSC   O01zX       1     -1.05    15.999
   11980      ob       1    MUSC   O01zY       1     -1.05    15.999
   11981      oh       1    MUSC   O01zZ       1     -0.95    15.999
   11982      oh       1    MUSC   O01za       1     -0.95    15.999
   11983      oh       1    MUSC   O01zb       1     -0.95    15.999
   11984      oh       1    MUSC   O01zc       1     -0.95    15.999
   11985      ob       1    MUSC   O01zd       1     -1.05    15.999
   11986      ob       1    MUSC   O01ze       1     -1.05    15.999
   11987      ob       1    MUSC   O01zf       1     -1.05    15.999
   11988      ob       1    MUSC   O01zg       1     -1.05    15.999
   11989      ob       1    MUSC   O01zh       1     -1.05    15.999
   11990      ob       1    MUSC   O01zi       1     -1.05    15.999
   11991      ob       1    MUSC   O01zj       1     -1.05    15.999
   11992      ob       1    MUSC   O01zk       1     -1.05    15.999
   11993      ob       1    MUSC   O01zl       1     -1.05    15.999
   11994      ob       1    MUSC   O01zm       1     -1.05    15.999
   11995      ob       1    MUSC   O01zn       1     -1.05    15.999
   11996      ob       1    MUSC   O01zo       1     -1.05    15.999
   11997      ob       1    MUSC   O01zp       1     -1.05    15.999
   11998      ob       1    MUSC   O01zq       1     -1.05    15.999
   11999      ob       1    MUSC   O01zr       1     -1.05    15.999
   12000      ob       1    MUSC   O01zs       1     -1.05    15.999
   12001       K       1    MUSC   K007l       1       1.0    39.098
   12002       K       1    MUSC   K007m       1       1.0    39.098
   12003      ao       1    MUSC   Al0Kf       1     1.575    26.982
   12004      ao       1    MUSC   Al0Kg       1     1.575    26.982
   12005      ao       1    MUSC   Al0Kh       1     1.575    26.982
   12006      ao       1    MUSC   Al0Ki       1     1.575    26.982
   12007      ao       1    MUSC   Al0Kj       1     1.575    26.982
   12008      ao       1    MUSC   Al0Kk       1     1.575    26.982
   12009      ao       1    MUSC   Al0Kl       1     1.575    26.982
   12010      ao       1    MUSC   Al0Km       1     1.575    26.982
   12011      st       1    MUSC   Si0fJ       1       2.1    28.086
   12012      st       1    MUSC   Si0fK       1       2.1    28.086
   12013      st       1    MUSC   Si0fL       1       2.1    28.086
   12014      st       1    MUSC   Si0fM       1       2.1    28.086
   12015      st       1    MUSC   Si0fN       1       2.1    28.086
   12016      st       1    MUSC   Si0fO       1       2.1    28.086
   12017      st       1    MUSC   Si0fP       1       2.1    28.086
   12018      st       1    MUSC   Si0fQ       1       2.1    28.086
   12019      st       1    MUSC   Si0fR       1       2.1    28.086
   12020      st       1    MUSC   Si0fS       1       2.1    28.086
   12021      st       1    MUSC   Si0fT       1       2.1    28.086
   12022      st       1    MUSC   Si0fU       1       2.1    28.086
   12023      st       1    MUSC   Si0fV       1       2.1    28.086
   12024      st       1    MUSC   Si0fW       1       2.1    28.086
   12025      st       1    MUSC   Si0fX       1       2.1    28.086
   12026      st       1    MUSC   Si0fY       1       2.1    28.086
   12027      ob       1    MUSC   O01zt       1     -1.05    15.999
   12028      ob       1    MUSC   O01zu       1     -1.05    15.999
   12029      ob       1    MUSC   O01zv       1     -1.05    15.999
   12030      ob       1    MUSC   O01zw       1     -1.05    15.999
   12031      oh       1    MUSC   O01zx       1     -0.95    15.999
   12032      oh       1    MUSC   O01zy       1     -0.95    15.999
   12033      oh       1    MUSC   O01zz       1     -0.95    15.999
   12034      oh       1    MUSC   O0200       1     -0.95    15.999
   12035      ob       1    MUSC   O0201       1     -1.05    15.999
   12036      ob       1    MUSC   O0202       1     -1.05    15.999
   12037      ob       1    MUSC   O0203       1     -1.05    15.999
   12038      ob       1    MUSC   O0204       1     -1.05    15.999
   12039      ob       1    MUSC   O0205       1     -1.05    15.999
   12040      ob       1    MUSC   O0206       1     -1.05    15.999
   12041      ob       1    MUSC   O0207       1     -1.05    15.999
   12042      ob       1    MUSC   O0208       1     -1.05    15.999
   12043      ob       1    MUSC   O0209       1     -1.05    15.999
   12044      ob       1    MUSC   O020A       1     -1.05    15.999
   12045      ob       1    MUSC   O020B       1     -1.05    15.999
   12046      ob       1    MUSC   O020C       1     -1.05    15.999
   12047      ob       1    MUSC   O020D       1     -1.05    15.999
   12048      ob       1    MUSC   O020E       1     -1.05    15.999
   12049      ob       1    MUSC   O020F       1     -1.05    15.999
   12050      ob       1    MUSC   O020G       1     -1.05    15.999
   12051      ob       1    MUSC   O020H       1     -1.05    15.999
   12052      ob       1    MUSC   O020I       1     -1.05    15.999
   12053      ob       1    MUSC   O020J       1     -1.05    15.999
   12054      ob       1    MUSC   O020K       1     -1.05    15.999
   12055      oh       1    MUSC   O020L       1     -0.95    15.999
   12056      oh       1    MUSC   O020M       1     -0.95    15.999
   12057      oh       1    MUSC   O020N       1     -0.95    15.999
   12058      oh       1    MUSC   O020O       1     -0.95    15.999
   12059      ob       1    MUSC   O020P       1     -1.05    15.999
   12060      ob       1    MUSC   O020Q       1     -1.05    15.999
   12061      ob       1    MUSC   O020R       1     -1.05    15.999
   12062      ob       1    MUSC   O020S       1     -1.05    15.999
   12063      ob       1    MUSC   O020T       1     -1.05    15.999
   12064      ob       1    MUSC   O020U       1     -1.05    15.999
   12065      ob       1    MUSC   O020V       1     -1.05    15.999
   12066      ob       1    MUSC   O020W       1     -1.05    15.999
   12067      ob       1    MUSC   O020X       1     -1.05    15.999
   12068      ob       1    MUSC   O020Y       1     -1.05    15.999
   12069      ob       1    MUSC   O020Z       1     -1.05    15.999
   12070      ob       1    MUSC   O020a       1     -1.05    15.999
   12071      ob       1    MUSC   O020b       1     -1.05    15.999
   12072      ob       1    MUSC   O020c       1     -1.05    15.999
   12073      ob       1    MUSC   O020d       1     -1.05    15.999
   12074      ob       1    MUSC   O020e       1     -1.05    15.999
   12075       K       1    MUSC   K007n       1       1.0    39.098
   12076       K       1    MUSC   K007o       1       1.0    39.098
   12077       K       1    MUSC   K007p       1       1.0    39.098
   12078       K       1    MUSC   K007q       1       1.0    39.098
   12079      ao       1    MUSC   Al0Kn       1     1.575    26.982
   12080      ao       1    MUSC   Al0Ko       1     1.575    26.982
   12081      ao       1    MUSC   Al0Kp       1     1.575    26.982
   12082      ao       1    MUSC   Al0Kq       1     1.575    26.982
   12083      ao       1    MUSC   Al0Kr       1     1.575    26.982
   12084      ao       1    MUSC   Al0Ks       1     1.575    26.982
   12085      ao       1    MUSC   Al0Kt       1     1.575    26.982
   12086      ao       1    MUSC   Al0Ku       1     1.575    26.982
   12087      st       1    MUSC   Si0fZ       1       2.1    28.086
   12088      st       1    MUSC   Si0fa       1       2.1    28.086
   12089      st       1    MUSC   Si0fb       1       2.1    28.086
   12090      st       1    MUSC   Si0fc       1       2.1    28.086
   12091      st       1    MUSC   Si0fd       1       2.1    28.086
   12092      st       1    MUSC   Si0fe       1       2.1    28.086
   12093      st       1    MUSC   Si0ff       1       2.1    28.086
   12094      st       1    MUSC   Si0fg       1       2.1    28.086
   12095      st       1    MUSC   Si0fh       1       2.1    28.086
   12096      st       1    MUSC   Si0fi       1       2.1    28.086
   12097      st       1    MUSC   Si0fj       1       2.1    28.086
   12098      st       1    MUSC   Si0fk       1       2.1    28.086
   12099      st       1    MUSC   Si0fl       1       2.1    28.086
   12100      st       1    MUSC   Si0fm       1       2.1    28.086
   12101      st       1    MUSC   Si0fn       1       2.1    28.086
   12102      st       1    MUSC   Si0fo       1       2.1    28.086
   12103      ob       1    MUSC   O020f       1     -1.05    15.999
   12104      ob       1    MUSC   O020g       1     -1.05    15.999
   12105      ob       1    MUSC   O020h       1     -1.05    15.999
   12106      ob       1    MUSC   O020i       1     -1.05    15.999
   12107      oh       1    MUSC   O020j       1     -0.95    15.999
   12108      oh       1    MUSC   O020k       1     -0.95    15.999
   12109      oh       1    MUSC   O020l       1     -0.95    15.999
   12110      oh       1    MUSC   O020m       1     -0.95    15.999
   12111      ob       1    MUSC   O020n       1     -1.05    15.999
   12112      ob       1    MUSC   O020o       1     -1.05    15.999
   12113      ob       1    MUSC   O020p       1     -1.05    15.999
   12114      ob       1    MUSC   O020q       1     -1.05    15.999
   12115      ob       1    MUSC   O020r       1     -1.05    15.999
   12116      ob       1    MUSC   O020s       1     -1.05    15.999
   12117      ob       1    MUSC   O020t       1     -1.05    15.999
   12118      ob       1    MUSC   O020u       1     -1.05    15.999
   12119      ob       1    MUSC   O020v       1     -1.05    15.999
   12120      ob       1    MUSC   O020w       1     -1.05    15.999
   12121      ob       1    MUSC   O020x       1     -1.05    15.999
   12122      ob       1    MUSC   O020y       1     -1.05    15.999
   12123      ob       1    MUSC   O020z       1     -1.05    15.999
   12124      ob       1    MUSC   O0210       1     -1.05    15.999
   12125      ob       1    MUSC   O0211       1     -1.05    15.999
   12126      ob       1    MUSC   O0212       1     -1.05    15.999
   12127      ob       1    MUSC   O0213       1     -1.05    15.999
   12128      ob       1    MUSC   O0214       1     -1.05    15.999
   12129      ob       1    MUSC   O0215       1     -1.05    15.999
   12130      ob       1    MUSC   O0216       1     -1.05    15.999
   12131      oh       1    MUSC   O0217       1     -0.95    15.999
   12132      oh       1    MUSC   O0218       1     -0.95    15.999
   12133      oh       1    MUSC   O0219       1     -0.95    15.999
   12134      oh       1    MUSC   O021A       1     -0.95    15.999
   12135      ob       1    MUSC   O021B       1     -1.05    15.999
   12136      ob       1    MUSC   O021C       1     -1.05    15.999
   12137      ob       1    MUSC   O021D       1     -1.05    15.999
   12138      ob       1    MUSC   O021E       1     -1.05    15.999
   12139      ob       1    MUSC   O021F       1     -1.05    15.999
   12140      ob       1    MUSC   O021G       1     -1.05    15.999
   12141      ob       1    MUSC   O021H       1     -1.05    15.999
   12142      ob       1    MUSC   O021I       1     -1.05    15.999
   12143      ob       1    MUSC   O021J       1     -1.05    15.999
   12144      ob       1    MUSC   O021K       1     -1.05    15.999
   12145      ob       1    MUSC   O021L       1     -1.05    15.999
   12146      ob       1    MUSC   O021M       1     -1.05    15.999
   12147      ob       1    MUSC   O021N       1     -1.05    15.999
   12148      ob       1    MUSC   O021O       1     -1.05    15.999
   12149      ob       1    MUSC   O021P       1     -1.05    15.999
   12150      ob       1    MUSC   O021Q       1     -1.05    15.999
   12151       K       1    MUSC   K007r       1       1.0    39.098
   12152       K       1    MUSC   K007s       1       1.0    39.098
   12153      ao       1    MUSC   Al0Kv       1     1.575    26.982
   12154      ao       1    MUSC   Al0Kw       1     1.575    26.982
   12155      ao       1    MUSC   Al0Kx       1     1.575    26.982
   12156      ao       1    MUSC   Al0Ky       1     1.575    26.982
   12157      ao       1    MUSC   Al0Kz       1     1.575    26.982
   12158      ao       1    MUSC   Al0L0       1     1.575    26.982
   12159      ao       1    MUSC   Al0L1       1     1.575    26.982
   12160      ao       1    MUSC   Al0L2       1     1.575    26.982
   12161      st       1    MUSC   Si0fp       1       2.1    28.086
   12162      st       1    MUSC   Si0fq       1       2.1    28.086
   12163      st       1    MUSC   Si0fr       1       2.1    28.086
   12164      st       1    MUSC   Si0fs       1       2.1    28.086
   12165      st       1    MUSC   Si0ft       1       2.1    28.086
   12166      st       1    MUSC   Si0fu       1       2.1    28.086
   12167      st       1    MUSC   Si0fv       1       2.1    28.086
   12168      st       1    MUSC   Si0fw       1       2.1    28.086
   12169      st       1    MUSC   Si0fx       1       2.1    28.086
   12170      st       1    MUSC   Si0fy       1       2.1    28.086
   12171      st       1    MUSC   Si0fz       1       2.1    28.086
   12172      st       1    MUSC   Si0g0       1       2.1    28.086
   12173      st       1    MUSC   Si0g1       1       2.1    28.086
   12174      st       1    MUSC   Si0g2       1       2.1    28.086
   12175      st       1    MUSC   Si0g3       1       2.1    28.086
   12176      st       1    MUSC   Si0g4       1       2.1    28.086
   12177      ob       1    MUSC   O021R       1     -1.05    15.999
   12178      ob       1    MUSC   O021S       1     -1.05    15.999
   12179      ob       1    MUSC   O021T       1     -1.05    15.999
   12180      ob       1    MUSC   O021U       1     -1.05    15.999
   12181      oh       1    MUSC   O021V       1     -0.95    15.999
   12182      oh       1    MUSC   O021W       1     -0.95    15.999
   12183      oh       1    MUSC   O021X       1     -0.95    15.999
   12184      oh       1    MUSC   O021Y       1     -0.95    15.999
   12185      ob       1    MUSC   O021Z       1     -1.05    15.999
   12186      ob       1    MUSC   O021a       1     -1.05    15.999
   12187      ob       1    MUSC   O021b       1     -1.05    15.999
   12188      ob       1    MUSC   O021c       1     -1.05    15.999
   12189      ob       1    MUSC   O021d       1     -1.05    15.999
   12190      ob       1    MUSC   O021e       1     -1.05    15.999
   12191      ob       1    MUSC   O021f       1     -1.05    15.999
   12192      ob       1    MUSC   O021g       1     -1.05    15.999
   12193      ob       1    MUSC   O021h       1     -1.05    15.999
   12194      ob       1    MUSC   O021i       1     -1.05    15.999
   12195      ob       1    MUSC   O021j       1     -1.05    15.999
   12196      ob       1    MUSC   O021k       1     -1.05    15.999
   12197      ob       1    MUSC   O021l       1     -1.05    15.999
   12198      ob       1    MUSC   O021m       1     -1.05    15.999
   12199      ob       1    MUSC   O021n       1     -1.05    15.999
   12200      ob       1    MUSC   O021o       1     -1.05    15.999
   12201      ob       1    MUSC   O021p       1     -1.05    15.999
   12202      ob       1    MUSC   O021q       1     -1.05    15.999
   12203      ob       1    MUSC   O021r       1     -1.05    15.999
   12204      ob       1    MUSC   O021s       1     -1.05    15.999
   12205      oh       1    MUSC   O021t       1     -0.95    15.999
   12206      oh       1    MUSC   O021u       1     -0.95    15.999
   12207      oh       1    MUSC   O021v       1     -0.95    15.999
   12208      oh       1    MUSC   O021w       1     -0.95    15.999
   12209      ob       1    MUSC   O021x       1     -1.05    15.999
   12210      ob       1    MUSC   O021y       1     -1.05    15.999
   12211      ob       1    MUSC   O021z       1     -1.05    15.999
   12212      ob       1    MUSC   O0220       1     -1.05    15.999
   12213      ob       1    MUSC   O0221       1     -1.05    15.999
   12214      ob       1    MUSC   O0222       1     -1.05    15.999
   12215      ob       1    MUSC   O0223       1     -1.05    15.999
   12216      ob       1    MUSC   O0224       1     -1.05    15.999
   12217      ob       1    MUSC   O0225       1     -1.05    15.999
   12218      ob       1    MUSC   O0226       1     -1.05    15.999
   12219      ob       1    MUSC   O0227       1     -1.05    15.999
   12220      ob       1    MUSC   O0228       1     -1.05    15.999
   12221      ob       1    MUSC   O0229       1     -1.05    15.999
   12222      ob       1    MUSC   O022A       1     -1.05    15.999
   12223      ob       1    MUSC   O022B       1     -1.05    15.999
   12224      ob       1    MUSC   O022C       1     -1.05    15.999
   12225       K       1    MUSC   K007t       1       1.0    39.098
   12226       K       1    MUSC   K007u       1       1.0    39.098
   12227       K       1    MUSC   K007v       1       1.0    39.098
   12228       K       1    MUSC   K007w       1       1.0    39.098
   12229      ao       1    MUSC   Al0L3       1     1.575    26.982
   12230      ao       1    MUSC   Al0L4       1     1.575    26.982
   12231      ao       1    MUSC   Al0L5       1     1.575    26.982
   12232      ao       1    MUSC   Al0L6       1     1.575    26.982
   12233      ao       1    MUSC   Al0L7       1     1.575    26.982
   12234      ao       1    MUSC   Al0L8       1     1.575    26.982
   12235      ao       1    MUSC   Al0L9       1     1.575    26.982
   12236      ao       1    MUSC   Al0LA       1     1.575    26.982
   12237      st       1    MUSC   Si0g5       1       2.1    28.086
   12238      st       1    MUSC   Si0g6       1       2.1    28.086
   12239      st       1    MUSC   Si0g7       1       2.1    28.086
   12240      st       1    MUSC   Si0g8       1       2.1    28.086
   12241      st       1    MUSC   Si0g9       1       2.1    28.086
   12242      st       1    MUSC   Si0gA       1       2.1    28.086
   12243      st       1    MUSC   Si0gB       1       2.1    28.086
   12244      st       1    MUSC   Si0gC       1       2.1    28.086
   12245      st       1    MUSC   Si0gD       1       2.1    28.086
   12246      st       1    MUSC   Si0gE       1       2.1    28.086
   12247      st       1    MUSC   Si0gF       1       2.1    28.086
   12248      st       1    MUSC   Si0gG       1       2.1    28.086
   12249      st       1    MUSC   Si0gH       1       2.1    28.086
   12250      st       1    MUSC   Si0gI       1       2.1    28.086
   12251      st       1    MUSC   Si0gJ       1       2.1    28.086
   12252      st       1    MUSC   Si0gK       1       2.1    28.086
   12253      ob       1    MUSC   O022D       1     -1.05    15.999
   12254      ob       1    MUSC   O022E       1     -1.05    15.999
   12255      ob       1    MUSC   O022F       1     -1.05    15.999
   12256      ob       1    MUSC   O022G       1     -1.05    15.999
   12257      oh       1    MUSC   O022H       1     -0.95    15.999
   12258      oh       1    MUSC   O022I       1     -0.95    15.999
   12259      oh       1    MUSC   O022J       1     -0.95    15.999
   12260      oh       1    MUSC   O022K       1     -0.95    15.999
   12261      ob       1    MUSC   O022L       1     -1.05    15.999
   12262      ob       1    MUSC   O022M       1     -1.05    15.999
   12263      ob       1    MUSC   O022N       1     -1.05    15.999
   12264      ob       1    MUSC   O022O       1     -1.05    15.999
   12265      ob       1    MUSC   O022P       1     -1.05    15.999
   12266      ob       1    MUSC   O022Q       1     -1.05    15.999
   12267      ob       1    MUSC   O022R       1     -1.05    15.999
   12268      ob       1    MUSC   O022S       1     -1.05    15.999
   12269      ob       1    MUSC   O022T       1     -1.05    15.999
   12270      ob       1    MUSC   O022U       1     -1.05    15.999
   12271      ob       1    MUSC   O022V       1     -1.05    15.999
   12272      ob       1    MUSC   O022W       1     -1.05    15.999
   12273      ob       1    MUSC   O022X       1     -1.05    15.999
   12274      ob       1    MUSC   O022Y       1     -1.05    15.999
   12275      ob       1    MUSC   O022Z       1     -1.05    15.999
   12276      ob       1    MUSC   O022a       1     -1.05    15.999
   12277      ob       1    MUSC   O022b       1     -1.05    15.999
   12278      ob       1    MUSC   O022c       1     -1.05    15.999
   12279      ob       1    MUSC   O022d       1     -1.05    15.999
   12280      ob       1    MUSC   O022e       1     -1.05    15.999
   12281      oh       1    MUSC   O022f       1     -0.95    15.999
   12282      oh       1    MUSC   O022g       1     -0.95    15.999
   12283      oh       1    MUSC   O022h       1     -0.95    15.999
   12284      oh       1    MUSC   O022i       1     -0.95    15.999
   12285      ob       1    MUSC   O022j       1     -1.05    15.999
   12286      ob       1    MUSC   O022k       1     -1.05    15.999
   12287      ob       1    MUSC   O022l       1     -1.05    15.999
   12288      ob       1    MUSC   O022m       1     -1.05    15.999
   12289      ob       1    MUSC   O022n       1     -1.05    15.999
   12290      ob       1    MUSC   O022o       1     -1.05    15.999
   12291      ob       1    MUSC   O022p       1     -1.05    15.999
   12292      ob       1    MUSC   O022q       1     -1.05    15.999
   12293      ob       1    MUSC   O022r       1     -1.05    15.999
   12294      ob       1    MUSC   O022s       1     -1.05    15.999
   12295      ob       1    MUSC   O022t       1     -1.05    15.999
   12296      ob       1    MUSC   O022u       1     -1.05    15.999
   12297      ob       1    MUSC   O022v       1     -1.05    15.999
   12298      ob       1    MUSC   O022w       1     -1.05    15.999
   12299      ob       1    MUSC   O022x       1     -1.05    15.999
   12300      ob       1    MUSC   O022y       1     -1.05    15.999
   12301       K       1    MUSC   K007x       1       1.0    39.098
   12302       K       1    MUSC   K007y       1       1.0    39.098
   12303      ao       1    MUSC   Al0LB       1     1.575    26.982
   12304      ao       1    MUSC   Al0LC       1     1.575    26.982
   12305      ao       1    MUSC   Al0LD       1     1.575    26.982
   12306      ao       1    MUSC   Al0LE       1     1.575    26.982
   12307      ao       1    MUSC   Al0LF       1     1.575    26.982
   12308      ao       1    MUSC   Al0LG       1     1.575    26.982
   12309      ao       1    MUSC   Al0LH       1     1.575    26.982
   12310      ao       1    MUSC   Al0LI       1     1.575    26.982
   12311      st       1    MUSC   Si0gL       1       2.1    28.086
   12312      st       1    MUSC   Si0gM       1       2.1    28.086
   12313      st       1    MUSC   Si0gN       1       2.1    28.086
   12314      st       1    MUSC   Si0gO       1       2.1    28.086
   12315      st       1    MUSC   Si0gP       1       2.1    28.086
   12316      st       1    MUSC   Si0gQ       1       2.1    28.086
   12317      st       1    MUSC   Si0gR       1       2.1    28.086
   12318      st       1    MUSC   Si0gS       1       2.1    28.086
   12319      st       1    MUSC   Si0gT       1       2.1    28.086
   12320      st       1    MUSC   Si0gU       1       2.1    28.086
   12321      st       1    MUSC   Si0gV       1       2.1    28.086
   12322      st       1    MUSC   Si0gW       1       2.1    28.086
   12323      st       1    MUSC   Si0gX       1       2.1    28.086
   12324      st       1    MUSC   Si0gY       1       2.1    28.086
   12325      st       1    MUSC   Si0gZ       1       2.1    28.086
   12326      st       1    MUSC   Si0ga       1       2.1    28.086
   12327      ob       1    MUSC   O022z       1     -1.05    15.999
   12328      ob       1    MUSC   O0230       1     -1.05    15.999
   12329      ob       1    MUSC   O0231       1     -1.05    15.999
   12330      ob       1    MUSC   O0232       1     -1.05    15.999
   12331      oh       1    MUSC   O0233       1     -0.95    15.999
   12332      oh       1    MUSC   O0234       1     -0.95    15.999
   12333      oh       1    MUSC   O0235       1     -0.95    15.999
   12334      oh       1    MUSC   O0236       1     -0.95    15.999
   12335      ob       1    MUSC   O0237       1     -1.05    15.999
   12336      ob       1    MUSC   O0238       1     -1.05    15.999
   12337      ob       1    MUSC   O0239       1     -1.05    15.999
   12338      ob       1    MUSC   O023A       1     -1.05    15.999
   12339      ob       1    MUSC   O023B       1     -1.05    15.999
   12340      ob       1    MUSC   O023C       1     -1.05    15.999
   12341      ob       1    MUSC   O023D       1     -1.05    15.999
   12342      ob       1    MUSC   O023E       1     -1.05    15.999
   12343      ob       1    MUSC   O023F       1     -1.05    15.999
   12344      ob       1    MUSC   O023G       1     -1.05    15.999
   12345      ob       1    MUSC   O023H       1     -1.05    15.999
   12346      ob       1    MUSC   O023I       1     -1.05    15.999
   12347      ob       1    MUSC   O023J       1     -1.05    15.999
   12348      ob       1    MUSC   O023K       1     -1.05    15.999
   12349      ob       1    MUSC   O023L       1     -1.05    15.999
   12350      ob       1    MUSC   O023M       1     -1.05    15.999
   12351      ob       1    MUSC   O023N       1     -1.05    15.999
   12352      ob       1    MUSC   O023O       1     -1.05    15.999
   12353      ob       1    MUSC   O023P       1     -1.05    15.999
   12354      ob       1    MUSC   O023Q       1     -1.05    15.999
   12355      oh       1    MUSC   O023R       1     -0.95    15.999
   12356      oh       1    MUSC   O023S       1     -0.95    15.999
   12357      oh       1    MUSC   O023T       1     -0.95    15.999
   12358      oh       1    MUSC   O023U       1     -0.95    15.999
   12359      ob       1    MUSC   O023V       1     -1.05    15.999
   12360      ob       1    MUSC   O023W       1     -1.05    15.999
   12361      ob       1    MUSC   O023X       1     -1.05    15.999
   12362      ob       1    MUSC   O023Y       1     -1.05    15.999
   12363      ob       1    MUSC   O023Z       1     -1.05    15.999
   12364      ob       1    MUSC   O023a       1     -1.05    15.999
   12365      ob       1    MUSC   O023b       1     -1.05    15.999
   12366      ob       1    MUSC   O023c       1     -1.05    15.999
   12367      ob       1    MUSC   O023d       1     -1.05    15.999
   12368      ob       1    MUSC   O023e       1     -1.05    15.999
   12369      ob       1    MUSC   O023f       1     -1.05    15.999
   12370      ob       1    MUSC   O023g       1     -1.05    15.999
   12371      ob       1    MUSC   O023h       1     -1.05    15.999
   12372      ob       1    MUSC   O023i       1     -1.05    15.999
   12373      ob       1    MUSC   O023j       1     -1.05    15.999
   12374      ob       1    MUSC   O023k       1     -1.05    15.999
   12375       K       1    MUSC   K007z       1       1.0    39.098
   12376       K       1    MUSC   K0080       1       1.0    39.098
   12377       K       1    MUSC   K0081       1       1.0    39.098
   12378       K       1    MUSC   K0082       1       1.0    39.098
   12379      ao       1    MUSC   Al0LJ       1     1.575    26.982
   12380      ao       1    MUSC   Al0LK       1     1.575    26.982
   12381      ao       1    MUSC   Al0LL       1     1.575    26.982
   12382      ao       1    MUSC   Al0LM       1     1.575    26.982
   12383      ao       1    MUSC   Al0LN       1     1.575    26.982
   12384      ao       1    MUSC   Al0LO       1     1.575    26.982
   12385      ao       1    MUSC   Al0LP       1     1.575    26.982
   12386      ao       1    MUSC   Al0LQ       1     1.575    26.982
   12387      st       1    MUSC   Si0gb       1       2.1    28.086
   12388      st       1    MUSC   Si0gc       1       2.1    28.086
   12389      st       1    MUSC   Si0gd       1       2.1    28.086
   12390      st       1    MUSC   Si0ge       1       2.1    28.086
   12391      st       1    MUSC   Si0gf       1       2.1    28.086
   12392      st       1    MUSC   Si0gg       1       2.1    28.086
   12393      st       1    MUSC   Si0gh       1       2.1    28.086
   12394      st       1    MUSC   Si0gi       1       2.1    28.086
   12395      st       1    MUSC   Si0gj       1       2.1    28.086
   12396      st       1    MUSC   Si0gk       1       2.1    28.086
   12397      st       1    MUSC   Si0gl       1       2.1    28.086
   12398      st       1    MUSC   Si0gm       1       2.1    28.086
   12399      st       1    MUSC   Si0gn       1       2.1    28.086
   12400      st       1    MUSC   Si0go       1       2.1    28.086
   12401      st       1    MUSC   Si0gp       1       2.1    28.086
   12402      st       1    MUSC   Si0gq       1       2.1    28.086
   12403      ob       1    MUSC   O023l       1     -1.05    15.999
   12404      ob       1    MUSC   O023m       1     -1.05    15.999
   12405      ob       1    MUSC   O023n       1     -1.05    15.999
   12406      ob       1    MUSC   O023o       1     -1.05    15.999
   12407      oh       1    MUSC   O023p       1     -0.95    15.999
   12408      oh       1    MUSC   O023q       1     -0.95    15.999
   12409      oh       1    MUSC   O023r       1     -0.95    15.999
   12410      oh       1    MUSC   O023s       1     -0.95    15.999
   12411      ob       1    MUSC   O023t       1     -1.05    15.999
   12412      ob       1    MUSC   O023u       1     -1.05    15.999
   12413      ob       1    MUSC   O023v       1     -1.05    15.999
   12414      ob       1    MUSC   O023w       1     -1.05    15.999
   12415      ob       1    MUSC   O023x       1     -1.05    15.999
   12416      ob       1    MUSC   O023y       1     -1.05    15.999
   12417      ob       1    MUSC   O023z       1     -1.05    15.999
   12418      ob       1    MUSC   O0240       1     -1.05    15.999
   12419      ob       1    MUSC   O0241       1     -1.05    15.999
   12420      ob       1    MUSC   O0242       1     -1.05    15.999
   12421      ob       1    MUSC   O0243       1     -1.05    15.999
   12422      ob       1    MUSC   O0244       1     -1.05    15.999
   12423      ob       1    MUSC   O0245       1     -1.05    15.999
   12424      ob       1    MUSC   O0246       1     -1.05    15.999
   12425      ob       1    MUSC   O0247       1     -1.05    15.999
   12426      ob       1    MUSC   O0248       1     -1.05    15.999
   12427      ob       1    MUSC   O0249       1     -1.05    15.999
   12428      ob       1    MUSC   O024A       1     -1.05    15.999
   12429      ob       1    MUSC   O024B       1     -1.05    15.999
   12430      ob       1    MUSC   O024C       1     -1.05    15.999
   12431      oh       1    MUSC   O024D       1     -0.95    15.999
   12432      oh       1    MUSC   O024E       1     -0.95    15.999
   12433      oh       1    MUSC   O024F       1     -0.95    15.999
   12434      oh       1    MUSC   O024G       1     -0.95    15.999
   12435      ob       1    MUSC   O024H       1     -1.05    15.999
   12436      ob       1    MUSC   O024I       1     -1.05    15.999
   12437      ob       1    MUSC   O024J       1     -1.05    15.999
   12438      ob       1    MUSC   O024K       1     -1.05    15.999
   12439      ob       1    MUSC   O024L       1     -1.05    15.999
   12440      ob       1    MUSC   O024M       1     -1.05    15.999
   12441      ob       1    MUSC   O024N       1     -1.05    15.999
   12442      ob       1    MUSC   O024O       1     -1.05    15.999
   12443      ob       1    MUSC   O024P       1     -1.05    15.999
   12444      ob       1    MUSC   O024Q       1     -1.05    15.999
   12445      ob       1    MUSC   O024R       1     -1.05    15.999
   12446      ob       1    MUSC   O024S       1     -1.05    15.999
   12447      ob       1    MUSC   O024T       1     -1.05    15.999
   12448      ob       1    MUSC   O024U       1     -1.05    15.999
   12449      ob       1    MUSC   O024V       1     -1.05    15.999
   12450      ob       1    MUSC   O024W       1     -1.05    15.999
   12451       K       1    MUSC   K0083       1       1.0    39.098
   12452       K       1    MUSC   K0084       1       1.0    39.098
   12453      ao       1    MUSC   Al0LR       1     1.575    26.982
   12454      ao       1    MUSC   Al0LS       1     1.575    26.982
   12455      ao       1    MUSC   Al0LT       1     1.575    26.982
   12456      ao       1    MUSC   Al0LU       1     1.575    26.982
   12457      ao       1    MUSC   Al0LV       1     1.575    26.982
   12458      ao       1    MUSC   Al0LW       1     1.575    26.982
   12459      ao       1    MUSC   Al0LX       1     1.575    26.982
   12460      ao       1    MUSC   Al0LY       1     1.575    26.982
   12461      st       1    MUSC   Si0gr       1       2.1    28.086
   12462      st       1    MUSC   Si0gs       1       2.1    28.086
   12463      st       1    MUSC   Si0gt       1       2.1    28.086
   12464      st       1    MUSC   Si0gu       1       2.1    28.086
   12465      st       1    MUSC   Si0gv       1       2.1    28.086
   12466      st       1    MUSC   Si0gw       1       2.1    28.086
   12467      st       1    MUSC   Si0gx       1       2.1    28.086
   12468      st       1    MUSC   Si0gy       1       2.1    28.086
   12469      st       1    MUSC   Si0gz       1       2.1    28.086
   12470      st       1    MUSC   Si0h0       1       2.1    28.086
   12471      st       1    MUSC   Si0h1       1       2.1    28.086
   12472      st       1    MUSC   Si0h2       1       2.1    28.086
   12473      st       1    MUSC   Si0h3       1       2.1    28.086
   12474      st       1    MUSC   Si0h4       1       2.1    28.086
   12475      st       1    MUSC   Si0h5       1       2.1    28.086
   12476      st       1    MUSC   Si0h6       1       2.1    28.086
   12477      ob       1    MUSC   O024X       1     -1.05    15.999
   12478      ob       1    MUSC   O024Y       1     -1.05    15.999
   12479      ob       1    MUSC   O024Z       1     -1.05    15.999
   12480      ob       1    MUSC   O024a       1     -1.05    15.999
   12481      oh       1    MUSC   O024b       1     -0.95    15.999
   12482      oh       1    MUSC   O024c       1     -0.95    15.999
   12483      oh       1    MUSC   O024d       1     -0.95    15.999
   12484      oh       1    MUSC   O024e       1     -0.95    15.999
   12485      ob       1    MUSC   O024f       1     -1.05    15.999
   12486      ob       1    MUSC   O024g       1     -1.05    15.999
   12487      ob       1    MUSC   O024h       1     -1.05    15.999
   12488      ob       1    MUSC   O024i       1     -1.05    15.999
   12489      ob       1    MUSC   O024j       1     -1.05    15.999
   12490      ob       1    MUSC   O024k       1     -1.05    15.999
   12491      ob       1    MUSC   O024l       1     -1.05    15.999
   12492      ob       1    MUSC   O024m       1     -1.05    15.999
   12493      ob       1    MUSC   O024n       1     -1.05    15.999
   12494      ob       1    MUSC   O024o       1     -1.05    15.999
   12495      ob       1    MUSC   O024p       1     -1.05    15.999
   12496      ob       1    MUSC   O024q       1     -1.05    15.999
   12497      ob       1    MUSC   O024r       1     -1.05    15.999
   12498      ob       1    MUSC   O024s       1     -1.05    15.999
   12499      ob       1    MUSC   O024t       1     -1.05    15.999
   12500      ob       1    MUSC   O024u       1     -1.05    15.999
   12501      ob       1    MUSC   O024v       1     -1.05    15.999
   12502      ob       1    MUSC   O024w       1     -1.05    15.999
   12503      ob       1    MUSC   O024x       1     -1.05    15.999
   12504      ob       1    MUSC   O024y       1     -1.05    15.999
   12505      oh       1    MUSC   O024z       1     -0.95    15.999
   12506      oh       1    MUSC   O0250       1     -0.95    15.999
   12507      oh       1    MUSC   O0251       1     -0.95    15.999
   12508      oh       1    MUSC   O0252       1     -0.95    15.999
   12509      ob       1    MUSC   O0253       1     -1.05    15.999
   12510      ob       1    MUSC   O0254       1     -1.05    15.999
   12511      ob       1    MUSC   O0255       1     -1.05    15.999
   12512      ob       1    MUSC   O0256       1     -1.05    15.999
   12513      ob       1    MUSC   O0257       1     -1.05    15.999
   12514      ob       1    MUSC   O0258       1     -1.05    15.999
   12515      ob       1    MUSC   O0259       1     -1.05    15.999
   12516      ob       1    MUSC   O025A       1     -1.05    15.999
   12517      ob       1    MUSC   O025B       1     -1.05    15.999
   12518      ob       1    MUSC   O025C       1     -1.05    15.999
   12519      ob       1    MUSC   O025D       1     -1.05    15.999
   12520      ob       1    MUSC   O025E       1     -1.05    15.999
   12521      ob       1    MUSC   O025F       1     -1.05    15.999
   12522      ob       1    MUSC   O025G       1     -1.05    15.999
   12523      ob       1    MUSC   O025H       1     -1.05    15.999
   12524      ob       1    MUSC   O025I       1     -1.05    15.999
   12525       K       1    MUSC   K0085       1       1.0    39.098
   12526       K       1    MUSC   K0086       1       1.0    39.098
   12527       K       1    MUSC   K0087       1       1.0    39.098
   12528       K       1    MUSC   K0088       1       1.0    39.098
   12529      ao       1    MUSC   Al0LZ       1     1.575    26.982
   12530      ao       1    MUSC   Al0La       1     1.575    26.982
   12531      ao       1    MUSC   Al0Lb       1     1.575    26.982
   12532      ao       1    MUSC   Al0Lc       1     1.575    26.982
   12533      ao       1    MUSC   Al0Ld       1     1.575    26.982
   12534      ao       1    MUSC   Al0Le       1     1.575    26.982
   12535      ao       1    MUSC   Al0Lf       1     1.575    26.982
   12536      ao       1    MUSC   Al0Lg       1     1.575    26.982
   12537      st       1    MUSC   Si0h7       1       2.1    28.086
   12538      st       1    MUSC   Si0h8       1       2.1    28.086
   12539      st       1    MUSC   Si0h9       1       2.1    28.086
   12540      st       1    MUSC   Si0hA       1       2.1    28.086
   12541      st       1    MUSC   Si0hB       1       2.1    28.086
   12542      st       1    MUSC   Si0hC       1       2.1    28.086
   12543      st       1    MUSC   Si0hD       1       2.1    28.086
   12544      st       1    MUSC   Si0hE       1       2.1    28.086
   12545      st       1    MUSC   Si0hF       1       2.1    28.086
   12546      st       1    MUSC   Si0hG       1       2.1    28.086
   12547      st       1    MUSC   Si0hH       1       2.1    28.086
   12548      st       1    MUSC   Si0hI       1       2.1    28.086
   12549      st       1    MUSC   Si0hJ       1       2.1    28.086
   12550      st       1    MUSC   Si0hK       1       2.1    28.086
   12551      st       1    MUSC   Si0hL       1       2.1    28.086
   12552      st       1    MUSC   Si0hM       1       2.1    28.086
   12553      ob       1    MUSC   O025J       1     -1.05    15.999
   12554      ob       1    MUSC   O025K       1     -1.05    15.999
   12555      ob       1    MUSC   O025L       1     -1.05    15.999
   12556      ob       1    MUSC   O025M       1     -1.05    15.999
   12557      oh       1    MUSC   O025N       1     -0.95    15.999
   12558      oh       1    MUSC   O025O       1     -0.95    15.999
   12559      oh       1    MUSC   O025P       1     -0.95    15.999
   12560      oh       1    MUSC   O025Q       1     -0.95    15.999
   12561      ob       1    MUSC   O025R       1     -1.05    15.999
   12562      ob       1    MUSC   O025S       1     -1.05    15.999
   12563      ob       1    MUSC   O025T       1     -1.05    15.999
   12564      ob       1    MUSC   O025U       1     -1.05    15.999
   12565      ob       1    MUSC   O025V       1     -1.05    15.999
   12566      ob       1    MUSC   O025W       1     -1.05    15.999
   12567      ob       1    MUSC   O025X       1     -1.05    15.999
   12568      ob       1    MUSC   O025Y       1     -1.05    15.999
   12569      ob       1    MUSC   O025Z       1     -1.05    15.999
   12570      ob       1    MUSC   O025a       1     -1.05    15.999
   12571      ob       1    MUSC   O025b       1     -1.05    15.999
   12572      ob       1    MUSC   O025c       1     -1.05    15.999
   12573      ob       1    MUSC   O025d       1     -1.05    15.999
   12574      ob       1    MUSC   O025e       1     -1.05    15.999
   12575      ob       1    MUSC   O025f       1     -1.05    15.999
   12576      ob       1    MUSC   O025g       1     -1.05    15.999
   12577      ob       1    MUSC   O025h       1     -1.05    15.999
   12578      ob       1    MUSC   O025i       1     -1.05    15.999
   12579      ob       1    MUSC   O025j       1     -1.05    15.999
   12580      ob       1    MUSC   O025k       1     -1.05    15.999
   12581      oh       1    MUSC   O025l       1     -0.95    15.999
   12582      oh       1    MUSC   O025m       1     -0.95    15.999
   12583      oh       1    MUSC   O025n       1     -0.95    15.999
   12584      oh       1    MUSC   O025o       1     -0.95    15.999
   12585      ob       1    MUSC   O025p       1     -1.05    15.999
   12586      ob       1    MUSC   O025q       1     -1.05    15.999
   12587      ob       1    MUSC   O025r       1     -1.05    15.999
   12588      ob       1    MUSC   O025s       1     -1.05    15.999
   12589      ob       1    MUSC   O025t       1     -1.05    15.999
   12590      ob       1    MUSC   O025u       1     -1.05    15.999
   12591      ob       1    MUSC   O025v       1     -1.05    15.999
   12592      ob       1    MUSC   O025w       1     -1.05    15.999
   12593      ob       1    MUSC   O025x       1     -1.05    15.999
   12594      ob       1    MUSC   O025y       1     -1.05    15.999
   12595      ob       1    MUSC   O025z       1     -1.05    15.999
   12596      ob       1    MUSC   O0260       1     -1.05    15.999
   12597      ob       1    MUSC   O0261       1     -1.05    15.999
   12598      ob       1    MUSC   O0262       1     -1.05    15.999
   12599      ob       1    MUSC   O0263       1     -1.05    15.999
   12600      ob       1    MUSC   O0264       1     -1.05    15.999
   12601       K       1    MUSC   K0089       1       1.0    39.098
   12602       K       1    MUSC   K008A       1       1.0    39.098
   12603      ao       1    MUSC   Al0Lh       1     1.575    26.982
   12604      ao       1    MUSC   Al0Li       1     1.575    26.982
   12605      ao       1    MUSC   Al0Lj       1     1.575    26.982
   12606      ao       1    MUSC   Al0Lk       1     1.575    26.982
   12607      ao       1    MUSC   Al0Ll       1     1.575    26.982
   12608      ao       1    MUSC   Al0Lm       1     1.575    26.982
   12609      ao       1    MUSC   Al0Ln       1     1.575    26.982
   12610      ao       1    MUSC   Al0Lo       1     1.575    26.982
   12611      st       1    MUSC   Si0hN       1       2.1    28.086
   12612      st       1    MUSC   Si0hO       1       2.1    28.086
   12613      st       1    MUSC   Si0hP       1       2.1    28.086
   12614      st       1    MUSC   Si0hQ       1       2.1    28.086
   12615      st       1    MUSC   Si0hR       1       2.1    28.086
   12616      st       1    MUSC   Si0hS       1       2.1    28.086
   12617      st       1    MUSC   Si0hT       1       2.1    28.086
   12618      st       1    MUSC   Si0hU       1       2.1    28.086
   12619      st       1    MUSC   Si0hV       1       2.1    28.086
   12620      st       1    MUSC   Si0hW       1       2.1    28.086
   12621      st       1    MUSC   Si0hX       1       2.1    28.086
   12622      st       1    MUSC   Si0hY       1       2.1    28.086
   12623      st       1    MUSC   Si0hZ       1       2.1    28.086
   12624      st       1    MUSC   Si0ha       1       2.1    28.086
   12625      st       1    MUSC   Si0hb       1       2.1    28.086
   12626      st       1    MUSC   Si0hc       1       2.1    28.086
   12627      ob       1    MUSC   O0265       1     -1.05    15.999
   12628      ob       1    MUSC   O0266       1     -1.05    15.999
   12629      ob       1    MUSC   O0267       1     -1.05    15.999
   12630      ob       1    MUSC   O0268       1     -1.05    15.999
   12631      oh       1    MUSC   O0269       1     -0.95    15.999
   12632      oh       1    MUSC   O026A       1     -0.95    15.999
   12633      oh       1    MUSC   O026B       1     -0.95    15.999
   12634      oh       1    MUSC   O026C       1     -0.95    15.999
   12635      ob       1    MUSC   O026D       1     -1.05    15.999
   12636      ob       1    MUSC   O026E       1     -1.05    15.999
   12637      ob       1    MUSC   O026F       1     -1.05    15.999
   12638      ob       1    MUSC   O026G       1     -1.05    15.999
   12639      ob       1    MUSC   O026H       1     -1.05    15.999
   12640      ob       1    MUSC   O026I       1     -1.05    15.999
   12641      ob       1    MUSC   O026J       1     -1.05    15.999
   12642      ob       1    MUSC   O026K       1     -1.05    15.999
   12643      ob       1    MUSC   O026L       1     -1.05    15.999
   12644      ob       1    MUSC   O026M       1     -1.05    15.999
   12645      ob       1    MUSC   O026N       1     -1.05    15.999
   12646      ob       1    MUSC   O026O       1     -1.05    15.999
   12647      ob       1    MUSC   O026P       1     -1.05    15.999
   12648      ob       1    MUSC   O026Q       1     -1.05    15.999
   12649      ob       1    MUSC   O026R       1     -1.05    15.999
   12650      ob       1    MUSC   O026S       1     -1.05    15.999
   12651      ob       1    MUSC   O026T       1     -1.05    15.999
   12652      ob       1    MUSC   O026U       1     -1.05    15.999
   12653      ob       1    MUSC   O026V       1     -1.05    15.999
   12654      ob       1    MUSC   O026W       1     -1.05    15.999
   12655      oh       1    MUSC   O026X       1     -0.95    15.999
   12656      oh       1    MUSC   O026Y       1     -0.95    15.999
   12657      oh       1    MUSC   O026Z       1     -0.95    15.999
   12658      oh       1    MUSC   O026a       1     -0.95    15.999
   12659      ob       1    MUSC   O026b       1     -1.05    15.999
   12660      ob       1    MUSC   O026c       1     -1.05    15.999
   12661      ob       1    MUSC   O026d       1     -1.05    15.999
   12662      ob       1    MUSC   O026e       1     -1.05    15.999
   12663      ob       1    MUSC   O026f       1     -1.05    15.999
   12664      ob       1    MUSC   O026g       1     -1.05    15.999
   12665      ob       1    MUSC   O026h       1     -1.05    15.999
   12666      ob       1    MUSC   O026i       1     -1.05    15.999
   12667      ob       1    MUSC   O026j       1     -1.05    15.999
   12668      ob       1    MUSC   O026k       1     -1.05    15.999
   12669      ob       1    MUSC   O026l       1     -1.05    15.999
   12670      ob       1    MUSC   O026m       1     -1.05    15.999
   12671      ob       1    MUSC   O026n       1     -1.05    15.999
   12672      ob       1    MUSC   O026o       1     -1.05    15.999
   12673      ob       1    MUSC   O026p       1     -1.05    15.999
   12674      ob       1    MUSC   O026q       1     -1.05    15.999
   12675       K       1    MUSC   K008B       1       1.0    39.098
   12676       K       1    MUSC   K008C       1       1.0    39.098
   12677       K       1    MUSC   K008D       1       1.0    39.098
   12678       K       1    MUSC   K008E       1       1.0    39.098
   12679      ao       1    MUSC   Al0Lp       1     1.575    26.982
   12680      ao       1    MUSC   Al0Lq       1     1.575    26.982
   12681      ao       1    MUSC   Al0Lr       1     1.575    26.982
   12682      ao       1    MUSC   Al0Ls       1     1.575    26.982
   12683      ao       1    MUSC   Al0Lt       1     1.575    26.982
   12684      ao       1    MUSC   Al0Lu       1     1.575    26.982
   12685      ao       1    MUSC   Al0Lv       1     1.575    26.982
   12686      ao       1    MUSC   Al0Lw       1     1.575    26.982
   12687      st       1    MUSC   Si0hd       1       2.1    28.086
   12688      st       1    MUSC   Si0he       1       2.1    28.086
   12689      st       1    MUSC   Si0hf       1       2.1    28.086
   12690      st       1    MUSC   Si0hg       1       2.1    28.086
   12691      st       1    MUSC   Si0hh       1       2.1    28.086
   12692      st       1    MUSC   Si0hi       1       2.1    28.086
   12693      st       1    MUSC   Si0hj       1       2.1    28.086
   12694      st       1    MUSC   Si0hk       1       2.1    28.086
   12695      st       1    MUSC   Si0hl       1       2.1    28.086
   12696      st       1    MUSC   Si0hm       1       2.1    28.086
   12697      st       1    MUSC   Si0hn       1       2.1    28.086
   12698      st       1    MUSC   Si0ho       1       2.1    28.086
   12699      st       1    MUSC   Si0hp       1       2.1    28.086
   12700      st       1    MUSC   Si0hq       1       2.1    28.086
   12701      st       1    MUSC   Si0hr       1       2.1    28.086
   12702      st       1    MUSC   Si0hs       1       2.1    28.086
   12703      ob       1    MUSC   O026r       1     -1.05    15.999
   12704      ob       1    MUSC   O026s       1     -1.05    15.999
   12705      ob       1    MUSC   O026t       1     -1.05    15.999
   12706      ob       1    MUSC   O026u       1     -1.05    15.999
   12707      oh       1    MUSC   O026v       1     -0.95    15.999
   12708      oh       1    MUSC   O026w       1     -0.95    15.999
   12709      oh       1    MUSC   O026x       1     -0.95    15.999
   12710      oh       1    MUSC   O026y       1     -0.95    15.999
   12711      ob       1    MUSC   O026z       1     -1.05    15.999
   12712      ob       1    MUSC   O0270       1     -1.05    15.999
   12713      ob       1    MUSC   O0271       1     -1.05    15.999
   12714      ob       1    MUSC   O0272       1     -1.05    15.999
   12715      ob       1    MUSC   O0273       1     -1.05    15.999
   12716      ob       1    MUSC   O0274       1     -1.05    15.999
   12717      ob       1    MUSC   O0275       1     -1.05    15.999
   12718      ob       1    MUSC   O0276       1     -1.05    15.999
   12719      ob       1    MUSC   O0277       1     -1.05    15.999
   12720      ob       1    MUSC   O0278       1     -1.05    15.999
   12721      ob       1    MUSC   O0279       1     -1.05    15.999
   12722      ob       1    MUSC   O027A       1     -1.05    15.999
   12723      ob       1    MUSC   O027B       1     -1.05    15.999
   12724      ob       1    MUSC   O027C       1     -1.05    15.999
   12725      ob       1    MUSC   O027D       1     -1.05    15.999
   12726      ob       1    MUSC   O027E       1     -1.05    15.999
   12727      ob       1    MUSC   O027F       1     -1.05    15.999
   12728      ob       1    MUSC   O027G       1     -1.05    15.999
   12729      ob       1    MUSC   O027H       1     -1.05    15.999
   12730      ob       1    MUSC   O027I       1     -1.05    15.999
   12731      oh       1    MUSC   O027J       1     -0.95    15.999
   12732      oh       1    MUSC   O027K       1     -0.95    15.999
   12733      oh       1    MUSC   O027L       1     -0.95    15.999
   12734      oh       1    MUSC   O027M       1     -0.95    15.999
   12735      ob       1    MUSC   O027N       1     -1.05    15.999
   12736      ob       1    MUSC   O027O       1     -1.05    15.999
   12737      ob       1    MUSC   O027P       1     -1.05    15.999
   12738      ob       1    MUSC   O027Q       1     -1.05    15.999
   12739      ob       1    MUSC   O027R       1     -1.05    15.999
   12740      ob       1    MUSC   O027S       1     -1.05    15.999
   12741      ob       1    MUSC   O027T       1     -1.05    15.999
   12742      ob       1    MUSC   O027U       1     -1.05    15.999
   12743      ob       1    MUSC   O027V       1     -1.05    15.999
   12744      ob       1    MUSC   O027W       1     -1.05    15.999
   12745      ob       1    MUSC   O027X       1     -1.05    15.999
   12746      ob       1    MUSC   O027Y       1     -1.05    15.999
   12747      ob       1    MUSC   O027Z       1     -1.05    15.999
   12748      ob       1    MUSC   O027a       1     -1.05    15.999
   12749      ob       1    MUSC   O027b       1     -1.05    15.999
   12750      ob       1    MUSC   O027c       1     -1.05    15.999
   12751       K       1    MUSC   K008F       1       1.0    39.098
   12752       K       1    MUSC   K008G       1       1.0    39.098
   12753      ao       1    MUSC   Al0Lx       1     1.575    26.982
   12754      ao       1    MUSC   Al0Ly       1     1.575    26.982
   12755      ao       1    MUSC   Al0Lz       1     1.575    26.982
   12756      ao       1    MUSC   Al0M0       1     1.575    26.982
   12757      ao       1    MUSC   Al0M1       1     1.575    26.982
   12758      ao       1    MUSC   Al0M2       1     1.575    26.982
   12759      ao       1    MUSC   Al0M3       1     1.575    26.982
   12760      ao       1    MUSC   Al0M4       1     1.575    26.982
   12761      st       1    MUSC   Si0ht       1       2.1    28.086
   12762      st       1    MUSC   Si0hu       1       2.1    28.086
   12763      st       1    MUSC   Si0hv       1       2.1    28.086
   12764      st       1    MUSC   Si0hw       1       2.1    28.086
   12765      st       1    MUSC   Si0hx       1       2.1    28.086
   12766      st       1    MUSC   Si0hy       1       2.1    28.086
   12767      st       1    MUSC   Si0hz       1       2.1    28.086
   12768      st       1    MUSC   Si0i0       1       2.1    28.086
   12769      st       1    MUSC   Si0i1       1       2.1    28.086
   12770      st       1    MUSC   Si0i2       1       2.1    28.086
   12771      st       1    MUSC   Si0i3       1       2.1    28.086
   12772      st       1    MUSC   Si0i4       1       2.1    28.086
   12773      st       1    MUSC   Si0i5       1       2.1    28.086
   12774      st       1    MUSC   Si0i6       1       2.1    28.086
   12775      st       1    MUSC   Si0i7       1       2.1    28.086
   12776      st       1    MUSC   Si0i8       1       2.1    28.086
   12777      ob       1    MUSC   O027d       1     -1.05    15.999
   12778      ob       1    MUSC   O027e       1     -1.05    15.999
   12779      ob       1    MUSC   O027f       1     -1.05    15.999
   12780      ob       1    MUSC   O027g       1     -1.05    15.999
   12781      oh       1    MUSC   O027h       1     -0.95    15.999
   12782      oh       1    MUSC   O027i       1     -0.95    15.999
   12783      oh       1    MUSC   O027j       1     -0.95    15.999
   12784      oh       1    MUSC   O027k       1     -0.95    15.999
   12785      ob       1    MUSC   O027l       1     -1.05    15.999
   12786      ob       1    MUSC   O027m       1     -1.05    15.999
   12787      ob       1    MUSC   O027n       1     -1.05    15.999
   12788      ob       1    MUSC   O027o       1     -1.05    15.999
   12789      ob       1    MUSC   O027p       1     -1.05    15.999
   12790      ob       1    MUSC   O027q       1     -1.05    15.999
   12791      ob       1    MUSC   O027r       1     -1.05    15.999
   12792      ob       1    MUSC   O027s       1     -1.05    15.999
   12793      ob       1    MUSC   O027t       1     -1.05    15.999
   12794      ob       1    MUSC   O027u       1     -1.05    15.999
   12795      ob       1    MUSC   O027v       1     -1.05    15.999
   12796      ob       1    MUSC   O027w       1     -1.05    15.999
   12797      ob       1    MUSC   O027x       1     -1.05    15.999
   12798      ob       1    MUSC   O027y       1     -1.05    15.999
   12799      ob       1    MUSC   O027z       1     -1.05    15.999
   12800      ob       1    MUSC   O0280       1     -1.05    15.999
   12801      ob       1    MUSC   O0281       1     -1.05    15.999
   12802      ob       1    MUSC   O0282       1     -1.05    15.999
   12803      ob       1    MUSC   O0283       1     -1.05    15.999
   12804      ob       1    MUSC   O0284       1     -1.05    15.999
   12805      oh       1    MUSC   O0285       1     -0.95    15.999
   12806      oh       1    MUSC   O0286       1     -0.95    15.999
   12807      oh       1    MUSC   O0287       1     -0.95    15.999
   12808      oh       1    MUSC   O0288       1     -0.95    15.999
   12809      ob       1    MUSC   O0289       1     -1.05    15.999
   12810      ob       1    MUSC   O028A       1     -1.05    15.999
   12811      ob       1    MUSC   O028B       1     -1.05    15.999
   12812      ob       1    MUSC   O028C       1     -1.05    15.999
   12813      ob       1    MUSC   O028D       1     -1.05    15.999
   12814      ob       1    MUSC   O028E       1     -1.05    15.999
   12815      ob       1    MUSC   O028F       1     -1.05    15.999
   12816      ob       1    MUSC   O028G       1     -1.05    15.999
   12817      ob       1    MUSC   O028H       1     -1.05    15.999
   12818      ob       1    MUSC   O028I       1     -1.05    15.999
   12819      ob       1    MUSC   O028J       1     -1.05    15.999
   12820      ob       1    MUSC   O028K       1     -1.05    15.999
   12821      ob       1    MUSC   O028L       1     -1.05    15.999
   12822      ob       1    MUSC   O028M       1     -1.05    15.999
   12823      ob       1    MUSC   O028N       1     -1.05    15.999
   12824      ob       1    MUSC   O028O       1     -1.05    15.999
   12825       K       1    MUSC   K008H       1       1.0    39.098
   12826       K       1    MUSC   K008I       1       1.0    39.098
   12827       K       1    MUSC   K008J       1       1.0    39.098
   12828       K       1    MUSC   K008K       1       1.0    39.098
   12829      ao       1    MUSC   Al0M5       1     1.575    26.982
   12830      ao       1    MUSC   Al0M6       1     1.575    26.982
   12831      ao       1    MUSC   Al0M7       1     1.575    26.982
   12832      ao       1    MUSC   Al0M8       1     1.575    26.982
   12833      ao       1    MUSC   Al0M9       1     1.575    26.982
   12834      ao       1    MUSC   Al0MA       1     1.575    26.982
   12835      ao       1    MUSC   Al0MB       1     1.575    26.982
   12836      ao       1    MUSC   Al0MC       1     1.575    26.982
   12837      st       1    MUSC   Si0i9       1       2.1    28.086
   12838      st       1    MUSC   Si0iA       1       2.1    28.086
   12839      st       1    MUSC   Si0iB       1       2.1    28.086
   12840      st       1    MUSC   Si0iC       1       2.1    28.086
   12841      st       1    MUSC   Si0iD       1       2.1    28.086
   12842      st       1    MUSC   Si0iE       1       2.1    28.086
   12843      st       1    MUSC   Si0iF       1       2.1    28.086
   12844      st       1    MUSC   Si0iG       1       2.1    28.086
   12845      st       1    MUSC   Si0iH       1       2.1    28.086
   12846      st       1    MUSC   Si0iI       1       2.1    28.086
   12847      st       1    MUSC   Si0iJ       1       2.1    28.086
   12848      st       1    MUSC   Si0iK       1       2.1    28.086
   12849      st       1    MUSC   Si0iL       1       2.1    28.086
   12850      st       1    MUSC   Si0iM       1       2.1    28.086
   12851      st       1    MUSC   Si0iN       1       2.1    28.086
   12852      st       1    MUSC   Si0iO       1       2.1    28.086
   12853      ob       1    MUSC   O028P       1     -1.05    15.999
   12854      ob       1    MUSC   O028Q       1     -1.05    15.999
   12855      ob       1    MUSC   O028R       1     -1.05    15.999
   12856      ob       1    MUSC   O028S       1     -1.05    15.999
   12857      oh       1    MUSC   O028T       1     -0.95    15.999
   12858      oh       1    MUSC   O028U       1     -0.95    15.999
   12859      oh       1    MUSC   O028V       1     -0.95    15.999
   12860      oh       1    MUSC   O028W       1     -0.95    15.999
   12861      ob       1    MUSC   O028X       1     -1.05    15.999
   12862      ob       1    MUSC   O028Y       1     -1.05    15.999
   12863      ob       1    MUSC   O028Z       1     -1.05    15.999
   12864      ob       1    MUSC   O028a       1     -1.05    15.999
   12865      ob       1    MUSC   O028b       1     -1.05    15.999
   12866      ob       1    MUSC   O028c       1     -1.05    15.999
   12867      ob       1    MUSC   O028d       1     -1.05    15.999
   12868      ob       1    MUSC   O028e       1     -1.05    15.999
   12869      ob       1    MUSC   O028f       1     -1.05    15.999
   12870      ob       1    MUSC   O028g       1     -1.05    15.999
   12871      ob       1    MUSC   O028h       1     -1.05    15.999
   12872      ob       1    MUSC   O028i       1     -1.05    15.999
   12873      ob       1    MUSC   O028j       1     -1.05    15.999
   12874      ob       1    MUSC   O028k       1     -1.05    15.999
   12875      ob       1    MUSC   O028l       1     -1.05    15.999
   12876      ob       1    MUSC   O028m       1     -1.05    15.999
   12877      ob       1    MUSC   O028n       1     -1.05    15.999
   12878      ob       1    MUSC   O028o       1     -1.05    15.999
   12879      ob       1    MUSC   O028p       1     -1.05    15.999
   12880      ob       1    MUSC   O028q       1     -1.05    15.999
   12881      oh       1    MUSC   O028r       1     -0.95    15.999
   12882      oh       1    MUSC   O028s       1     -0.95    15.999
   12883      oh       1    MUSC   O028t       1     -0.95    15.999
   12884      oh       1    MUSC   O028u       1     -0.95    15.999
   12885      ob       1    MUSC   O028v       1     -1.05    15.999
   12886      ob       1    MUSC   O028w       1     -1.05    15.999
   12887      ob       1    MUSC   O028x       1     -1.05    15.999
   12888      ob       1    MUSC   O028y       1     -1.05    15.999
   12889      ob       1    MUSC   O028z       1     -1.05    15.999
   12890      ob       1    MUSC   O0290       1     -1.05    15.999
   12891      ob       1    MUSC   O0291       1     -1.05    15.999
   12892      ob       1    MUSC   O0292       1     -1.05    15.999
   12893      ob       1    MUSC   O0293       1     -1.05    15.999
   12894      ob       1    MUSC   O0294       1     -1.05    15.999
   12895      ob       1    MUSC   O0295       1     -1.05    15.999
   12896      ob       1    MUSC   O0296       1     -1.05    15.999
   12897      ob       1    MUSC   O0297       1     -1.05    15.999
   12898      ob       1    MUSC   O0298       1     -1.05    15.999
   12899      ob       1    MUSC   O0299       1     -1.05    15.999
   12900      ob       1    MUSC   O029A       1     -1.05    15.999
   12901       K       1    MUSC   K008L       1       1.0    39.098
   12902       K       1    MUSC   K008M       1       1.0    39.098
   12903      ao       1    MUSC   Al0MD       1     1.575    26.982
   12904      ao       1    MUSC   Al0ME       1     1.575    26.982
   12905      ao       1    MUSC   Al0MF       1     1.575    26.982
   12906      ao       1    MUSC   Al0MG       1     1.575    26.982
   12907      ao       1    MUSC   Al0MH       1     1.575    26.982
   12908      ao       1    MUSC   Al0MI       1     1.575    26.982
   12909      ao       1    MUSC   Al0MJ       1     1.575    26.982
   12910      ao       1    MUSC   Al0MK       1     1.575    26.982
   12911      st       1    MUSC   Si0iP       1       2.1    28.086
   12912      st       1    MUSC   Si0iQ       1       2.1    28.086
   12913      st       1    MUSC   Si0iR       1       2.1    28.086
   12914      st       1    MUSC   Si0iS       1       2.1    28.086
   12915      st       1    MUSC   Si0iT       1       2.1    28.086
   12916      st       1    MUSC   Si0iU       1       2.1    28.086
   12917      st       1    MUSC   Si0iV       1       2.1    28.086
   12918      st       1    MUSC   Si0iW       1       2.1    28.086
   12919      st       1    MUSC   Si0iX       1       2.1    28.086
   12920      st       1    MUSC   Si0iY       1       2.1    28.086
   12921      st       1    MUSC   Si0iZ       1       2.1    28.086
   12922      st       1    MUSC   Si0ia       1       2.1    28.086
   12923      st       1    MUSC   Si0ib       1       2.1    28.086
   12924      st       1    MUSC   Si0ic       1       2.1    28.086
   12925      st       1    MUSC   Si0id       1       2.1    28.086
   12926      st       1    MUSC   Si0ie       1       2.1    28.086
   12927      ob       1    MUSC   O029B       1     -1.05    15.999
   12928      ob       1    MUSC   O029C       1     -1.05    15.999
   12929      ob       1    MUSC   O029D       1     -1.05    15.999
   12930      ob       1    MUSC   O029E       1     -1.05    15.999
   12931      oh       1    MUSC   O029F       1     -0.95    15.999
   12932      oh       1    MUSC   O029G       1     -0.95    15.999
   12933      oh       1    MUSC   O029H       1     -0.95    15.999
   12934      oh       1    MUSC   O029I       1     -0.95    15.999
   12935      ob       1    MUSC   O029J       1     -1.05    15.999
   12936      ob       1    MUSC   O029K       1     -1.05    15.999
   12937      ob       1    MUSC   O029L       1     -1.05    15.999
   12938      ob       1    MUSC   O029M       1     -1.05    15.999
   12939      ob       1    MUSC   O029N       1     -1.05    15.999
   12940      ob       1    MUSC   O029O       1     -1.05    15.999
   12941      ob       1    MUSC   O029P       1     -1.05    15.999
   12942      ob       1    MUSC   O029Q       1     -1.05    15.999
   12943      ob       1    MUSC   O029R       1     -1.05    15.999
   12944      ob       1    MUSC   O029S       1     -1.05    15.999
   12945      ob       1    MUSC   O029T       1     -1.05    15.999
   12946      ob       1    MUSC   O029U       1     -1.05    15.999
   12947      ob       1    MUSC   O029V       1     -1.05    15.999
   12948      ob       1    MUSC   O029W       1     -1.05    15.999
   12949      ob       1    MUSC   O029X       1     -1.05    15.999
   12950      ob       1    MUSC   O029Y       1     -1.05    15.999
   12951      ob       1    MUSC   O029Z       1     -1.05    15.999
   12952      ob       1    MUSC   O029a       1     -1.05    15.999
   12953      ob       1    MUSC   O029b       1     -1.05    15.999
   12954      ob       1    MUSC   O029c       1     -1.05    15.999
   12955      oh       1    MUSC   O029d       1     -0.95    15.999
   12956      oh       1    MUSC   O029e       1     -0.95    15.999
   12957      oh       1    MUSC   O029f       1     -0.95    15.999
   12958      oh       1    MUSC   O029g       1     -0.95    15.999
   12959      ob       1    MUSC   O029h       1     -1.05    15.999
   12960      ob       1    MUSC   O029i       1     -1.05    15.999
   12961      ob       1    MUSC   O029j       1     -1.05    15.999
   12962      ob       1    MUSC   O029k       1     -1.05    15.999
   12963      ob       1    MUSC   O029l       1     -1.05    15.999
   12964      ob       1    MUSC   O029m       1     -1.05    15.999
   12965      ob       1    MUSC   O029n       1     -1.05    15.999
   12966      ob       1    MUSC   O029o       1     -1.05    15.999
   12967      ob       1    MUSC   O029p       1     -1.05    15.999
   12968      ob       1    MUSC   O029q       1     -1.05    15.999
   12969      ob       1    MUSC   O029r       1     -1.05    15.999
   12970      ob       1    MUSC   O029s       1     -1.05    15.999
   12971      ob       1    MUSC   O029t       1     -1.05    15.999
   12972      ob       1    MUSC   O029u       1     -1.05    15.999
   12973      ob       1    MUSC   O029v       1     -1.05    15.999
   12974      ob       1    MUSC   O029w       1     -1.05    15.999
   12975       K       1    MUSC   K008N       1       1.0    39.098
   12976       K       1    MUSC   K008O       1       1.0    39.098
   12977       K       1    MUSC   K008P       1       1.0    39.098
   12978       K       1    MUSC   K008Q       1       1.0    39.098
   12979      ao       1    MUSC   Al0ML       1     1.575    26.982
   12980      ao       1    MUSC   Al0MM       1     1.575    26.982
   12981      ao       1    MUSC   Al0MN       1     1.575    26.982
   12982      ao       1    MUSC   Al0MO       1     1.575    26.982
   12983      ao       1    MUSC   Al0MP       1     1.575    26.982
   12984      ao       1    MUSC   Al0MQ       1     1.575    26.982
   12985      ao       1    MUSC   Al0MR       1     1.575    26.982
   12986      ao       1    MUSC   Al0MS       1     1.575    26.982
   12987      st       1    MUSC   Si0if       1       2.1    28.086
   12988      st       1    MUSC   Si0ig       1       2.1    28.086
   12989      st       1    MUSC   Si0ih       1       2.1    28.086
   12990      st       1    MUSC   Si0ii       1       2.1    28.086
   12991      st       1    MUSC   Si0ij       1       2.1    28.086
   12992      st       1    MUSC   Si0ik       1       2.1    28.086
   12993      st       1    MUSC   Si0il       1       2.1    28.086
   12994      st       1    MUSC   Si0im       1       2.1    28.086
   12995      st       1    MUSC   Si0in       1       2.1    28.086
   12996      st       1    MUSC   Si0io       1       2.1    28.086
   12997      st       1    MUSC   Si0ip       1       2.1    28.086
   12998      st       1    MUSC   Si0iq       1       2.1    28.086
   12999      st       1    MUSC   Si0ir       1       2.1    28.086
   13000      st       1    MUSC   Si0is       1       2.1    28.086
   13001      st       1    MUSC   Si0it       1       2.1    28.086
   13002      st       1    MUSC   Si0iu       1       2.1    28.086
   13003      ob       1    MUSC   O029x       1     -1.05    15.999
   13004      ob       1    MUSC   O029y       1     -1.05    15.999
   13005      ob       1    MUSC   O029z       1     -1.05    15.999
   13006      ob       1    MUSC   O02A0       1     -1.05    15.999
   13007      oh       1    MUSC   O02A1       1     -0.95    15.999
   13008      oh       1    MUSC   O02A2       1     -0.95    15.999
   13009      oh       1    MUSC   O02A3       1     -0.95    15.999
   13010      oh       1    MUSC   O02A4       1     -0.95    15.999
   13011      ob       1    MUSC   O02A5       1     -1.05    15.999
   13012      ob       1    MUSC   O02A6       1     -1.05    15.999
   13013      ob       1    MUSC   O02A7       1     -1.05    15.999
   13014      ob       1    MUSC   O02A8       1     -1.05    15.999
   13015      ob       1    MUSC   O02A9       1     -1.05    15.999
   13016      ob       1    MUSC   O02AA       1     -1.05    15.999
   13017      ob       1    MUSC   O02AB       1     -1.05    15.999
   13018      ob       1    MUSC   O02AC       1     -1.05    15.999
   13019      ob       1    MUSC   O02AD       1     -1.05    15.999
   13020      ob       1    MUSC   O02AE       1     -1.05    15.999
   13021      ob       1    MUSC   O02AF       1     -1.05    15.999
   13022      ob       1    MUSC   O02AG       1     -1.05    15.999
   13023      ob       1    MUSC   O02AH       1     -1.05    15.999
   13024      ob       1    MUSC   O02AI       1     -1.05    15.999
   13025      ob       1    MUSC   O02AJ       1     -1.05    15.999
   13026      ob       1    MUSC   O02AK       1     -1.05    15.999
   13027      ob       1    MUSC   O02AL       1     -1.05    15.999
   13028      ob       1    MUSC   O02AM       1     -1.05    15.999
   13029      ob       1    MUSC   O02AN       1     -1.05    15.999
   13030      ob       1    MUSC   O02AO       1     -1.05    15.999
   13031      oh       1    MUSC   O02AP       1     -0.95    15.999
   13032      oh       1    MUSC   O02AQ       1     -0.95    15.999
   13033      oh       1    MUSC   O02AR       1     -0.95    15.999
   13034      oh       1    MUSC   O02AS       1     -0.95    15.999
   13035      ob       1    MUSC   O02AT       1     -1.05    15.999
   13036      ob       1    MUSC   O02AU       1     -1.05    15.999
   13037      ob       1    MUSC   O02AV       1     -1.05    15.999
   13038      ob       1    MUSC   O02AW       1     -1.05    15.999
   13039      ob       1    MUSC   O02AX       1     -1.05    15.999
   13040      ob       1    MUSC   O02AY       1     -1.05    15.999
   13041      ob       1    MUSC   O02AZ       1     -1.05    15.999
   13042      ob       1    MUSC   O02Aa       1     -1.05    15.999
   13043      ob       1    MUSC   O02Ab       1     -1.05    15.999
   13044      ob       1    MUSC   O02Ac       1     -1.05    15.999
   13045      ob       1    MUSC   O02Ad       1     -1.05    15.999
   13046      ob       1    MUSC   O02Ae       1     -1.05    15.999
   13047      ob       1    MUSC   O02Af       1     -1.05    15.999
   13048      ob       1    MUSC   O02Ag       1     -1.05    15.999
   13049      ob       1    MUSC   O02Ah       1     -1.05    15.999
   13050      ob       1    MUSC   O02Ai       1     -1.05    15.999
   13051       K       1    MUSC   K008R       1       1.0    39.098
   13052       K       1    MUSC   K008S       1       1.0    39.098
   13053      ao       1    MUSC   Al0MT       1     1.575    26.982
   13054      ao       1    MUSC   Al0MU       1     1.575    26.982
   13055      ao       1    MUSC   Al0MV       1     1.575    26.982
   13056      ao       1    MUSC   Al0MW       1     1.575    26.982
   13057      ao       1    MUSC   Al0MX       1     1.575    26.982
   13058      ao       1    MUSC   Al0MY       1     1.575    26.982
   13059      ao       1    MUSC   Al0MZ       1     1.575    26.982
   13060      ao       1    MUSC   Al0Ma       1     1.575    26.982
   13061      st       1    MUSC   Si0iv       1       2.1    28.086
   13062      st       1    MUSC   Si0iw       1       2.1    28.086
   13063      st       1    MUSC   Si0ix       1       2.1    28.086
   13064      st       1    MUSC   Si0iy       1       2.1    28.086
   13065      st       1    MUSC   Si0iz       1       2.1    28.086
   13066      st       1    MUSC   Si0j0       1       2.1    28.086
   13067      st       1    MUSC   Si0j1       1       2.1    28.086
   13068      st       1    MUSC   Si0j2       1       2.1    28.086
   13069      st       1    MUSC   Si0j3       1       2.1    28.086
   13070      st       1    MUSC   Si0j4       1       2.1    28.086
   13071      st       1    MUSC   Si0j5       1       2.1    28.086
   13072      st       1    MUSC   Si0j6       1       2.1    28.086
   13073      st       1    MUSC   Si0j7       1       2.1    28.086
   13074      st       1    MUSC   Si0j8       1       2.1    28.086
   13075      st       1    MUSC   Si0j9       1       2.1    28.086
   13076      st       1    MUSC   Si0jA       1       2.1    28.086
   13077      ob       1    MUSC   O02Aj       1     -1.05    15.999
   13078      ob       1    MUSC   O02Ak       1     -1.05    15.999
   13079      ob       1    MUSC   O02Al       1     -1.05    15.999
   13080      ob       1    MUSC   O02Am       1     -1.05    15.999
   13081      oh       1    MUSC   O02An       1     -0.95    15.999
   13082      oh       1    MUSC   O02Ao       1     -0.95    15.999
   13083      oh       1    MUSC   O02Ap       1     -0.95    15.999
   13084      oh       1    MUSC   O02Aq       1     -0.95    15.999
   13085      ob       1    MUSC   O02Ar       1     -1.05    15.999
   13086      ob       1    MUSC   O02As       1     -1.05    15.999
   13087      ob       1    MUSC   O02At       1     -1.05    15.999
   13088      ob       1    MUSC   O02Au       1     -1.05    15.999
   13089      ob       1    MUSC   O02Av       1     -1.05    15.999
   13090      ob       1    MUSC   O02Aw       1     -1.05    15.999
   13091      ob       1    MUSC   O02Ax       1     -1.05    15.999
   13092      ob       1    MUSC   O02Ay       1     -1.05    15.999
   13093      ob       1    MUSC   O02Az       1     -1.05    15.999
   13094      ob       1    MUSC   O02B0       1     -1.05    15.999
   13095      ob       1    MUSC   O02B1       1     -1.05    15.999
   13096      ob       1    MUSC   O02B2       1     -1.05    15.999
   13097      ob       1    MUSC   O02B3       1     -1.05    15.999
   13098      ob       1    MUSC   O02B4       1     -1.05    15.999
   13099      ob       1    MUSC   O02B5       1     -1.05    15.999
   13100      ob       1    MUSC   O02B6       1     -1.05    15.999
   13101      ob       1    MUSC   O02B7       1     -1.05    15.999
   13102      ob       1    MUSC   O02B8       1     -1.05    15.999
   13103      ob       1    MUSC   O02B9       1     -1.05    15.999
   13104      ob       1    MUSC   O02BA       1     -1.05    15.999
   13105      oh       1    MUSC   O02BB       1     -0.95    15.999
   13106      oh       1    MUSC   O02BC       1     -0.95    15.999
   13107      oh       1    MUSC   O02BD       1     -0.95    15.999
   13108      oh       1    MUSC   O02BE       1     -0.95    15.999
   13109      ob       1    MUSC   O02BF       1     -1.05    15.999
   13110      ob       1    MUSC   O02BG       1     -1.05    15.999
   13111      ob       1    MUSC   O02BH       1     -1.05    15.999
   13112      ob       1    MUSC   O02BI       1     -1.05    15.999
   13113      ob       1    MUSC   O02BJ       1     -1.05    15.999
   13114      ob       1    MUSC   O02BK       1     -1.05    15.999
   13115      ob       1    MUSC   O02BL       1     -1.05    15.999
   13116      ob       1    MUSC   O02BM       1     -1.05    15.999
   13117      ob       1    MUSC   O02BN       1     -1.05    15.999
   13118      ob       1    MUSC   O02BO       1     -1.05    15.999
   13119      ob       1    MUSC   O02BP       1     -1.05    15.999
   13120      ob       1    MUSC   O02BQ       1     -1.05    15.999
   13121      ob       1    MUSC   O02BR       1     -1.05    15.999
   13122      ob       1    MUSC   O02BS       1     -1.05    15.999
   13123      ob       1    MUSC   O02BT       1     -1.05    15.999
   13124      ob       1    MUSC   O02BU       1     -1.05    15.999
   13125       K       1    MUSC   K008T       1       1.0    39.098
   13126       K       1    MUSC   K008U       1       1.0    39.098
   13127       K       1    MUSC   K008V       1       1.0    39.098
   13128       K       1    MUSC   K008W       1       1.0    39.098
   13129      ao       1    MUSC   Al0Mb       1     1.575    26.982
   13130      ao       1    MUSC   Al0Mc       1     1.575    26.982
   13131      ao       1    MUSC   Al0Md       1     1.575    26.982
   13132      ao       1    MUSC   Al0Me       1     1.575    26.982
   13133      ao       1    MUSC   Al0Mf       1     1.575    26.982
   13134      ao       1    MUSC   Al0Mg       1     1.575    26.982
   13135      ao       1    MUSC   Al0Mh       1     1.575    26.982
   13136      ao       1    MUSC   Al0Mi       1     1.575    26.982
   13137      st       1    MUSC   Si0jB       1       2.1    28.086
   13138      st       1    MUSC   Si0jC       1       2.1    28.086
   13139      st       1    MUSC   Si0jD       1       2.1    28.086
   13140      st       1    MUSC   Si0jE       1       2.1    28.086
   13141      st       1    MUSC   Si0jF       1       2.1    28.086
   13142      st       1    MUSC   Si0jG       1       2.1    28.086
   13143      st       1    MUSC   Si0jH       1       2.1    28.086
   13144      st       1    MUSC   Si0jI       1       2.1    28.086
   13145      st       1    MUSC   Si0jJ       1       2.1    28.086
   13146      st       1    MUSC   Si0jK       1       2.1    28.086
   13147      st       1    MUSC   Si0jL       1       2.1    28.086
   13148      st       1    MUSC   Si0jM       1       2.1    28.086
   13149      st       1    MUSC   Si0jN       1       2.1    28.086
   13150      st       1    MUSC   Si0jO       1       2.1    28.086
   13151      st       1    MUSC   Si0jP       1       2.1    28.086
   13152      st       1    MUSC   Si0jQ       1       2.1    28.086
   13153      ob       1    MUSC   O02BV       1     -1.05    15.999
   13154      ob       1    MUSC   O02BW       1     -1.05    15.999
   13155      ob       1    MUSC   O02BX       1     -1.05    15.999
   13156      ob       1    MUSC   O02BY       1     -1.05    15.999
   13157      oh       1    MUSC   O02BZ       1     -0.95    15.999
   13158      oh       1    MUSC   O02Ba       1     -0.95    15.999
   13159      oh       1    MUSC   O02Bb       1     -0.95    15.999
   13160      oh       1    MUSC   O02Bc       1     -0.95    15.999
   13161      ob       1    MUSC   O02Bd       1     -1.05    15.999
   13162      ob       1    MUSC   O02Be       1     -1.05    15.999
   13163      ob       1    MUSC   O02Bf       1     -1.05    15.999
   13164      ob       1    MUSC   O02Bg       1     -1.05    15.999
   13165      ob       1    MUSC   O02Bh       1     -1.05    15.999
   13166      ob       1    MUSC   O02Bi       1     -1.05    15.999
   13167      ob       1    MUSC   O02Bj       1     -1.05    15.999
   13168      ob       1    MUSC   O02Bk       1     -1.05    15.999
   13169      ob       1    MUSC   O02Bl       1     -1.05    15.999
   13170      ob       1    MUSC   O02Bm       1     -1.05    15.999
   13171      ob       1    MUSC   O02Bn       1     -1.05    15.999
   13172      ob       1    MUSC   O02Bo       1     -1.05    15.999
   13173      ob       1    MUSC   O02Bp       1     -1.05    15.999
   13174      ob       1    MUSC   O02Bq       1     -1.05    15.999
   13175      ob       1    MUSC   O02Br       1     -1.05    15.999
   13176      ob       1    MUSC   O02Bs       1     -1.05    15.999
   13177      ob       1    MUSC   O02Bt       1     -1.05    15.999
   13178      ob       1    MUSC   O02Bu       1     -1.05    15.999
   13179      ob       1    MUSC   O02Bv       1     -1.05    15.999
   13180      ob       1    MUSC   O02Bw       1     -1.05    15.999
   13181      oh       1    MUSC   O02Bx       1     -0.95    15.999
   13182      oh       1    MUSC   O02By       1     -0.95    15.999
   13183      oh       1    MUSC   O02Bz       1     -0.95    15.999
   13184      oh       1    MUSC   O02C0       1     -0.95    15.999
   13185      ob       1    MUSC   O02C1       1     -1.05    15.999
   13186      ob       1    MUSC   O02C2       1     -1.05    15.999
   13187      ob       1    MUSC   O02C3       1     -1.05    15.999
   13188      ob       1    MUSC   O02C4       1     -1.05    15.999
   13189      ob       1    MUSC   O02C5       1     -1.05    15.999
   13190      ob       1    MUSC   O02C6       1     -1.05    15.999
   13191      ob       1    MUSC   O02C7       1     -1.05    15.999
   13192      ob       1    MUSC   O02C8       1     -1.05    15.999
   13193      ob       1    MUSC   O02C9       1     -1.05    15.999
   13194      ob       1    MUSC   O02CA       1     -1.05    15.999
   13195      ob       1    MUSC   O02CB       1     -1.05    15.999
   13196      ob       1    MUSC   O02CC       1     -1.05    15.999
   13197      ob       1    MUSC   O02CD       1     -1.05    15.999
   13198      ob       1    MUSC   O02CE       1     -1.05    15.999
   13199      ob       1    MUSC   O02CF       1     -1.05    15.999
   13200      ob       1    MUSC   O02CG       1     -1.05    15.999
   13201       K       1    MUSC   K008X       1       1.0    39.098
   13202       K       1    MUSC   K008Y       1       1.0    39.098
   13203      ao       1    MUSC   Al0Mj       1     1.575    26.982
   13204      ao       1    MUSC   Al0Mk       1     1.575    26.982
   13205      ao       1    MUSC   Al0Ml       1     1.575    26.982
   13206      ao       1    MUSC   Al0Mm       1     1.575    26.982
   13207      ao       1    MUSC   Al0Mn       1     1.575    26.982
   13208      ao       1    MUSC   Al0Mo       1     1.575    26.982
   13209      ao       1    MUSC   Al0Mp       1     1.575    26.982
   13210      ao       1    MUSC   Al0Mq       1     1.575    26.982
   13211      st       1    MUSC   Si0jR       1       2.1    28.086
   13212      st       1    MUSC   Si0jS       1       2.1    28.086
   13213      st       1    MUSC   Si0jT       1       2.1    28.086
   13214      st       1    MUSC   Si0jU       1       2.1    28.086
   13215      st       1    MUSC   Si0jV       1       2.1    28.086
   13216      st       1    MUSC   Si0jW       1       2.1    28.086
   13217      st       1    MUSC   Si0jX       1       2.1    28.086
   13218      st       1    MUSC   Si0jY       1       2.1    28.086
   13219      st       1    MUSC   Si0jZ       1       2.1    28.086
   13220      st       1    MUSC   Si0ja       1       2.1    28.086
   13221      st       1    MUSC   Si0jb       1       2.1    28.086
   13222      st       1    MUSC   Si0jc       1       2.1    28.086
   13223      st       1    MUSC   Si0jd       1       2.1    28.086
   13224      st       1    MUSC   Si0je       1       2.1    28.086
   13225      st       1    MUSC   Si0jf       1       2.1    28.086
   13226      st       1    MUSC   Si0jg       1       2.1    28.086
   13227      ob       1    MUSC   O02CH       1     -1.05    15.999
   13228      ob       1    MUSC   O02CI       1     -1.05    15.999
   13229      ob       1    MUSC   O02CJ       1     -1.05    15.999
   13230      ob       1    MUSC   O02CK       1     -1.05    15.999
   13231      oh       1    MUSC   O02CL       1     -0.95    15.999
   13232      oh       1    MUSC   O02CM       1     -0.95    15.999
   13233      oh       1    MUSC   O02CN       1     -0.95    15.999
   13234      oh       1    MUSC   O02CO       1     -0.95    15.999
   13235      ob       1    MUSC   O02CP       1     -1.05    15.999
   13236      ob       1    MUSC   O02CQ       1     -1.05    15.999
   13237      ob       1    MUSC   O02CR       1     -1.05    15.999
   13238      ob       1    MUSC   O02CS       1     -1.05    15.999
   13239      ob       1    MUSC   O02CT       1     -1.05    15.999
   13240      ob       1    MUSC   O02CU       1     -1.05    15.999
   13241      ob       1    MUSC   O02CV       1     -1.05    15.999
   13242      ob       1    MUSC   O02CW       1     -1.05    15.999
   13243      ob       1    MUSC   O02CX       1     -1.05    15.999
   13244      ob       1    MUSC   O02CY       1     -1.05    15.999
   13245      ob       1    MUSC   O02CZ       1     -1.05    15.999
   13246      ob       1    MUSC   O02Ca       1     -1.05    15.999
   13247      ob       1    MUSC   O02Cb       1     -1.05    15.999
   13248      ob       1    MUSC   O02Cc       1     -1.05    15.999
   13249      ob       1    MUSC   O02Cd       1     -1.05    15.999
   13250      ob       1    MUSC   O02Ce       1     -1.05    15.999
   13251      ob       1    MUSC   O02Cf       1     -1.05    15.999
   13252      ob       1    MUSC   O02Cg       1     -1.05    15.999
   13253      ob       1    MUSC   O02Ch       1     -1.05    15.999
   13254      ob       1    MUSC   O02Ci       1     -1.05    15.999
   13255      oh       1    MUSC   O02Cj       1     -0.95    15.999
   13256      oh       1    MUSC   O02Ck       1     -0.95    15.999
   13257      oh       1    MUSC   O02Cl       1     -0.95    15.999
   13258      oh       1    MUSC   O02Cm       1     -0.95    15.999
   13259      ob       1    MUSC   O02Cn       1     -1.05    15.999
   13260      ob       1    MUSC   O02Co       1     -1.05    15.999
   13261      ob       1    MUSC   O02Cp       1     -1.05    15.999
   13262      ob       1    MUSC   O02Cq       1     -1.05    15.999
   13263      ob       1    MUSC   O02Cr       1     -1.05    15.999
   13264      ob       1    MUSC   O02Cs       1     -1.05    15.999
   13265      ob       1    MUSC   O02Ct       1     -1.05    15.999
   13266      ob       1    MUSC   O02Cu       1     -1.05    15.999
   13267      ob       1    MUSC   O02Cv       1     -1.05    15.999
   13268      ob       1    MUSC   O02Cw       1     -1.05    15.999
   13269      ob       1    MUSC   O02Cx       1     -1.05    15.999
   13270      ob       1    MUSC   O02Cy       1     -1.05    15.999
   13271      ob       1    MUSC   O02Cz       1     -1.05    15.999
   13272      ob       1    MUSC   O02D0       1     -1.05    15.999
   13273      ob       1    MUSC   O02D1       1     -1.05    15.999
   13274      ob       1    MUSC   O02D2       1     -1.05    15.999
   13275       K       1    MUSC   K008Z       1       1.0    39.098
   13276       K       1    MUSC   K008a       1       1.0    39.098
   13277       K       1    MUSC   K008b       1       1.0    39.098
   13278       K       1    MUSC   K008c       1       1.0    39.098
   13279      ao       1    MUSC   Al0Mr       1     1.575    26.982
   13280      ao       1    MUSC   Al0Ms       1     1.575    26.982
   13281      ao       1    MUSC   Al0Mt       1     1.575    26.982
   13282      ao       1    MUSC   Al0Mu       1     1.575    26.982
   13283      ao       1    MUSC   Al0Mv       1     1.575    26.982
   13284      ao       1    MUSC   Al0Mw       1     1.575    26.982
   13285      ao       1    MUSC   Al0Mx       1     1.575    26.982
   13286      ao       1    MUSC   Al0My       1     1.575    26.982
   13287      st       1    MUSC   Si0jh       1       2.1    28.086
   13288      st       1    MUSC   Si0ji       1       2.1    28.086
   13289      st       1    MUSC   Si0jj       1       2.1    28.086
   13290      st       1    MUSC   Si0jk       1       2.1    28.086
   13291      st       1    MUSC   Si0jl       1       2.1    28.086
   13292      st       1    MUSC   Si0jm       1       2.1    28.086
   13293      st       1    MUSC   Si0jn       1       2.1    28.086
   13294      st       1    MUSC   Si0jo       1       2.1    28.086
   13295      st       1    MUSC   Si0jp       1       2.1    28.086
   13296      st       1    MUSC   Si0jq       1       2.1    28.086
   13297      st       1    MUSC   Si0jr       1       2.1    28.086
   13298      st       1    MUSC   Si0js       1       2.1    28.086
   13299      st       1    MUSC   Si0jt       1       2.1    28.086
   13300      st       1    MUSC   Si0ju       1       2.1    28.086
   13301      st       1    MUSC   Si0jv       1       2.1    28.086
   13302      st       1    MUSC   Si0jw       1       2.1    28.086
   13303      ob       1    MUSC   O02D3       1     -1.05    15.999
   13304      ob       1    MUSC   O02D4       1     -1.05    15.999
   13305      ob       1    MUSC   O02D5       1     -1.05    15.999
   13306      ob       1    MUSC   O02D6       1     -1.05    15.999
   13307      oh       1    MUSC   O02D7       1     -0.95    15.999
   13308      oh       1    MUSC   O02D8       1     -0.95    15.999
   13309      oh       1    MUSC   O02D9       1     -0.95    15.999
   13310      oh       1    MUSC   O02DA       1     -0.95    15.999
   13311      ob       1    MUSC   O02DB       1     -1.05    15.999
   13312      ob       1    MUSC   O02DC       1     -1.05    15.999
   13313      ob       1    MUSC   O02DD       1     -1.05    15.999
   13314      ob       1    MUSC   O02DE       1     -1.05    15.999
   13315      ob       1    MUSC   O02DF       1     -1.05    15.999
   13316      ob       1    MUSC   O02DG       1     -1.05    15.999
   13317      ob       1    MUSC   O02DH       1     -1.05    15.999
   13318      ob       1    MUSC   O02DI       1     -1.05    15.999
   13319      ob       1    MUSC   O02DJ       1     -1.05    15.999
   13320      ob       1    MUSC   O02DK       1     -1.05    15.999
   13321      ob       1    MUSC   O02DL       1     -1.05    15.999
   13322      ob       1    MUSC   O02DM       1     -1.05    15.999
   13323      ob       1    MUSC   O02DN       1     -1.05    15.999
   13324      ob       1    MUSC   O02DO       1     -1.05    15.999
   13325      ob       1    MUSC   O02DP       1     -1.05    15.999
   13326      ob       1    MUSC   O02DQ       1     -1.05    15.999
   13327      ob       1    MUSC   O02DR       1     -1.05    15.999
   13328      ob       1    MUSC   O02DS       1     -1.05    15.999
   13329      ob       1    MUSC   O02DT       1     -1.05    15.999
   13330      ob       1    MUSC   O02DU       1     -1.05    15.999
   13331      oh       1    MUSC   O02DV       1     -0.95    15.999
   13332      oh       1    MUSC   O02DW       1     -0.95    15.999
   13333      oh       1    MUSC   O02DX       1     -0.95    15.999
   13334      oh       1    MUSC   O02DY       1     -0.95    15.999
   13335      ob       1    MUSC   O02DZ       1     -1.05    15.999
   13336      ob       1    MUSC   O02Da       1     -1.05    15.999
   13337      ob       1    MUSC   O02Db       1     -1.05    15.999
   13338      ob       1    MUSC   O02Dc       1     -1.05    15.999
   13339      ob       1    MUSC   O02Dd       1     -1.05    15.999
   13340      ob       1    MUSC   O02De       1     -1.05    15.999
   13341      ob       1    MUSC   O02Df       1     -1.05    15.999
   13342      ob       1    MUSC   O02Dg       1     -1.05    15.999
   13343      ob       1    MUSC   O02Dh       1     -1.05    15.999
   13344      ob       1    MUSC   O02Di       1     -1.05    15.999
   13345      ob       1    MUSC   O02Dj       1     -1.05    15.999
   13346      ob       1    MUSC   O02Dk       1     -1.05    15.999
   13347      ob       1    MUSC   O02Dl       1     -1.05    15.999
   13348      ob       1    MUSC   O02Dm       1     -1.05    15.999
   13349      ob       1    MUSC   O02Dn       1     -1.05    15.999
   13350      ob       1    MUSC   O02Do       1     -1.05    15.999
   13351       K       1    MUSC   K008d       1       1.0    39.098
   13352       K       1    MUSC   K008e       1       1.0    39.098
   13353      ao       1    MUSC   Al0Mz       1     1.575    26.982
   13354      ao       1    MUSC   Al0N0       1     1.575    26.982
   13355      ao       1    MUSC   Al0N1       1     1.575    26.982
   13356      ao       1    MUSC   Al0N2       1     1.575    26.982
   13357      ao       1    MUSC   Al0N3       1     1.575    26.982
   13358      ao       1    MUSC   Al0N4       1     1.575    26.982
   13359      ao       1    MUSC   Al0N5       1     1.575    26.982
   13360      ao       1    MUSC   Al0N6       1     1.575    26.982
   13361      st       1    MUSC   Si0jx       1       2.1    28.086
   13362      st       1    MUSC   Si0jy       1       2.1    28.086
   13363      st       1    MUSC   Si0jz       1       2.1    28.086
   13364      st       1    MUSC   Si0k0       1       2.1    28.086
   13365      st       1    MUSC   Si0k1       1       2.1    28.086
   13366      st       1    MUSC   Si0k2       1       2.1    28.086
   13367      st       1    MUSC   Si0k3       1       2.1    28.086
   13368      st       1    MUSC   Si0k4       1       2.1    28.086
   13369      st       1    MUSC   Si0k5       1       2.1    28.086
   13370      st       1    MUSC   Si0k6       1       2.1    28.086
   13371      st       1    MUSC   Si0k7       1       2.1    28.086
   13372      st       1    MUSC   Si0k8       1       2.1    28.086
   13373      st       1    MUSC   Si0k9       1       2.1    28.086
   13374      st       1    MUSC   Si0kA       1       2.1    28.086
   13375      st       1    MUSC   Si0kB       1       2.1    28.086
   13376      st       1    MUSC   Si0kC       1       2.1    28.086
   13377      ob       1    MUSC   O02Dp       1     -1.05    15.999
   13378      ob       1    MUSC   O02Dq       1     -1.05    15.999
   13379      ob       1    MUSC   O02Dr       1     -1.05    15.999
   13380      ob       1    MUSC   O02Ds       1     -1.05    15.999
   13381      oh       1    MUSC   O02Dt       1     -0.95    15.999
   13382      oh       1    MUSC   O02Du       1     -0.95    15.999
   13383      oh       1    MUSC   O02Dv       1     -0.95    15.999
   13384      oh       1    MUSC   O02Dw       1     -0.95    15.999
   13385      ob       1    MUSC   O02Dx       1     -1.05    15.999
   13386      ob       1    MUSC   O02Dy       1     -1.05    15.999
   13387      ob       1    MUSC   O02Dz       1     -1.05    15.999
   13388      ob       1    MUSC   O02E0       1     -1.05    15.999
   13389      ob       1    MUSC   O02E1       1     -1.05    15.999
   13390      ob       1    MUSC   O02E2       1     -1.05    15.999
   13391      ob       1    MUSC   O02E3       1     -1.05    15.999
   13392      ob       1    MUSC   O02E4       1     -1.05    15.999
   13393      ob       1    MUSC   O02E5       1     -1.05    15.999
   13394      ob       1    MUSC   O02E6       1     -1.05    15.999
   13395      ob       1    MUSC   O02E7       1     -1.05    15.999
   13396      ob       1    MUSC   O02E8       1     -1.05    15.999
   13397      ob       1    MUSC   O02E9       1     -1.05    15.999
   13398      ob       1    MUSC   O02EA       1     -1.05    15.999
   13399      ob       1    MUSC   O02EB       1     -1.05    15.999
   13400      ob       1    MUSC   O02EC       1     -1.05    15.999
   13401      ob       1    MUSC   O02ED       1     -1.05    15.999
   13402      ob       1    MUSC   O02EE       1     -1.05    15.999
   13403      ob       1    MUSC   O02EF       1     -1.05    15.999
   13404      ob       1    MUSC   O02EG       1     -1.05    15.999
   13405      oh       1    MUSC   O02EH       1     -0.95    15.999
   13406      oh       1    MUSC   O02EI       1     -0.95    15.999
   13407      oh       1    MUSC   O02EJ       1     -0.95    15.999
   13408      oh       1    MUSC   O02EK       1     -0.95    15.999
   13409      ob       1    MUSC   O02EL       1     -1.05    15.999
   13410      ob       1    MUSC   O02EM       1     -1.05    15.999
   13411      ob       1    MUSC   O02EN       1     -1.05    15.999
   13412      ob       1    MUSC   O02EO       1     -1.05    15.999
   13413      ob       1    MUSC   O02EP       1     -1.05    15.999
   13414      ob       1    MUSC   O02EQ       1     -1.05    15.999
   13415      ob       1    MUSC   O02ER       1     -1.05    15.999
   13416      ob       1    MUSC   O02ES       1     -1.05    15.999
   13417      ob       1    MUSC   O02ET       1     -1.05    15.999
   13418      ob       1    MUSC   O02EU       1     -1.05    15.999
   13419      ob       1    MUSC   O02EV       1     -1.05    15.999
   13420      ob       1    MUSC   O02EW       1     -1.05    15.999
   13421      ob       1    MUSC   O02EX       1     -1.05    15.999
   13422      ob       1    MUSC   O02EY       1     -1.05    15.999
   13423      ob       1    MUSC   O02EZ       1     -1.05    15.999
   13424      ob       1    MUSC   O02Ea       1     -1.05    15.999
   13425       K       1    MUSC   K008f       1       1.0    39.098
   13426       K       1    MUSC   K008g       1       1.0    39.098
   13427       K       1    MUSC   K008h       1       1.0    39.098
   13428       K       1    MUSC   K008i       1       1.0    39.098
   13429      ao       1    MUSC   Al0N7       1     1.575    26.982
   13430      ao       1    MUSC   Al0N8       1     1.575    26.982
   13431      ao       1    MUSC   Al0N9       1     1.575    26.982
   13432      ao       1    MUSC   Al0NA       1     1.575    26.982
   13433      ao       1    MUSC   Al0NB       1     1.575    26.982
   13434      ao       1    MUSC   Al0NC       1     1.575    26.982
   13435      ao       1    MUSC   Al0ND       1     1.575    26.982
   13436      ao       1    MUSC   Al0NE       1     1.575    26.982
   13437      st       1    MUSC   Si0kD       1       2.1    28.086
   13438      st       1    MUSC   Si0kE       1       2.1    28.086
   13439      st       1    MUSC   Si0kF       1       2.1    28.086
   13440      st       1    MUSC   Si0kG       1       2.1    28.086
   13441      st       1    MUSC   Si0kH       1       2.1    28.086
   13442      st       1    MUSC   Si0kI       1       2.1    28.086
   13443      st       1    MUSC   Si0kJ       1       2.1    28.086
   13444      st       1    MUSC   Si0kK       1       2.1    28.086
   13445      st       1    MUSC   Si0kL       1       2.1    28.086
   13446      st       1    MUSC   Si0kM       1       2.1    28.086
   13447      st       1    MUSC   Si0kN       1       2.1    28.086
   13448      st       1    MUSC   Si0kO       1       2.1    28.086
   13449      st       1    MUSC   Si0kP       1       2.1    28.086
   13450      st       1    MUSC   Si0kQ       1       2.1    28.086
   13451      st       1    MUSC   Si0kR       1       2.1    28.086
   13452      st       1    MUSC   Si0kS       1       2.1    28.086
   13453      ob       1    MUSC   O02Eb       1     -1.05    15.999
   13454      ob       1    MUSC   O02Ec       1     -1.05    15.999
   13455      ob       1    MUSC   O02Ed       1     -1.05    15.999
   13456      ob       1    MUSC   O02Ee       1     -1.05    15.999
   13457      oh       1    MUSC   O02Ef       1     -0.95    15.999
   13458      oh       1    MUSC   O02Eg       1     -0.95    15.999
   13459      oh       1    MUSC   O02Eh       1     -0.95    15.999
   13460      oh       1    MUSC   O02Ei       1     -0.95    15.999
   13461      ob       1    MUSC   O02Ej       1     -1.05    15.999
   13462      ob       1    MUSC   O02Ek       1     -1.05    15.999
   13463      ob       1    MUSC   O02El       1     -1.05    15.999
   13464      ob       1    MUSC   O02Em       1     -1.05    15.999
   13465      ob       1    MUSC   O02En       1     -1.05    15.999
   13466      ob       1    MUSC   O02Eo       1     -1.05    15.999
   13467      ob       1    MUSC   O02Ep       1     -1.05    15.999
   13468      ob       1    MUSC   O02Eq       1     -1.05    15.999
   13469      ob       1    MUSC   O02Er       1     -1.05    15.999
   13470      ob       1    MUSC   O02Es       1     -1.05    15.999
   13471      ob       1    MUSC   O02Et       1     -1.05    15.999
   13472      ob       1    MUSC   O02Eu       1     -1.05    15.999
   13473      ob       1    MUSC   O02Ev       1     -1.05    15.999
   13474      ob       1    MUSC   O02Ew       1     -1.05    15.999
   13475      ob       1    MUSC   O02Ex       1     -1.05    15.999
   13476      ob       1    MUSC   O02Ey       1     -1.05    15.999
   13477      ob       1    MUSC   O02Ez       1     -1.05    15.999
   13478      ob       1    MUSC   O02F0       1     -1.05    15.999
   13479      ob       1    MUSC   O02F1       1     -1.05    15.999
   13480      ob       1    MUSC   O02F2       1     -1.05    15.999
   13481      oh       1    MUSC   O02F3       1     -0.95    15.999
   13482      oh       1    MUSC   O02F4       1     -0.95    15.999
   13483      oh       1    MUSC   O02F5       1     -0.95    15.999
   13484      oh       1    MUSC   O02F6       1     -0.95    15.999
   13485      ob       1    MUSC   O02F7       1     -1.05    15.999
   13486      ob       1    MUSC   O02F8       1     -1.05    15.999
   13487      ob       1    MUSC   O02F9       1     -1.05    15.999
   13488      ob       1    MUSC   O02FA       1     -1.05    15.999
   13489      ob       1    MUSC   O02FB       1     -1.05    15.999
   13490      ob       1    MUSC   O02FC       1     -1.05    15.999
   13491      ob       1    MUSC   O02FD       1     -1.05    15.999
   13492      ob       1    MUSC   O02FE       1     -1.05    15.999
   13493      ob       1    MUSC   O02FF       1     -1.05    15.999
   13494      ob       1    MUSC   O02FG       1     -1.05    15.999
   13495      ob       1    MUSC   O02FH       1     -1.05    15.999
   13496      ob       1    MUSC   O02FI       1     -1.05    15.999
   13497      ob       1    MUSC   O02FJ       1     -1.05    15.999
   13498      ob       1    MUSC   O02FK       1     -1.05    15.999
   13499      ob       1    MUSC   O02FL       1     -1.05    15.999
   13500      ob       1    MUSC   O02FM       1     -1.05    15.999
   13501       K       1    MUSC   K008j       1       1.0    39.098
   13502       K       1    MUSC   K008k       1       1.0    39.098
   13503      ao       1    MUSC   Al0NF       1     1.575    26.982
   13504      ao       1    MUSC   Al0NG       1     1.575    26.982
   13505      ao       1    MUSC   Al0NH       1     1.575    26.982
   13506      ao       1    MUSC   Al0NI       1     1.575    26.982
   13507      ao       1    MUSC   Al0NJ       1     1.575    26.982
   13508      ao       1    MUSC   Al0NK       1     1.575    26.982
   13509      ao       1    MUSC   Al0NL       1     1.575    26.982
   13510      ao       1    MUSC   Al0NM       1     1.575    26.982
   13511      st       1    MUSC   Si0kT       1       2.1    28.086
   13512      st       1    MUSC   Si0kU       1       2.1    28.086
   13513      st       1    MUSC   Si0kV       1       2.1    28.086
   13514      st       1    MUSC   Si0kW       1       2.1    28.086
   13515      st       1    MUSC   Si0kX       1       2.1    28.086
   13516      st       1    MUSC   Si0kY       1       2.1    28.086
   13517      st       1    MUSC   Si0kZ       1       2.1    28.086
   13518      st       1    MUSC   Si0ka       1       2.1    28.086
   13519      st       1    MUSC   Si0kb       1       2.1    28.086
   13520      st       1    MUSC   Si0kc       1       2.1    28.086
   13521      st       1    MUSC   Si0kd       1       2.1    28.086
   13522      st       1    MUSC   Si0ke       1       2.1    28.086
   13523      st       1    MUSC   Si0kf       1       2.1    28.086
   13524      st       1    MUSC   Si0kg       1       2.1    28.086
   13525      st       1    MUSC   Si0kh       1       2.1    28.086
   13526      st       1    MUSC   Si0ki       1       2.1    28.086
   13527      ob       1    MUSC   O02FN       1     -1.05    15.999
   13528      ob       1    MUSC   O02FO       1     -1.05    15.999
   13529      ob       1    MUSC   O02FP       1     -1.05    15.999
   13530      ob       1    MUSC   O02FQ       1     -1.05    15.999
   13531      oh       1    MUSC   O02FR       1     -0.95    15.999
   13532      oh       1    MUSC   O02FS       1     -0.95    15.999
   13533      oh       1    MUSC   O02FT       1     -0.95    15.999
   13534      oh       1    MUSC   O02FU       1     -0.95    15.999
   13535      ob       1    MUSC   O02FV       1     -1.05    15.999
   13536      ob       1    MUSC   O02FW       1     -1.05    15.999
   13537      ob       1    MUSC   O02FX       1     -1.05    15.999
   13538      ob       1    MUSC   O02FY       1     -1.05    15.999
   13539      ob       1    MUSC   O02FZ       1     -1.05    15.999
   13540      ob       1    MUSC   O02Fa       1     -1.05    15.999
   13541      ob       1    MUSC   O02Fb       1     -1.05    15.999
   13542      ob       1    MUSC   O02Fc       1     -1.05    15.999
   13543      ob       1    MUSC   O02Fd       1     -1.05    15.999
   13544      ob       1    MUSC   O02Fe       1     -1.05    15.999
   13545      ob       1    MUSC   O02Ff       1     -1.05    15.999
   13546      ob       1    MUSC   O02Fg       1     -1.05    15.999
   13547      ob       1    MUSC   O02Fh       1     -1.05    15.999
   13548      ob       1    MUSC   O02Fi       1     -1.05    15.999
   13549      ob       1    MUSC   O02Fj       1     -1.05    15.999
   13550      ob       1    MUSC   O02Fk       1     -1.05    15.999
   13551      ob       1    MUSC   O02Fl       1     -1.05    15.999
   13552      ob       1    MUSC   O02Fm       1     -1.05    15.999
   13553      ob       1    MUSC   O02Fn       1     -1.05    15.999
   13554      ob       1    MUSC   O02Fo       1     -1.05    15.999
   13555      oh       1    MUSC   O02Fp       1     -0.95    15.999
   13556      oh       1    MUSC   O02Fq       1     -0.95    15.999
   13557      oh       1    MUSC   O02Fr       1     -0.95    15.999
   13558      oh       1    MUSC   O02Fs       1     -0.95    15.999
   13559      ob       1    MUSC   O02Ft       1     -1.05    15.999
   13560      ob       1    MUSC   O02Fu       1     -1.05    15.999
   13561      ob       1    MUSC   O02Fv       1     -1.05    15.999
   13562      ob       1    MUSC   O02Fw       1     -1.05    15.999
   13563      ob       1    MUSC   O02Fx       1     -1.05    15.999
   13564      ob       1    MUSC   O02Fy       1     -1.05    15.999
   13565      ob       1    MUSC   O02Fz       1     -1.05    15.999
   13566      ob       1    MUSC   O02G0       1     -1.05    15.999
   13567      ob       1    MUSC   O02G1       1     -1.05    15.999
   13568      ob       1    MUSC   O02G2       1     -1.05    15.999
   13569      ob       1    MUSC   O02G3       1     -1.05    15.999
   13570      ob       1    MUSC   O02G4       1     -1.05    15.999
   13571      ob       1    MUSC   O02G5       1     -1.05    15.999
   13572      ob       1    MUSC   O02G6       1     -1.05    15.999
   13573      ob       1    MUSC   O02G7       1     -1.05    15.999
   13574      ob       1    MUSC   O02G8       1     -1.05    15.999
   13575       K       1    MUSC   K008l       1       1.0    39.098
   13576       K       1    MUSC   K008m       1       1.0    39.098
   13577       K       1    MUSC   K008n       1       1.0    39.098
   13578       K       1    MUSC   K008o       1       1.0    39.098
   13579      ao       1    MUSC   Al0NN       1     1.575    26.982
   13580      ao       1    MUSC   Al0NO       1     1.575    26.982
   13581      ao       1    MUSC   Al0NP       1     1.575    26.982
   13582      ao       1    MUSC   Al0NQ       1     1.575    26.982
   13583      ao       1    MUSC   Al0NR       1     1.575    26.982
   13584      ao       1    MUSC   Al0NS       1     1.575    26.982
   13585      ao       1    MUSC   Al0NT       1     1.575    26.982
   13586      ao       1    MUSC   Al0NU       1     1.575    26.982
   13587      st       1    MUSC   Si0kj       1       2.1    28.086
   13588      st       1    MUSC   Si0kk       1       2.1    28.086
   13589      st       1    MUSC   Si0kl       1       2.1    28.086
   13590      st       1    MUSC   Si0km       1       2.1    28.086
   13591      st       1    MUSC   Si0kn       1       2.1    28.086
   13592      st       1    MUSC   Si0ko       1       2.1    28.086
   13593      st       1    MUSC   Si0kp       1       2.1    28.086
   13594      st       1    MUSC   Si0kq       1       2.1    28.086
   13595      st       1    MUSC   Si0kr       1       2.1    28.086
   13596      st       1    MUSC   Si0ks       1       2.1    28.086
   13597      st       1    MUSC   Si0kt       1       2.1    28.086
   13598      st       1    MUSC   Si0ku       1       2.1    28.086
   13599      st       1    MUSC   Si0kv       1       2.1    28.086
   13600      st       1    MUSC   Si0kw       1       2.1    28.086
   13601      st       1    MUSC   Si0kx       1       2.1    28.086
   13602      st       1    MUSC   Si0ky       1       2.1    28.086
   13603      ob       1    MUSC   O02G9       1     -1.05    15.999
   13604      ob       1    MUSC   O02GA       1     -1.05    15.999
   13605      ob       1    MUSC   O02GB       1     -1.05    15.999
   13606      ob       1    MUSC   O02GC       1     -1.05    15.999
   13607      oh       1    MUSC   O02GD       1     -0.95    15.999
   13608      oh       1    MUSC   O02GE       1     -0.95    15.999
   13609      oh       1    MUSC   O02GF       1     -0.95    15.999
   13610      oh       1    MUSC   O02GG       1     -0.95    15.999
   13611      ob       1    MUSC   O02GH       1     -1.05    15.999
   13612      ob       1    MUSC   O02GI       1     -1.05    15.999
   13613      ob       1    MUSC   O02GJ       1     -1.05    15.999
   13614      ob       1    MUSC   O02GK       1     -1.05    15.999
   13615      ob       1    MUSC   O02GL       1     -1.05    15.999
   13616      ob       1    MUSC   O02GM       1     -1.05    15.999
   13617      ob       1    MUSC   O02GN       1     -1.05    15.999
   13618      ob       1    MUSC   O02GO       1     -1.05    15.999
   13619      ob       1    MUSC   O02GP       1     -1.05    15.999
   13620      ob       1    MUSC   O02GQ       1     -1.05    15.999
   13621      ob       1    MUSC   O02GR       1     -1.05    15.999
   13622      ob       1    MUSC   O02GS       1     -1.05    15.999
   13623      ob       1    MUSC   O02GT       1     -1.05    15.999
   13624      ob       1    MUSC   O02GU       1     -1.05    15.999
   13625      ob       1    MUSC   O02GV       1     -1.05    15.999
   13626      ob       1    MUSC   O02GW       1     -1.05    15.999
   13627      ob       1    MUSC   O02GX       1     -1.05    15.999
   13628      ob       1    MUSC   O02GY       1     -1.05    15.999
   13629      ob       1    MUSC   O02GZ       1     -1.05    15.999
   13630      ob       1    MUSC   O02Ga       1     -1.05    15.999
   13631      oh       1    MUSC   O02Gb       1     -0.95    15.999
   13632      oh       1    MUSC   O02Gc       1     -0.95    15.999
   13633      oh       1    MUSC   O02Gd       1     -0.95    15.999
   13634      oh       1    MUSC   O02Ge       1     -0.95    15.999
   13635      ob       1    MUSC   O02Gf       1     -1.05    15.999
   13636      ob       1    MUSC   O02Gg       1     -1.05    15.999
   13637      ob       1    MUSC   O02Gh       1     -1.05    15.999
   13638      ob       1    MUSC   O02Gi       1     -1.05    15.999
   13639      ob       1    MUSC   O02Gj       1     -1.05    15.999
   13640      ob       1    MUSC   O02Gk       1     -1.05    15.999
   13641      ob       1    MUSC   O02Gl       1     -1.05    15.999
   13642      ob       1    MUSC   O02Gm       1     -1.05    15.999
   13643      ob       1    MUSC   O02Gn       1     -1.05    15.999
   13644      ob       1    MUSC   O02Go       1     -1.05    15.999
   13645      ob       1    MUSC   O02Gp       1     -1.05    15.999
   13646      ob       1    MUSC   O02Gq       1     -1.05    15.999
   13647      ob       1    MUSC   O02Gr       1     -1.05    15.999
   13648      ob       1    MUSC   O02Gs       1     -1.05    15.999
   13649      ob       1    MUSC   O02Gt       1     -1.05    15.999
   13650      ob       1    MUSC   O02Gu       1     -1.05    15.999
   13651       K       1    MUSC   K008p       1       1.0    39.098
   13652       K       1    MUSC   K008q       1       1.0    39.098
   13653      ao       1    MUSC   Al0NV       1     1.575    26.982
   13654      ao       1    MUSC   Al0NW       1     1.575    26.982
   13655      ao       1    MUSC   Al0NX       1     1.575    26.982
   13656      ao       1    MUSC   Al0NY       1     1.575    26.982
   13657      ao       1    MUSC   Al0NZ       1     1.575    26.982
   13658      ao       1    MUSC   Al0Na       1     1.575    26.982
   13659      ao       1    MUSC   Al0Nb       1     1.575    26.982
   13660      ao       1    MUSC   Al0Nc       1     1.575    26.982
   13661      st       1    MUSC   Si0kz       1       2.1    28.086
   13662      st       1    MUSC   Si0l0       1       2.1    28.086
   13663      st       1    MUSC   Si0l1       1       2.1    28.086
   13664      st       1    MUSC   Si0l2       1       2.1    28.086
   13665      st       1    MUSC   Si0l3       1       2.1    28.086
   13666      st       1    MUSC   Si0l4       1       2.1    28.086
   13667      st       1    MUSC   Si0l5       1       2.1    28.086
   13668      st       1    MUSC   Si0l6       1       2.1    28.086
   13669      st       1    MUSC   Si0l7       1       2.1    28.086
   13670      st       1    MUSC   Si0l8       1       2.1    28.086
   13671      st       1    MUSC   Si0l9       1       2.1    28.086
   13672      st       1    MUSC   Si0lA       1       2.1    28.086
   13673      st       1    MUSC   Si0lB       1       2.1    28.086
   13674      st       1    MUSC   Si0lC       1       2.1    28.086
   13675      st       1    MUSC   Si0lD       1       2.1    28.086
   13676      st       1    MUSC   Si0lE       1       2.1    28.086
   13677      ob       1    MUSC   O02Gv       1     -1.05    15.999
   13678      ob       1    MUSC   O02Gw       1     -1.05    15.999
   13679      ob       1    MUSC   O02Gx       1     -1.05    15.999
   13680      ob       1    MUSC   O02Gy       1     -1.05    15.999
   13681      oh       1    MUSC   O02Gz       1     -0.95    15.999
   13682      oh       1    MUSC   O02H0       1     -0.95    15.999
   13683      oh       1    MUSC   O02H1       1     -0.95    15.999
   13684      oh       1    MUSC   O02H2       1     -0.95    15.999
   13685      ob       1    MUSC   O02H3       1     -1.05    15.999
   13686      ob       1    MUSC   O02H4       1     -1.05    15.999
   13687      ob       1    MUSC   O02H5       1     -1.05    15.999
   13688      ob       1    MUSC   O02H6       1     -1.05    15.999
   13689      ob       1    MUSC   O02H7       1     -1.05    15.999
   13690      ob       1    MUSC   O02H8       1     -1.05    15.999
   13691      ob       1    MUSC   O02H9       1     -1.05    15.999
   13692      ob       1    MUSC   O02HA       1     -1.05    15.999
   13693      ob       1    MUSC   O02HB       1     -1.05    15.999
   13694      ob       1    MUSC   O02HC       1     -1.05    15.999
   13695      ob       1    MUSC   O02HD       1     -1.05    15.999
   13696      ob       1    MUSC   O02HE       1     -1.05    15.999
   13697      ob       1    MUSC   O02HF       1     -1.05    15.999
   13698      ob       1    MUSC   O02HG       1     -1.05    15.999
   13699      ob       1    MUSC   O02HH       1     -1.05    15.999
   13700      ob       1    MUSC   O02HI       1     -1.05    15.999
   13701      ob       1    MUSC   O02HJ       1     -1.05    15.999
   13702      ob       1    MUSC   O02HK       1     -1.05    15.999
   13703      ob       1    MUSC   O02HL       1     -1.05    15.999
   13704      ob       1    MUSC   O02HM       1     -1.05    15.999
   13705      oh       1    MUSC   O02HN       1     -0.95    15.999
   13706      oh       1    MUSC   O02HO       1     -0.95    15.999
   13707      oh       1    MUSC   O02HP       1     -0.95    15.999
   13708      oh       1    MUSC   O02HQ       1     -0.95    15.999
   13709      ob       1    MUSC   O02HR       1     -1.05    15.999
   13710      ob       1    MUSC   O02HS       1     -1.05    15.999
   13711      ob       1    MUSC   O02HT       1     -1.05    15.999
   13712      ob       1    MUSC   O02HU       1     -1.05    15.999
   13713      ob       1    MUSC   O02HV       1     -1.05    15.999
   13714      ob       1    MUSC   O02HW       1     -1.05    15.999
   13715      ob       1    MUSC   O02HX       1     -1.05    15.999
   13716      ob       1    MUSC   O02HY       1     -1.05    15.999
   13717      ob       1    MUSC   O02HZ       1     -1.05    15.999
   13718      ob       1    MUSC   O02Ha       1     -1.05    15.999
   13719      ob       1    MUSC   O02Hb       1     -1.05    15.999
   13720      ob       1    MUSC   O02Hc       1     -1.05    15.999
   13721      ob       1    MUSC   O02Hd       1     -1.05    15.999
   13722      ob       1    MUSC   O02He       1     -1.05    15.999
   13723      ob       1    MUSC   O02Hf       1     -1.05    15.999
   13724      ob       1    MUSC   O02Hg       1     -1.05    15.999
   13725       K       1    MUSC   K008r       1       1.0    39.098
   13726       K       1    MUSC   K008s       1       1.0    39.098
   13727       K       1    MUSC   K008t       1       1.0    39.098
   13728       K       1    MUSC   K008u       1       1.0    39.098
   13729      ao       1    MUSC   Al0Nd       1     1.575    26.982
   13730      ao       1    MUSC   Al0Ne       1     1.575    26.982
   13731      ao       1    MUSC   Al0Nf       1     1.575    26.982
   13732      ao       1    MUSC   Al0Ng       1     1.575    26.982
   13733      ao       1    MUSC   Al0Nh       1     1.575    26.982
   13734      ao       1    MUSC   Al0Ni       1     1.575    26.982
   13735      ao       1    MUSC   Al0Nj       1     1.575    26.982
   13736      ao       1    MUSC   Al0Nk       1     1.575    26.982
   13737      st       1    MUSC   Si0lF       1       2.1    28.086
   13738      st       1    MUSC   Si0lG       1       2.1    28.086
   13739      st       1    MUSC   Si0lH       1       2.1    28.086
   13740      st       1    MUSC   Si0lI       1       2.1    28.086
   13741      st       1    MUSC   Si0lJ       1       2.1    28.086
   13742      st       1    MUSC   Si0lK       1       2.1    28.086
   13743      st       1    MUSC   Si0lL       1       2.1    28.086
   13744      st       1    MUSC   Si0lM       1       2.1    28.086
   13745      st       1    MUSC   Si0lN       1       2.1    28.086
   13746      st       1    MUSC   Si0lO       1       2.1    28.086
   13747      st       1    MUSC   Si0lP       1       2.1    28.086
   13748      st       1    MUSC   Si0lQ       1       2.1    28.086
   13749      st       1    MUSC   Si0lR       1       2.1    28.086
   13750      st       1    MUSC   Si0lS       1       2.1    28.086
   13751      st       1    MUSC   Si0lT       1       2.1    28.086
   13752      st       1    MUSC   Si0lU       1       2.1    28.086
   13753      ob       1    MUSC   O02Hh       1     -1.05    15.999
   13754      ob       1    MUSC   O02Hi       1     -1.05    15.999
   13755      ob       1    MUSC   O02Hj       1     -1.05    15.999
   13756      ob       1    MUSC   O02Hk       1     -1.05    15.999
   13757      oh       1    MUSC   O02Hl       1     -0.95    15.999
   13758      oh       1    MUSC   O02Hm       1     -0.95    15.999
   13759      oh       1    MUSC   O02Hn       1     -0.95    15.999
   13760      oh       1    MUSC   O02Ho       1     -0.95    15.999
   13761      ob       1    MUSC   O02Hp       1     -1.05    15.999
   13762      ob       1    MUSC   O02Hq       1     -1.05    15.999
   13763      ob       1    MUSC   O02Hr       1     -1.05    15.999
   13764      ob       1    MUSC   O02Hs       1     -1.05    15.999
   13765      ob       1    MUSC   O02Ht       1     -1.05    15.999
   13766      ob       1    MUSC   O02Hu       1     -1.05    15.999
   13767      ob       1    MUSC   O02Hv       1     -1.05    15.999
   13768      ob       1    MUSC   O02Hw       1     -1.05    15.999
   13769      ob       1    MUSC   O02Hx       1     -1.05    15.999
   13770      ob       1    MUSC   O02Hy       1     -1.05    15.999
   13771      ob       1    MUSC   O02Hz       1     -1.05    15.999
   13772      ob       1    MUSC   O02I0       1     -1.05    15.999
   13773      ob       1    MUSC   O02I1       1     -1.05    15.999
   13774      ob       1    MUSC   O02I2       1     -1.05    15.999
   13775      ob       1    MUSC   O02I3       1     -1.05    15.999
   13776      ob       1    MUSC   O02I4       1     -1.05    15.999
   13777      ob       1    MUSC   O02I5       1     -1.05    15.999
   13778      ob       1    MUSC   O02I6       1     -1.05    15.999
   13779      ob       1    MUSC   O02I7       1     -1.05    15.999
   13780      ob       1    MUSC   O02I8       1     -1.05    15.999
   13781      oh       1    MUSC   O02I9       1     -0.95    15.999
   13782      oh       1    MUSC   O02IA       1     -0.95    15.999
   13783      oh       1    MUSC   O02IB       1     -0.95    15.999
   13784      oh       1    MUSC   O02IC       1     -0.95    15.999
   13785      ob       1    MUSC   O02ID       1     -1.05    15.999
   13786      ob       1    MUSC   O02IE       1     -1.05    15.999
   13787      ob       1    MUSC   O02IF       1     -1.05    15.999
   13788      ob       1    MUSC   O02IG       1     -1.05    15.999
   13789      ob       1    MUSC   O02IH       1     -1.05    15.999
   13790      ob       1    MUSC   O02II       1     -1.05    15.999
   13791      ob       1    MUSC   O02IJ       1     -1.05    15.999
   13792      ob       1    MUSC   O02IK       1     -1.05    15.999
   13793      ob       1    MUSC   O02IL       1     -1.05    15.999
   13794      ob       1    MUSC   O02IM       1     -1.05    15.999
   13795      ob       1    MUSC   O02IN       1     -1.05    15.999
   13796      ob       1    MUSC   O02IO       1     -1.05    15.999
   13797      ob       1    MUSC   O02IP       1     -1.05    15.999
   13798      ob       1    MUSC   O02IQ       1     -1.05    15.999
   13799      ob       1    MUSC   O02IR       1     -1.05    15.999
   13800      ob       1    MUSC   O02IS       1     -1.05    15.999
   13801       K       1    MUSC   K008v       1       1.0    39.098
   13802       K       1    MUSC   K008w       1       1.0    39.098
   13803      ao       1    MUSC   Al0Nl       1     1.575    26.982
   13804      ao       1    MUSC   Al0Nm       1     1.575    26.982
   13805      ao       1    MUSC   Al0Nn       1     1.575    26.982
   13806      ao       1    MUSC   Al0No       1     1.575    26.982
   13807      ao       1    MUSC   Al0Np       1     1.575    26.982
   13808      ao       1    MUSC   Al0Nq       1     1.575    26.982
   13809      ao       1    MUSC   Al0Nr       1     1.575    26.982
   13810      ao       1    MUSC   Al0Ns       1     1.575    26.982
   13811      st       1    MUSC   Si0lV       1       2.1    28.086
   13812      st       1    MUSC   Si0lW       1       2.1    28.086
   13813      st       1    MUSC   Si0lX       1       2.1    28.086
   13814      st       1    MUSC   Si0lY       1       2.1    28.086
   13815      st       1    MUSC   Si0lZ       1       2.1    28.086
   13816      st       1    MUSC   Si0la       1       2.1    28.086
   13817      st       1    MUSC   Si0lb       1       2.1    28.086
   13818      st       1    MUSC   Si0lc       1       2.1    28.086
   13819      st       1    MUSC   Si0ld       1       2.1    28.086
   13820      st       1    MUSC   Si0le       1       2.1    28.086
   13821      st       1    MUSC   Si0lf       1       2.1    28.086
   13822      st       1    MUSC   Si0lg       1       2.1    28.086
   13823      st       1    MUSC   Si0lh       1       2.1    28.086
   13824      st       1    MUSC   Si0li       1       2.1    28.086
   13825      st       1    MUSC   Si0lj       1       2.1    28.086
   13826      st       1    MUSC   Si0lk       1       2.1    28.086
   13827      ob       1    MUSC   O02IT       1     -1.05    15.999
   13828      ob       1    MUSC   O02IU       1     -1.05    15.999
   13829      ob       1    MUSC   O02IV       1     -1.05    15.999
   13830      ob       1    MUSC   O02IW       1     -1.05    15.999
   13831      oh       1    MUSC   O02IX       1     -0.95    15.999
   13832      oh       1    MUSC   O02IY       1     -0.95    15.999
   13833      oh       1    MUSC   O02IZ       1     -0.95    15.999
   13834      oh       1    MUSC   O02Ia       1     -0.95    15.999
   13835      ob       1    MUSC   O02Ib       1     -1.05    15.999
   13836      ob       1    MUSC   O02Ic       1     -1.05    15.999
   13837      ob       1    MUSC   O02Id       1     -1.05    15.999
   13838      ob       1    MUSC   O02Ie       1     -1.05    15.999
   13839      ob       1    MUSC   O02If       1     -1.05    15.999
   13840      ob       1    MUSC   O02Ig       1     -1.05    15.999
   13841      ob       1    MUSC   O02Ih       1     -1.05    15.999
   13842      ob       1    MUSC   O02Ii       1     -1.05    15.999
   13843      ob       1    MUSC   O02Ij       1     -1.05    15.999
   13844      ob       1    MUSC   O02Ik       1     -1.05    15.999
   13845      ob       1    MUSC   O02Il       1     -1.05    15.999
   13846      ob       1    MUSC   O02Im       1     -1.05    15.999
   13847      ob       1    MUSC   O02In       1     -1.05    15.999
   13848      ob       1    MUSC   O02Io       1     -1.05    15.999
   13849      ob       1    MUSC   O02Ip       1     -1.05    15.999
   13850      ob       1    MUSC   O02Iq       1     -1.05    15.999
   13851      ob       1    MUSC   O02Ir       1     -1.05    15.999
   13852      ob       1    MUSC   O02Is       1     -1.05    15.999
   13853      ob       1    MUSC   O02It       1     -1.05    15.999
   13854      ob       1    MUSC   O02Iu       1     -1.05    15.999
   13855      oh       1    MUSC   O02Iv       1     -0.95    15.999
   13856      oh       1    MUSC   O02Iw       1     -0.95    15.999
   13857      oh       1    MUSC   O02Ix       1     -0.95    15.999
   13858      oh       1    MUSC   O02Iy       1     -0.95    15.999
   13859      ob       1    MUSC   O02Iz       1     -1.05    15.999
   13860      ob       1    MUSC   O02J0       1     -1.05    15.999
   13861      ob       1    MUSC   O02J1       1     -1.05    15.999
   13862      ob       1    MUSC   O02J2       1     -1.05    15.999
   13863      ob       1    MUSC   O02J3       1     -1.05    15.999
   13864      ob       1    MUSC   O02J4       1     -1.05    15.999
   13865      ob       1    MUSC   O02J5       1     -1.05    15.999
   13866      ob       1    MUSC   O02J6       1     -1.05    15.999
   13867      ob       1    MUSC   O02J7       1     -1.05    15.999
   13868      ob       1    MUSC   O02J8       1     -1.05    15.999
   13869      ob       1    MUSC   O02J9       1     -1.05    15.999
   13870      ob       1    MUSC   O02JA       1     -1.05    15.999
   13871      ob       1    MUSC   O02JB       1     -1.05    15.999
   13872      ob       1    MUSC   O02JC       1     -1.05    15.999
   13873      ob       1    MUSC   O02JD       1     -1.05    15.999
   13874      ob       1    MUSC   O02JE       1     -1.05    15.999
   13875       K       1    MUSC   K008x       1       1.0    39.098
   13876       K       1    MUSC   K008y       1       1.0    39.098
   13877       K       1    MUSC   K008z       1       1.0    39.098
   13878       K       1    MUSC   K0090       1       1.0    39.098
   13879      ao       1    MUSC   Al0Nt       1     1.575    26.982
   13880      ao       1    MUSC   Al0Nu       1     1.575    26.982
   13881      ao       1    MUSC   Al0Nv       1     1.575    26.982
   13882      ao       1    MUSC   Al0Nw       1     1.575    26.982
   13883      ao       1    MUSC   Al0Nx       1     1.575    26.982
   13884      ao       1    MUSC   Al0Ny       1     1.575    26.982
   13885      ao       1    MUSC   Al0Nz       1     1.575    26.982
   13886      ao       1    MUSC   Al0O0       1     1.575    26.982
   13887      st       1    MUSC   Si0ll       1       2.1    28.086
   13888      st       1    MUSC   Si0lm       1       2.1    28.086
   13889      st       1    MUSC   Si0ln       1       2.1    28.086
   13890      st       1    MUSC   Si0lo       1       2.1    28.086
   13891      st       1    MUSC   Si0lp       1       2.1    28.086
   13892      st       1    MUSC   Si0lq       1       2.1    28.086
   13893      st       1    MUSC   Si0lr       1       2.1    28.086
   13894      st       1    MUSC   Si0ls       1       2.1    28.086
   13895      st       1    MUSC   Si0lt       1       2.1    28.086
   13896      st       1    MUSC   Si0lu       1       2.1    28.086
   13897      st       1    MUSC   Si0lv       1       2.1    28.086
   13898      st       1    MUSC   Si0lw       1       2.1    28.086
   13899      st       1    MUSC   Si0lx       1       2.1    28.086
   13900      st       1    MUSC   Si0ly       1       2.1    28.086
   13901      st       1    MUSC   Si0lz       1       2.1    28.086
   13902      st       1    MUSC   Si0m0       1       2.1    28.086
   13903      ob       1    MUSC   O02JF       1     -1.05    15.999
   13904      ob       1    MUSC   O02JG       1     -1.05    15.999
   13905      ob       1    MUSC   O02JH       1     -1.05    15.999
   13906      ob       1    MUSC   O02JI       1     -1.05    15.999
   13907      oh       1    MUSC   O02JJ       1     -0.95    15.999
   13908      oh       1    MUSC   O02JK       1     -0.95    15.999
   13909      oh       1    MUSC   O02JL       1     -0.95    15.999
   13910      oh       1    MUSC   O02JM       1     -0.95    15.999
   13911      ob       1    MUSC   O02JN       1     -1.05    15.999
   13912      ob       1    MUSC   O02JO       1     -1.05    15.999
   13913      ob       1    MUSC   O02JP       1     -1.05    15.999
   13914      ob       1    MUSC   O02JQ       1     -1.05    15.999
   13915      ob       1    MUSC   O02JR       1     -1.05    15.999
   13916      ob       1    MUSC   O02JS       1     -1.05    15.999
   13917      ob       1    MUSC   O02JT       1     -1.05    15.999
   13918      ob       1    MUSC   O02JU       1     -1.05    15.999
   13919      ob       1    MUSC   O02JV       1     -1.05    15.999
   13920      ob       1    MUSC   O02JW       1     -1.05    15.999
   13921      ob       1    MUSC   O02JX       1     -1.05    15.999
   13922      ob       1    MUSC   O02JY       1     -1.05    15.999
   13923      ob       1    MUSC   O02JZ       1     -1.05    15.999
   13924      ob       1    MUSC   O02Ja       1     -1.05    15.999
   13925      ob       1    MUSC   O02Jb       1     -1.05    15.999
   13926      ob       1    MUSC   O02Jc       1     -1.05    15.999
   13927      ob       1    MUSC   O02Jd       1     -1.05    15.999
   13928      ob       1    MUSC   O02Je       1     -1.05    15.999
   13929      ob       1    MUSC   O02Jf       1     -1.05    15.999
   13930      ob       1    MUSC   O02Jg       1     -1.05    15.999
   13931      oh       1    MUSC   O02Jh       1     -0.95    15.999
   13932      oh       1    MUSC   O02Ji       1     -0.95    15.999
   13933      oh       1    MUSC   O02Jj       1     -0.95    15.999
   13934      oh       1    MUSC   O02Jk       1     -0.95    15.999
   13935      ob       1    MUSC   O02Jl       1     -1.05    15.999
   13936      ob       1    MUSC   O02Jm       1     -1.05    15.999
   13937      ob       1    MUSC   O02Jn       1     -1.05    15.999
   13938      ob       1    MUSC   O02Jo       1     -1.05    15.999
   13939      ob       1    MUSC   O02Jp       1     -1.05    15.999
   13940      ob       1    MUSC   O02Jq       1     -1.05    15.999
   13941      ob       1    MUSC   O02Jr       1     -1.05    15.999
   13942      ob       1    MUSC   O02Js       1     -1.05    15.999
   13943      ob       1    MUSC   O02Jt       1     -1.05    15.999
   13944      ob       1    MUSC   O02Ju       1     -1.05    15.999
   13945      ob       1    MUSC   O02Jv       1     -1.05    15.999
   13946      ob       1    MUSC   O02Jw       1     -1.05    15.999
   13947      ob       1    MUSC   O02Jx       1     -1.05    15.999
   13948      ob       1    MUSC   O02Jy       1     -1.05    15.999
   13949      ob       1    MUSC   O02Jz       1     -1.05    15.999
   13950      ob       1    MUSC   O02K0       1     -1.05    15.999
   13951       K       1    MUSC   K0091       1       1.0    39.098
   13952       K       1    MUSC   K0092       1       1.0    39.098
   13953      ao       1    MUSC   Al0O1       1     1.575    26.982
   13954      ao       1    MUSC   Al0O2       1     1.575    26.982
   13955      ao       1    MUSC   Al0O3       1     1.575    26.982
   13956      ao       1    MUSC   Al0O4       1     1.575    26.982
   13957      ao       1    MUSC   Al0O5       1     1.575    26.982
   13958      ao       1    MUSC   Al0O6       1     1.575    26.982
   13959      ao       1    MUSC   Al0O7       1     1.575    26.982
   13960      ao       1    MUSC   Al0O8       1     1.575    26.982
   13961      st       1    MUSC   Si0m1       1       2.1    28.086
   13962      st       1    MUSC   Si0m2       1       2.1    28.086
   13963      st       1    MUSC   Si0m3       1       2.1    28.086
   13964      st       1    MUSC   Si0m4       1       2.1    28.086
   13965      st       1    MUSC   Si0m5       1       2.1    28.086
   13966      st       1    MUSC   Si0m6       1       2.1    28.086
   13967      st       1    MUSC   Si0m7       1       2.1    28.086
   13968      st       1    MUSC   Si0m8       1       2.1    28.086
   13969      st       1    MUSC   Si0m9       1       2.1    28.086
   13970      st       1    MUSC   Si0mA       1       2.1    28.086
   13971      st       1    MUSC   Si0mB       1       2.1    28.086
   13972      st       1    MUSC   Si0mC       1       2.1    28.086
   13973      st       1    MUSC   Si0mD       1       2.1    28.086
   13974      st       1    MUSC   Si0mE       1       2.1    28.086
   13975      st       1    MUSC   Si0mF       1       2.1    28.086
   13976      st       1    MUSC   Si0mG       1       2.1    28.086
   13977      ob       1    MUSC   O02K1       1     -1.05    15.999
   13978      ob       1    MUSC   O02K2       1     -1.05    15.999
   13979      ob       1    MUSC   O02K3       1     -1.05    15.999
   13980      ob       1    MUSC   O02K4       1     -1.05    15.999
   13981      oh       1    MUSC   O02K5       1     -0.95    15.999
   13982      oh       1    MUSC   O02K6       1     -0.95    15.999
   13983      oh       1    MUSC   O02K7       1     -0.95    15.999
   13984      oh       1    MUSC   O02K8       1     -0.95    15.999
   13985      ob       1    MUSC   O02K9       1     -1.05    15.999
   13986      ob       1    MUSC   O02KA       1     -1.05    15.999
   13987      ob       1    MUSC   O02KB       1     -1.05    15.999
   13988      ob       1    MUSC   O02KC       1     -1.05    15.999
   13989      ob       1    MUSC   O02KD       1     -1.05    15.999
   13990      ob       1    MUSC   O02KE       1     -1.05    15.999
   13991      ob       1    MUSC   O02KF       1     -1.05    15.999
   13992      ob       1    MUSC   O02KG       1     -1.05    15.999
   13993      ob       1    MUSC   O02KH       1     -1.05    15.999
   13994      ob       1    MUSC   O02KI       1     -1.05    15.999
   13995      ob       1    MUSC   O02KJ       1     -1.05    15.999
   13996      ob       1    MUSC   O02KK       1     -1.05    15.999
   13997      ob       1    MUSC   O02KL       1     -1.05    15.999
   13998      ob       1    MUSC   O02KM       1     -1.05    15.999
   13999      ob       1    MUSC   O02KN       1     -1.05    15.999
   14000      ob       1    MUSC   O02KO       1     -1.05    15.999
   14001      ob       1    MUSC   O02KP       1     -1.05    15.999
   14002      ob       1    MUSC   O02KQ       1     -1.05    15.999
   14003      ob       1    MUSC   O02KR       1     -1.05    15.999
   14004      ob       1    MUSC   O02KS       1     -1.05    15.999
   14005      oh       1    MUSC   O02KT       1     -0.95    15.999
   14006      oh       1    MUSC   O02KU       1     -0.95    15.999
   14007      oh       1    MUSC   O02KV       1     -0.95    15.999
   14008      oh       1    MUSC   O02KW       1     -0.95    15.999
   14009      ob       1    MUSC   O02KX       1     -1.05    15.999
   14010      ob       1    MUSC   O02KY       1     -1.05    15.999
   14011      ob       1    MUSC   O02KZ       1     -1.05    15.999
   14012      ob       1    MUSC   O02Ka       1     -1.05    15.999
   14013      ob       1    MUSC   O02Kb       1     -1.05    15.999
   14014      ob       1    MUSC   O02Kc       1     -1.05    15.999
   14015      ob       1    MUSC   O02Kd       1     -1.05    15.999
   14016      ob       1    MUSC   O02Ke       1     -1.05    15.999
   14017      ob       1    MUSC   O02Kf       1     -1.05    15.999
   14018      ob       1    MUSC   O02Kg       1     -1.05    15.999
   14019      ob       1    MUSC   O02Kh       1     -1.05    15.999
   14020      ob       1    MUSC   O02Ki       1     -1.05    15.999
   14021      ob       1    MUSC   O02Kj       1     -1.05    15.999
   14022      ob       1    MUSC   O02Kk       1     -1.05    15.999
   14023      ob       1    MUSC   O02Kl       1     -1.05    15.999
   14024      ob       1    MUSC   O02Km       1     -1.05    15.999
   14025       K       1    MUSC   K0093       1       1.0    39.098
   14026       K       1    MUSC   K0094       1       1.0    39.098
   14027       K       1    MUSC   K0095       1       1.0    39.098
   14028       K       1    MUSC   K0096       1       1.0    39.098
   14029      ao       1    MUSC   Al0O9       1     1.575    26.982
   14030      ao       1    MUSC   Al0OA       1     1.575    26.982
   14031      ao       1    MUSC   Al0OB       1     1.575    26.982
   14032      ao       1    MUSC   Al0OC       1     1.575    26.982
   14033      ao       1    MUSC   Al0OD       1     1.575    26.982
   14034      ao       1    MUSC   Al0OE       1     1.575    26.982
   14035      ao       1    MUSC   Al0OF       1     1.575    26.982
   14036      ao       1    MUSC   Al0OG       1     1.575    26.982
   14037      st       1    MUSC   Si0mH       1       2.1    28.086
   14038      st       1    MUSC   Si0mI       1       2.1    28.086
   14039      st       1    MUSC   Si0mJ       1       2.1    28.086
   14040      st       1    MUSC   Si0mK       1       2.1    28.086
   14041      st       1    MUSC   Si0mL       1       2.1    28.086
   14042      st       1    MUSC   Si0mM       1       2.1    28.086
   14043      st       1    MUSC   Si0mN       1       2.1    28.086
   14044      st       1    MUSC   Si0mO       1       2.1    28.086
   14045      st       1    MUSC   Si0mP       1       2.1    28.086
   14046      st       1    MUSC   Si0mQ       1       2.1    28.086
   14047      st       1    MUSC   Si0mR       1       2.1    28.086
   14048      st       1    MUSC   Si0mS       1       2.1    28.086
   14049      st       1    MUSC   Si0mT       1       2.1    28.086
   14050      st       1    MUSC   Si0mU       1       2.1    28.086
   14051      st       1    MUSC   Si0mV       1       2.1    28.086
   14052      st       1    MUSC   Si0mW       1       2.1    28.086
   14053      ob       1    MUSC   O02Kn       1     -1.05    15.999
   14054      ob       1    MUSC   O02Ko       1     -1.05    15.999
   14055      ob       1    MUSC   O02Kp       1     -1.05    15.999
   14056      ob       1    MUSC   O02Kq       1     -1.05    15.999
   14057      oh       1    MUSC   O02Kr       1     -0.95    15.999
   14058      oh       1    MUSC   O02Ks       1     -0.95    15.999
   14059      oh       1    MUSC   O02Kt       1     -0.95    15.999
   14060      oh       1    MUSC   O02Ku       1     -0.95    15.999
   14061      ob       1    MUSC   O02Kv       1     -1.05    15.999
   14062      ob       1    MUSC   O02Kw       1     -1.05    15.999
   14063      ob       1    MUSC   O02Kx       1     -1.05    15.999
   14064      ob       1    MUSC   O02Ky       1     -1.05    15.999
   14065      ob       1    MUSC   O02Kz       1     -1.05    15.999
   14066      ob       1    MUSC   O02L0       1     -1.05    15.999
   14067      ob       1    MUSC   O02L1       1     -1.05    15.999
   14068      ob       1    MUSC   O02L2       1     -1.05    15.999
   14069      ob       1    MUSC   O02L3       1     -1.05    15.999
   14070      ob       1    MUSC   O02L4       1     -1.05    15.999
   14071      ob       1    MUSC   O02L5       1     -1.05    15.999
   14072      ob       1    MUSC   O02L6       1     -1.05    15.999
   14073      ob       1    MUSC   O02L7       1     -1.05    15.999
   14074      ob       1    MUSC   O02L8       1     -1.05    15.999
   14075      ob       1    MUSC   O02L9       1     -1.05    15.999
   14076      ob       1    MUSC   O02LA       1     -1.05    15.999
   14077      ob       1    MUSC   O02LB       1     -1.05    15.999
   14078      ob       1    MUSC   O02LC       1     -1.05    15.999
   14079      ob       1    MUSC   O02LD       1     -1.05    15.999
   14080      ob       1    MUSC   O02LE       1     -1.05    15.999
   14081      oh       1    MUSC   O02LF       1     -0.95    15.999
   14082      oh       1    MUSC   O02LG       1     -0.95    15.999
   14083      oh       1    MUSC   O02LH       1     -0.95    15.999
   14084      oh       1    MUSC   O02LI       1     -0.95    15.999
   14085      ob       1    MUSC   O02LJ       1     -1.05    15.999
   14086      ob       1    MUSC   O02LK       1     -1.05    15.999
   14087      ob       1    MUSC   O02LL       1     -1.05    15.999
   14088      ob       1    MUSC   O02LM       1     -1.05    15.999
   14089      ob       1    MUSC   O02LN       1     -1.05    15.999
   14090      ob       1    MUSC   O02LO       1     -1.05    15.999
   14091      ob       1    MUSC   O02LP       1     -1.05    15.999
   14092      ob       1    MUSC   O02LQ       1     -1.05    15.999
   14093      ob       1    MUSC   O02LR       1     -1.05    15.999
   14094      ob       1    MUSC   O02LS       1     -1.05    15.999
   14095      ob       1    MUSC   O02LT       1     -1.05    15.999
   14096      ob       1    MUSC   O02LU       1     -1.05    15.999
   14097      ob       1    MUSC   O02LV       1     -1.05    15.999
   14098      ob       1    MUSC   O02LW       1     -1.05    15.999
   14099      ob       1    MUSC   O02LX       1     -1.05    15.999
   14100      ob       1    MUSC   O02LY       1     -1.05    15.999
   14101       K       1    MUSC   K0097       1       1.0    39.098
   14102       K       1    MUSC   K0098       1       1.0    39.098
   14103      ao       1    MUSC   Al0OH       1     1.575    26.982
   14104      ao       1    MUSC   Al0OI       1     1.575    26.982
   14105      ao       1    MUSC   Al0OJ       1     1.575    26.982
   14106      ao       1    MUSC   Al0OK       1     1.575    26.982
   14107      ao       1    MUSC   Al0OL       1     1.575    26.982
   14108      ao       1    MUSC   Al0OM       1     1.575    26.982
   14109      ao       1    MUSC   Al0ON       1     1.575    26.982
   14110      ao       1    MUSC   Al0OO       1     1.575    26.982
   14111      st       1    MUSC   Si0mX       1       2.1    28.086
   14112      st       1    MUSC   Si0mY       1       2.1    28.086
   14113      st       1    MUSC   Si0mZ       1       2.1    28.086
   14114      st       1    MUSC   Si0ma       1       2.1    28.086
   14115      st       1    MUSC   Si0mb       1       2.1    28.086
   14116      st       1    MUSC   Si0mc       1       2.1    28.086
   14117      st       1    MUSC   Si0md       1       2.1    28.086
   14118      st       1    MUSC   Si0me       1       2.1    28.086
   14119      st       1    MUSC   Si0mf       1       2.1    28.086
   14120      st       1    MUSC   Si0mg       1       2.1    28.086
   14121      st       1    MUSC   Si0mh       1       2.1    28.086
   14122      st       1    MUSC   Si0mi       1       2.1    28.086
   14123      st       1    MUSC   Si0mj       1       2.1    28.086
   14124      st       1    MUSC   Si0mk       1       2.1    28.086
   14125      st       1    MUSC   Si0ml       1       2.1    28.086
   14126      st       1    MUSC   Si0mm       1       2.1    28.086
   14127      ob       1    MUSC   O02LZ       1     -1.05    15.999
   14128      ob       1    MUSC   O02La       1     -1.05    15.999
   14129      ob       1    MUSC   O02Lb       1     -1.05    15.999
   14130      ob       1    MUSC   O02Lc       1     -1.05    15.999
   14131      oh       1    MUSC   O02Ld       1     -0.95    15.999
   14132      oh       1    MUSC   O02Le       1     -0.95    15.999
   14133      oh       1    MUSC   O02Lf       1     -0.95    15.999
   14134      oh       1    MUSC   O02Lg       1     -0.95    15.999
   14135      ob       1    MUSC   O02Lh       1     -1.05    15.999
   14136      ob       1    MUSC   O02Li       1     -1.05    15.999
   14137      ob       1    MUSC   O02Lj       1     -1.05    15.999
   14138      ob       1    MUSC   O02Lk       1     -1.05    15.999
   14139      ob       1    MUSC   O02Ll       1     -1.05    15.999
   14140      ob       1    MUSC   O02Lm       1     -1.05    15.999
   14141      ob       1    MUSC   O02Ln       1     -1.05    15.999
   14142      ob       1    MUSC   O02Lo       1     -1.05    15.999
   14143      ob       1    MUSC   O02Lp       1     -1.05    15.999
   14144      ob       1    MUSC   O02Lq       1     -1.05    15.999
   14145      ob       1    MUSC   O02Lr       1     -1.05    15.999
   14146      ob       1    MUSC   O02Ls       1     -1.05    15.999
   14147      ob       1    MUSC   O02Lt       1     -1.05    15.999
   14148      ob       1    MUSC   O02Lu       1     -1.05    15.999
   14149      ob       1    MUSC   O02Lv       1     -1.05    15.999
   14150      ob       1    MUSC   O02Lw       1     -1.05    15.999
   14151      ob       1    MUSC   O02Lx       1     -1.05    15.999
   14152      ob       1    MUSC   O02Ly       1     -1.05    15.999
   14153      ob       1    MUSC   O02Lz       1     -1.05    15.999
   14154      ob       1    MUSC   O02M0       1     -1.05    15.999
   14155      oh       1    MUSC   O02M1       1     -0.95    15.999
   14156      oh       1    MUSC   O02M2       1     -0.95    15.999
   14157      oh       1    MUSC   O02M3       1     -0.95    15.999
   14158      oh       1    MUSC   O02M4       1     -0.95    15.999
   14159      ob       1    MUSC   O02M5       1     -1.05    15.999
   14160      ob       1    MUSC   O02M6       1     -1.05    15.999
   14161      ob       1    MUSC   O02M7       1     -1.05    15.999
   14162      ob       1    MUSC   O02M8       1     -1.05    15.999
   14163      ob       1    MUSC   O02M9       1     -1.05    15.999
   14164      ob       1    MUSC   O02MA       1     -1.05    15.999
   14165      ob       1    MUSC   O02MB       1     -1.05    15.999
   14166      ob       1    MUSC   O02MC       1     -1.05    15.999
   14167      ob       1    MUSC   O02MD       1     -1.05    15.999
   14168      ob       1    MUSC   O02ME       1     -1.05    15.999
   14169      ob       1    MUSC   O02MF       1     -1.05    15.999
   14170      ob       1    MUSC   O02MG       1     -1.05    15.999
   14171      ob       1    MUSC   O02MH       1     -1.05    15.999
   14172      ob       1    MUSC   O02MI       1     -1.05    15.999
   14173      ob       1    MUSC   O02MJ       1     -1.05    15.999
   14174      ob       1    MUSC   O02MK       1     -1.05    15.999
   14175       K       1    MUSC   K0099       1       1.0    39.098
   14176       K       1    MUSC   K009A       1       1.0    39.098
   14177       K       1    MUSC   K009B       1       1.0    39.098
   14178       K       1    MUSC   K009C       1       1.0    39.098
   14179      ao       1    MUSC   Al0OP       1     1.575    26.982
   14180      ao       1    MUSC   Al0OQ       1     1.575    26.982
   14181      ao       1    MUSC   Al0OR       1     1.575    26.982
   14182      ao       1    MUSC   Al0OS       1     1.575    26.982
   14183      ao       1    MUSC   Al0OT       1     1.575    26.982
   14184      ao       1    MUSC   Al0OU       1     1.575    26.982
   14185      ao       1    MUSC   Al0OV       1     1.575    26.982
   14186      ao       1    MUSC   Al0OW       1     1.575    26.982
   14187      st       1    MUSC   Si0mn       1       2.1    28.086
   14188      st       1    MUSC   Si0mo       1       2.1    28.086
   14189      st       1    MUSC   Si0mp       1       2.1    28.086
   14190      st       1    MUSC   Si0mq       1       2.1    28.086
   14191      st       1    MUSC   Si0mr       1       2.1    28.086
   14192      st       1    MUSC   Si0ms       1       2.1    28.086
   14193      st       1    MUSC   Si0mt       1       2.1    28.086
   14194      st       1    MUSC   Si0mu       1       2.1    28.086
   14195      st       1    MUSC   Si0mv       1       2.1    28.086
   14196      st       1    MUSC   Si0mw       1       2.1    28.086
   14197      st       1    MUSC   Si0mx       1       2.1    28.086
   14198      st       1    MUSC   Si0my       1       2.1    28.086
   14199      st       1    MUSC   Si0mz       1       2.1    28.086
   14200      st       1    MUSC   Si0n0       1       2.1    28.086
   14201      st       1    MUSC   Si0n1       1       2.1    28.086
   14202      st       1    MUSC   Si0n2       1       2.1    28.086
   14203      ob       1    MUSC   O02ML       1     -1.05    15.999
   14204      ob       1    MUSC   O02MM       1     -1.05    15.999
   14205      ob       1    MUSC   O02MN       1     -1.05    15.999
   14206      ob       1    MUSC   O02MO       1     -1.05    15.999
   14207      oh       1    MUSC   O02MP       1     -0.95    15.999
   14208      oh       1    MUSC   O02MQ       1     -0.95    15.999
   14209      oh       1    MUSC   O02MR       1     -0.95    15.999
   14210      oh       1    MUSC   O02MS       1     -0.95    15.999
   14211      ob       1    MUSC   O02MT       1     -1.05    15.999
   14212      ob       1    MUSC   O02MU       1     -1.05    15.999
   14213      ob       1    MUSC   O02MV       1     -1.05    15.999
   14214      ob       1    MUSC   O02MW       1     -1.05    15.999
   14215      ob       1    MUSC   O02MX       1     -1.05    15.999
   14216      ob       1    MUSC   O02MY       1     -1.05    15.999
   14217      ob       1    MUSC   O02MZ       1     -1.05    15.999
   14218      ob       1    MUSC   O02Ma       1     -1.05    15.999
   14219      ob       1    MUSC   O02Mb       1     -1.05    15.999
   14220      ob       1    MUSC   O02Mc       1     -1.05    15.999
   14221      ob       1    MUSC   O02Md       1     -1.05    15.999
   14222      ob       1    MUSC   O02Me       1     -1.05    15.999
   14223      ob       1    MUSC   O02Mf       1     -1.05    15.999
   14224      ob       1    MUSC   O02Mg       1     -1.05    15.999
   14225      ob       1    MUSC   O02Mh       1     -1.05    15.999
   14226      ob       1    MUSC   O02Mi       1     -1.05    15.999
   14227      ob       1    MUSC   O02Mj       1     -1.05    15.999
   14228      ob       1    MUSC   O02Mk       1     -1.05    15.999
   14229      ob       1    MUSC   O02Ml       1     -1.05    15.999
   14230      ob       1    MUSC   O02Mm       1     -1.05    15.999
   14231      oh       1    MUSC   O02Mn       1     -0.95    15.999
   14232      oh       1    MUSC   O02Mo       1     -0.95    15.999
   14233      oh       1    MUSC   O02Mp       1     -0.95    15.999
   14234      oh       1    MUSC   O02Mq       1     -0.95    15.999
   14235      ob       1    MUSC   O02Mr       1     -1.05    15.999
   14236      ob       1    MUSC   O02Ms       1     -1.05    15.999
   14237      ob       1    MUSC   O02Mt       1     -1.05    15.999
   14238      ob       1    MUSC   O02Mu       1     -1.05    15.999
   14239      ob       1    MUSC   O02Mv       1     -1.05    15.999
   14240      ob       1    MUSC   O02Mw       1     -1.05    15.999
   14241      ob       1    MUSC   O02Mx       1     -1.05    15.999
   14242      ob       1    MUSC   O02My       1     -1.05    15.999
   14243      ob       1    MUSC   O02Mz       1     -1.05    15.999
   14244      ob       1    MUSC   O02N0       1     -1.05    15.999
   14245      ob       1    MUSC   O02N1       1     -1.05    15.999
   14246      ob       1    MUSC   O02N2       1     -1.05    15.999
   14247      ob       1    MUSC   O02N3       1     -1.05    15.999
   14248      ob       1    MUSC   O02N4       1     -1.05    15.999
   14249      ob       1    MUSC   O02N5       1     -1.05    15.999
   14250      ob       1    MUSC   O02N6       1     -1.05    15.999
   14251       K       1    MUSC   K009D       1       1.0    39.098
   14252       K       1    MUSC   K009E       1       1.0    39.098
   14253      ao       1    MUSC   Al0OX       1     1.575    26.982
   14254      ao       1    MUSC   Al0OY       1     1.575    26.982
   14255      ao       1    MUSC   Al0OZ       1     1.575    26.982
   14256      ao       1    MUSC   Al0Oa       1     1.575    26.982
   14257      ao       1    MUSC   Al0Ob       1     1.575    26.982
   14258      ao       1    MUSC   Al0Oc       1     1.575    26.982
   14259      ao       1    MUSC   Al0Od       1     1.575    26.982
   14260      ao       1    MUSC   Al0Oe       1     1.575    26.982
   14261      st       1    MUSC   Si0n3       1       2.1    28.086
   14262      st       1    MUSC   Si0n4       1       2.1    28.086
   14263      st       1    MUSC   Si0n5       1       2.1    28.086
   14264      st       1    MUSC   Si0n6       1       2.1    28.086
   14265      st       1    MUSC   Si0n7       1       2.1    28.086
   14266      st       1    MUSC   Si0n8       1       2.1    28.086
   14267      st       1    MUSC   Si0n9       1       2.1    28.086
   14268      st       1    MUSC   Si0nA       1       2.1    28.086
   14269      st       1    MUSC   Si0nB       1       2.1    28.086
   14270      st       1    MUSC   Si0nC       1       2.1    28.086
   14271      st       1    MUSC   Si0nD       1       2.1    28.086
   14272      st       1    MUSC   Si0nE       1       2.1    28.086
   14273      st       1    MUSC   Si0nF       1       2.1    28.086
   14274      st       1    MUSC   Si0nG       1       2.1    28.086
   14275      st       1    MUSC   Si0nH       1       2.1    28.086
   14276      st       1    MUSC   Si0nI       1       2.1    28.086
   14277      ob       1    MUSC   O02N7       1     -1.05    15.999
   14278      ob       1    MUSC   O02N8       1     -1.05    15.999
   14279      ob       1    MUSC   O02N9       1     -1.05    15.999
   14280      ob       1    MUSC   O02NA       1     -1.05    15.999
   14281      oh       1    MUSC   O02NB       1     -0.95    15.999
   14282      oh       1    MUSC   O02NC       1     -0.95    15.999
   14283      oh       1    MUSC   O02ND       1     -0.95    15.999
   14284      oh       1    MUSC   O02NE       1     -0.95    15.999
   14285      ob       1    MUSC   O02NF       1     -1.05    15.999
   14286      ob       1    MUSC   O02NG       1     -1.05    15.999
   14287      ob       1    MUSC   O02NH       1     -1.05    15.999
   14288      ob       1    MUSC   O02NI       1     -1.05    15.999
   14289      ob       1    MUSC   O02NJ       1     -1.05    15.999
   14290      ob       1    MUSC   O02NK       1     -1.05    15.999
   14291      ob       1    MUSC   O02NL       1     -1.05    15.999
   14292      ob       1    MUSC   O02NM       1     -1.05    15.999
   14293      ob       1    MUSC   O02NN       1     -1.05    15.999
   14294      ob       1    MUSC   O02NO       1     -1.05    15.999
   14295      ob       1    MUSC   O02NP       1     -1.05    15.999
   14296      ob       1    MUSC   O02NQ       1     -1.05    15.999
   14297      ob       1    MUSC   O02NR       1     -1.05    15.999
   14298      ob       1    MUSC   O02NS       1     -1.05    15.999
   14299      ob       1    MUSC   O02NT       1     -1.05    15.999
   14300      ob       1    MUSC   O02NU       1     -1.05    15.999
   14301      ob       1    MUSC   O02NV       1     -1.05    15.999
   14302      ob       1    MUSC   O02NW       1     -1.05    15.999
   14303      ob       1    MUSC   O02NX       1     -1.05    15.999
   14304      ob       1    MUSC   O02NY       1     -1.05    15.999
   14305      oh       1    MUSC   O02NZ       1     -0.95    15.999
   14306      oh       1    MUSC   O02Na       1     -0.95    15.999
   14307      oh       1    MUSC   O02Nb       1     -0.95    15.999
   14308      oh       1    MUSC   O02Nc       1     -0.95    15.999
   14309      ob       1    MUSC   O02Nd       1     -1.05    15.999
   14310      ob       1    MUSC   O02Ne       1     -1.05    15.999
   14311      ob       1    MUSC   O02Nf       1     -1.05    15.999
   14312      ob       1    MUSC   O02Ng       1     -1.05    15.999
   14313      ob       1    MUSC   O02Nh       1     -1.05    15.999
   14314      ob       1    MUSC   O02Ni       1     -1.05    15.999
   14315      ob       1    MUSC   O02Nj       1     -1.05    15.999
   14316      ob       1    MUSC   O02Nk       1     -1.05    15.999
   14317      ob       1    MUSC   O02Nl       1     -1.05    15.999
   14318      ob       1    MUSC   O02Nm       1     -1.05    15.999
   14319      ob       1    MUSC   O02Nn       1     -1.05    15.999
   14320      ob       1    MUSC   O02No       1     -1.05    15.999
   14321      ob       1    MUSC   O02Np       1     -1.05    15.999
   14322      ob       1    MUSC   O02Nq       1     -1.05    15.999
   14323      ob       1    MUSC   O02Nr       1     -1.05    15.999
   14324      ob       1    MUSC   O02Ns       1     -1.05    15.999
   14325       K       1    MUSC   K009F       1       1.0    39.098
   14326       K       1    MUSC   K009G       1       1.0    39.098
   14327       K       1    MUSC   K009H       1       1.0    39.098
   14328       K       1    MUSC   K009I       1       1.0    39.098
   14329      ao       1    MUSC   Al0Of       1     1.575    26.982
   14330      ao       1    MUSC   Al0Og       1     1.575    26.982
   14331      ao       1    MUSC   Al0Oh       1     1.575    26.982
   14332      ao       1    MUSC   Al0Oi       1     1.575    26.982
   14333      ao       1    MUSC   Al0Oj       1     1.575    26.982
   14334      ao       1    MUSC   Al0Ok       1     1.575    26.982
   14335      ao       1    MUSC   Al0Ol       1     1.575    26.982
   14336      ao       1    MUSC   Al0Om       1     1.575    26.982
   14337      st       1    MUSC   Si0nJ       1       2.1    28.086
   14338      st       1    MUSC   Si0nK       1       2.1    28.086
   14339      st       1    MUSC   Si0nL       1       2.1    28.086
   14340      st       1    MUSC   Si0nM       1       2.1    28.086
   14341      st       1    MUSC   Si0nN       1       2.1    28.086
   14342      st       1    MUSC   Si0nO       1       2.1    28.086
   14343      st       1    MUSC   Si0nP       1       2.1    28.086
   14344      st       1    MUSC   Si0nQ       1       2.1    28.086
   14345      st       1    MUSC   Si0nR       1       2.1    28.086
   14346      st       1    MUSC   Si0nS       1       2.1    28.086
   14347      st       1    MUSC   Si0nT       1       2.1    28.086
   14348      st       1    MUSC   Si0nU       1       2.1    28.086
   14349      st       1    MUSC   Si0nV       1       2.1    28.086
   14350      st       1    MUSC   Si0nW       1       2.1    28.086
   14351      st       1    MUSC   Si0nX       1       2.1    28.086
   14352      st       1    MUSC   Si0nY       1       2.1    28.086
   14353      ob       1    MUSC   O02Nt       1     -1.05    15.999
   14354      ob       1    MUSC   O02Nu       1     -1.05    15.999
   14355      ob       1    MUSC   O02Nv       1     -1.05    15.999
   14356      ob       1    MUSC   O02Nw       1     -1.05    15.999
   14357      oh       1    MUSC   O02Nx       1     -0.95    15.999
   14358      oh       1    MUSC   O02Ny       1     -0.95    15.999
   14359      oh       1    MUSC   O02Nz       1     -0.95    15.999
   14360      oh       1    MUSC   O02O0       1     -0.95    15.999
   14361      ob       1    MUSC   O02O1       1     -1.05    15.999
   14362      ob       1    MUSC   O02O2       1     -1.05    15.999
   14363      ob       1    MUSC   O02O3       1     -1.05    15.999
   14364      ob       1    MUSC   O02O4       1     -1.05    15.999
   14365      ob       1    MUSC   O02O5       1     -1.05    15.999
   14366      ob       1    MUSC   O02O6       1     -1.05    15.999
   14367      ob       1    MUSC   O02O7       1     -1.05    15.999
   14368      ob       1    MUSC   O02O8       1     -1.05    15.999
   14369      ob       1    MUSC   O02O9       1     -1.05    15.999
   14370      ob       1    MUSC   O02OA       1     -1.05    15.999
   14371      ob       1    MUSC   O02OB       1     -1.05    15.999
   14372      ob       1    MUSC   O02OC       1     -1.05    15.999
   14373      ob       1    MUSC   O02OD       1     -1.05    15.999
   14374      ob       1    MUSC   O02OE       1     -1.05    15.999
   14375      ob       1    MUSC   O02OF       1     -1.05    15.999
   14376      ob       1    MUSC   O02OG       1     -1.05    15.999
   14377      ob       1    MUSC   O02OH       1     -1.05    15.999
   14378      ob       1    MUSC   O02OI       1     -1.05    15.999
   14379      ob       1    MUSC   O02OJ       1     -1.05    15.999
   14380      ob       1    MUSC   O02OK       1     -1.05    15.999
   14381      oh       1    MUSC   O02OL       1     -0.95    15.999
   14382      oh       1    MUSC   O02OM       1     -0.95    15.999
   14383      oh       1    MUSC   O02ON       1     -0.95    15.999
   14384      oh       1    MUSC   O02OO       1     -0.95    15.999
   14385      ob       1    MUSC   O02OP       1     -1.05    15.999
   14386      ob       1    MUSC   O02OQ       1     -1.05    15.999
   14387      ob       1    MUSC   O02OR       1     -1.05    15.999
   14388      ob       1    MUSC   O02OS       1     -1.05    15.999
   14389      ob       1    MUSC   O02OT       1     -1.05    15.999
   14390      ob       1    MUSC   O02OU       1     -1.05    15.999
   14391      ob       1    MUSC   O02OV       1     -1.05    15.999
   14392      ob       1    MUSC   O02OW       1     -1.05    15.999
   14393      ob       1    MUSC   O02OX       1     -1.05    15.999
   14394      ob       1    MUSC   O02OY       1     -1.05    15.999
   14395      ob       1    MUSC   O02OZ       1     -1.05    15.999
   14396      ob       1    MUSC   O02Oa       1     -1.05    15.999
   14397      ob       1    MUSC   O02Ob       1     -1.05    15.999
   14398      ob       1    MUSC   O02Oc       1     -1.05    15.999
   14399      ob       1    MUSC   O02Od       1     -1.05    15.999
   14400      ob       1    MUSC   O02Oe       1     -1.05    15.999
   14401       K       1    MUSC   K009J       1       1.0    39.098
   14402       K       1    MUSC   K009K       1       1.0    39.098
   14403      ao       1    MUSC   Al0On       1     1.575    26.982
   14404      ao       1    MUSC   Al0Oo       1     1.575    26.982
   14405      ao       1    MUSC   Al0Op       1     1.575    26.982
   14406      ao       1    MUSC   Al0Oq       1     1.575    26.982
   14407      ao       1    MUSC   Al0Or       1     1.575    26.982
   14408      ao       1    MUSC   Al0Os       1     1.575    26.982
   14409      ao       1    MUSC   Al0Ot       1     1.575    26.982
   14410      ao       1    MUSC   Al0Ou       1     1.575    26.982
   14411      st       1    MUSC   Si0nZ       1       2.1    28.086
   14412      st       1    MUSC   Si0na       1       2.1    28.086
   14413      st       1    MUSC   Si0nb       1       2.1    28.086
   14414      st       1    MUSC   Si0nc       1       2.1    28.086
   14415      st       1    MUSC   Si0nd       1       2.1    28.086
   14416      st       1    MUSC   Si0ne       1       2.1    28.086
   14417      st       1    MUSC   Si0nf       1       2.1    28.086
   14418      st       1    MUSC   Si0ng       1       2.1    28.086
   14419      st       1    MUSC   Si0nh       1       2.1    28.086
   14420      st       1    MUSC   Si0ni       1       2.1    28.086
   14421      st       1    MUSC   Si0nj       1       2.1    28.086
   14422      st       1    MUSC   Si0nk       1       2.1    28.086
   14423      st       1    MUSC   Si0nl       1       2.1    28.086
   14424      st       1    MUSC   Si0nm       1       2.1    28.086
   14425      st       1    MUSC   Si0nn       1       2.1    28.086
   14426      st       1    MUSC   Si0no       1       2.1    28.086
   14427      ob       1    MUSC   O02Of       1     -1.05    15.999
   14428      ob       1    MUSC   O02Og       1     -1.05    15.999
   14429      ob       1    MUSC   O02Oh       1     -1.05    15.999
   14430      ob       1    MUSC   O02Oi       1     -1.05    15.999
   14431      oh       1    MUSC   O02Oj       1     -0.95    15.999
   14432      oh       1    MUSC   O02Ok       1     -0.95    15.999
   14433      oh       1    MUSC   O02Ol       1     -0.95    15.999
   14434      oh       1    MUSC   O02Om       1     -0.95    15.999
   14435      ob       1    MUSC   O02On       1     -1.05    15.999
   14436      ob       1    MUSC   O02Oo       1     -1.05    15.999
   14437      ob       1    MUSC   O02Op       1     -1.05    15.999
   14438      ob       1    MUSC   O02Oq       1     -1.05    15.999
   14439      ob       1    MUSC   O02Or       1     -1.05    15.999
   14440      ob       1    MUSC   O02Os       1     -1.05    15.999
   14441      ob       1    MUSC   O02Ot       1     -1.05    15.999
   14442      ob       1    MUSC   O02Ou       1     -1.05    15.999
   14443      ob       1    MUSC   O02Ov       1     -1.05    15.999
   14444      ob       1    MUSC   O02Ow       1     -1.05    15.999
   14445      ob       1    MUSC   O02Ox       1     -1.05    15.999
   14446      ob       1    MUSC   O02Oy       1     -1.05    15.999
   14447      ob       1    MUSC   O02Oz       1     -1.05    15.999
   14448      ob       1    MUSC   O02P0       1     -1.05    15.999
   14449      ob       1    MUSC   O02P1       1     -1.05    15.999
   14450      ob       1    MUSC   O02P2       1     -1.05    15.999
   14451      ob       1    MUSC   O02P3       1     -1.05    15.999
   14452      ob       1    MUSC   O02P4       1     -1.05    15.999
   14453      ob       1    MUSC   O02P5       1     -1.05    15.999
   14454      ob       1    MUSC   O02P6       1     -1.05    15.999
   14455      oh       1    MUSC   O02P7       1     -0.95    15.999
   14456      oh       1    MUSC   O02P8       1     -0.95    15.999
   14457      oh       1    MUSC   O02P9       1     -0.95    15.999
   14458      oh       1    MUSC   O02PA       1     -0.95    15.999
   14459      ob       1    MUSC   O02PB       1     -1.05    15.999
   14460      ob       1    MUSC   O02PC       1     -1.05    15.999
   14461      ob       1    MUSC   O02PD       1     -1.05    15.999
   14462      ob       1    MUSC   O02PE       1     -1.05    15.999
   14463      ob       1    MUSC   O02PF       1     -1.05    15.999
   14464      ob       1    MUSC   O02PG       1     -1.05    15.999
   14465      ob       1    MUSC   O02PH       1     -1.05    15.999
   14466      ob       1    MUSC   O02PI       1     -1.05    15.999
   14467      ob       1    MUSC   O02PJ       1     -1.05    15.999
   14468      ob       1    MUSC   O02PK       1     -1.05    15.999
   14469      ob       1    MUSC   O02PL       1     -1.05    15.999
   14470      ob       1    MUSC   O02PM       1     -1.05    15.999
   14471      ob       1    MUSC   O02PN       1     -1.05    15.999
   14472      ob       1    MUSC   O02PO       1     -1.05    15.999
   14473      ob       1    MUSC   O02PP       1     -1.05    15.999
   14474      ob       1    MUSC   O02PQ       1     -1.05    15.999
   14475       K       1    MUSC   K009L       1       1.0    39.098
   14476       K       1    MUSC   K009M       1       1.0    39.098
   14477       K       1    MUSC   K009N       1       1.0    39.098
   14478       K       1    MUSC   K009O       1       1.0    39.098
   14479      ao       1    MUSC   Al0Ov       1     1.575    26.982
   14480      ao       1    MUSC   Al0Ow       1     1.575    26.982
   14481      ao       1    MUSC   Al0Ox       1     1.575    26.982
   14482      ao       1    MUSC   Al0Oy       1     1.575    26.982
   14483      ao       1    MUSC   Al0Oz       1     1.575    26.982
   14484      ao       1    MUSC   Al0P0       1     1.575    26.982
   14485      ao       1    MUSC   Al0P1       1     1.575    26.982
   14486      ao       1    MUSC   Al0P2       1     1.575    26.982
   14487      st       1    MUSC   Si0np       1       2.1    28.086
   14488      st       1    MUSC   Si0nq       1       2.1    28.086
   14489      st       1    MUSC   Si0nr       1       2.1    28.086
   14490      st       1    MUSC   Si0ns       1       2.1    28.086
   14491      st       1    MUSC   Si0nt       1       2.1    28.086
   14492      st       1    MUSC   Si0nu       1       2.1    28.086
   14493      st       1    MUSC   Si0nv       1       2.1    28.086
   14494      st       1    MUSC   Si0nw       1       2.1    28.086
   14495      st       1    MUSC   Si0nx       1       2.1    28.086
   14496      st       1    MUSC   Si0ny       1       2.1    28.086
   14497      st       1    MUSC   Si0nz       1       2.1    28.086
   14498      st       1    MUSC   Si0o0       1       2.1    28.086
   14499      st       1    MUSC   Si0o1       1       2.1    28.086
   14500      st       1    MUSC   Si0o2       1       2.1    28.086
   14501      st       1    MUSC   Si0o3       1       2.1    28.086
   14502      st       1    MUSC   Si0o4       1       2.1    28.086
   14503      ob       1    MUSC   O02PR       1     -1.05    15.999
   14504      ob       1    MUSC   O02PS       1     -1.05    15.999
   14505      ob       1    MUSC   O02PT       1     -1.05    15.999
   14506      ob       1    MUSC   O02PU       1     -1.05    15.999
   14507      oh       1    MUSC   O02PV       1     -0.95    15.999
   14508      oh       1    MUSC   O02PW       1     -0.95    15.999
   14509      oh       1    MUSC   O02PX       1     -0.95    15.999
   14510      oh       1    MUSC   O02PY       1     -0.95    15.999
   14511      ob       1    MUSC   O02PZ       1     -1.05    15.999
   14512      ob       1    MUSC   O02Pa       1     -1.05    15.999
   14513      ob       1    MUSC   O02Pb       1     -1.05    15.999
   14514      ob       1    MUSC   O02Pc       1     -1.05    15.999
   14515      ob       1    MUSC   O02Pd       1     -1.05    15.999
   14516      ob       1    MUSC   O02Pe       1     -1.05    15.999
   14517      ob       1    MUSC   O02Pf       1     -1.05    15.999
   14518      ob       1    MUSC   O02Pg       1     -1.05    15.999
   14519      ob       1    MUSC   O02Ph       1     -1.05    15.999
   14520      ob       1    MUSC   O02Pi       1     -1.05    15.999
   14521      ob       1    MUSC   O02Pj       1     -1.05    15.999
   14522      ob       1    MUSC   O02Pk       1     -1.05    15.999
   14523      ob       1    MUSC   O02Pl       1     -1.05    15.999
   14524      ob       1    MUSC   O02Pm       1     -1.05    15.999
   14525      ob       1    MUSC   O02Pn       1     -1.05    15.999
   14526      ob       1    MUSC   O02Po       1     -1.05    15.999
   14527      ob       1    MUSC   O02Pp       1     -1.05    15.999
   14528      ob       1    MUSC   O02Pq       1     -1.05    15.999
   14529      ob       1    MUSC   O02Pr       1     -1.05    15.999
   14530      ob       1    MUSC   O02Ps       1     -1.05    15.999
   14531      oh       1    MUSC   O02Pt       1     -0.95    15.999
   14532      oh       1    MUSC   O02Pu       1     -0.95    15.999
   14533      oh       1    MUSC   O02Pv       1     -0.95    15.999
   14534      oh       1    MUSC   O02Pw       1     -0.95    15.999
   14535      ob       1    MUSC   O02Px       1     -1.05    15.999
   14536      ob       1    MUSC   O02Py       1     -1.05    15.999
   14537      ob       1    MUSC   O02Pz       1     -1.05    15.999
   14538      ob       1    MUSC   O02Q0       1     -1.05    15.999
   14539      ob       1    MUSC   O02Q1       1     -1.05    15.999
   14540      ob       1    MUSC   O02Q2       1     -1.05    15.999
   14541      ob       1    MUSC   O02Q3       1     -1.05    15.999
   14542      ob       1    MUSC   O02Q4       1     -1.05    15.999
   14543      ob       1    MUSC   O02Q5       1     -1.05    15.999
   14544      ob       1    MUSC   O02Q6       1     -1.05    15.999
   14545      ob       1    MUSC   O02Q7       1     -1.05    15.999
   14546      ob       1    MUSC   O02Q8       1     -1.05    15.999
   14547      ob       1    MUSC   O02Q9       1     -1.05    15.999
   14548      ob       1    MUSC   O02QA       1     -1.05    15.999
   14549      ob       1    MUSC   O02QB       1     -1.05    15.999
   14550      ob       1    MUSC   O02QC       1     -1.05    15.999
   14551       K       1    MUSC   K009P       1       1.0    39.098
   14552       K       1    MUSC   K009Q       1       1.0    39.098
   14553      ao       1    MUSC   Al0P3       1     1.575    26.982
   14554      ao       1    MUSC   Al0P4       1     1.575    26.982
   14555      ao       1    MUSC   Al0P5       1     1.575    26.982
   14556      ao       1    MUSC   Al0P6       1     1.575    26.982
   14557      ao       1    MUSC   Al0P7       1     1.575    26.982
   14558      ao       1    MUSC   Al0P8       1     1.575    26.982
   14559      ao       1    MUSC   Al0P9       1     1.575    26.982
   14560      ao       1    MUSC   Al0PA       1     1.575    26.982
   14561      st       1    MUSC   Si0o5       1       2.1    28.086
   14562      st       1    MUSC   Si0o6       1       2.1    28.086
   14563      st       1    MUSC   Si0o7       1       2.1    28.086
   14564      st       1    MUSC   Si0o8       1       2.1    28.086
   14565      st       1    MUSC   Si0o9       1       2.1    28.086
   14566      st       1    MUSC   Si0oA       1       2.1    28.086
   14567      st       1    MUSC   Si0oB       1       2.1    28.086
   14568      st       1    MUSC   Si0oC       1       2.1    28.086
   14569      st       1    MUSC   Si0oD       1       2.1    28.086
   14570      st       1    MUSC   Si0oE       1       2.1    28.086
   14571      st       1    MUSC   Si0oF       1       2.1    28.086
   14572      st       1    MUSC   Si0oG       1       2.1    28.086
   14573      st       1    MUSC   Si0oH       1       2.1    28.086
   14574      st       1    MUSC   Si0oI       1       2.1    28.086
   14575      st       1    MUSC   Si0oJ       1       2.1    28.086
   14576      st       1    MUSC   Si0oK       1       2.1    28.086
   14577      ob       1    MUSC   O02QD       1     -1.05    15.999
   14578      ob       1    MUSC   O02QE       1     -1.05    15.999
   14579      ob       1    MUSC   O02QF       1     -1.05    15.999
   14580      ob       1    MUSC   O02QG       1     -1.05    15.999
   14581      oh       1    MUSC   O02QH       1     -0.95    15.999
   14582      oh       1    MUSC   O02QI       1     -0.95    15.999
   14583      oh       1    MUSC   O02QJ       1     -0.95    15.999
   14584      oh       1    MUSC   O02QK       1     -0.95    15.999
   14585      ob       1    MUSC   O02QL       1     -1.05    15.999
   14586      ob       1    MUSC   O02QM       1     -1.05    15.999
   14587      ob       1    MUSC   O02QN       1     -1.05    15.999
   14588      ob       1    MUSC   O02QO       1     -1.05    15.999
   14589      ob       1    MUSC   O02QP       1     -1.05    15.999
   14590      ob       1    MUSC   O02QQ       1     -1.05    15.999
   14591      ob       1    MUSC   O02QR       1     -1.05    15.999
   14592      ob       1    MUSC   O02QS       1     -1.05    15.999
   14593      ob       1    MUSC   O02QT       1     -1.05    15.999
   14594      ob       1    MUSC   O02QU       1     -1.05    15.999
   14595      ob       1    MUSC   O02QV       1     -1.05    15.999
   14596      ob       1    MUSC   O02QW       1     -1.05    15.999
   14597      ob       1    MUSC   O02QX       1     -1.05    15.999
   14598      ob       1    MUSC   O02QY       1     -1.05    15.999
   14599      ob       1    MUSC   O02QZ       1     -1.05    15.999
   14600      ob       1    MUSC   O02Qa       1     -1.05    15.999
   14601      ob       1    MUSC   O02Qb       1     -1.05    15.999
   14602      ob       1    MUSC   O02Qc       1     -1.05    15.999
   14603      ob       1    MUSC   O02Qd       1     -1.05    15.999
   14604      ob       1    MUSC   O02Qe       1     -1.05    15.999
   14605      oh       1    MUSC   O02Qf       1     -0.95    15.999
   14606      oh       1    MUSC   O02Qg       1     -0.95    15.999
   14607      oh       1    MUSC   O02Qh       1     -0.95    15.999
   14608      oh       1    MUSC   O02Qi       1     -0.95    15.999
   14609      ob       1    MUSC   O02Qj       1     -1.05    15.999
   14610      ob       1    MUSC   O02Qk       1     -1.05    15.999
   14611      ob       1    MUSC   O02Ql       1     -1.05    15.999
   14612      ob       1    MUSC   O02Qm       1     -1.05    15.999
   14613      ob       1    MUSC   O02Qn       1     -1.05    15.999
   14614      ob       1    MUSC   O02Qo       1     -1.05    15.999
   14615      ob       1    MUSC   O02Qp       1     -1.05    15.999
   14616      ob       1    MUSC   O02Qq       1     -1.05    15.999
   14617      ob       1    MUSC   O02Qr       1     -1.05    15.999
   14618      ob       1    MUSC   O02Qs       1     -1.05    15.999
   14619      ob       1    MUSC   O02Qt       1     -1.05    15.999
   14620      ob       1    MUSC   O02Qu       1     -1.05    15.999
   14621      ob       1    MUSC   O02Qv       1     -1.05    15.999
   14622      ob       1    MUSC   O02Qw       1     -1.05    15.999
   14623      ob       1    MUSC   O02Qx       1     -1.05    15.999
   14624      ob       1    MUSC   O02Qy       1     -1.05    15.999
   14625       K       1    MUSC   K009R       1       1.0    39.098
   14626       K       1    MUSC   K009S       1       1.0    39.098
   14627       K       1    MUSC   K009T       1       1.0    39.098
   14628       K       1    MUSC   K009U       1       1.0    39.098
   14629      ao       1    MUSC   Al0PB       1     1.575    26.982
   14630      ao       1    MUSC   Al0PC       1     1.575    26.982
   14631      ao       1    MUSC   Al0PD       1     1.575    26.982
   14632      ao       1    MUSC   Al0PE       1     1.575    26.982
   14633      ao       1    MUSC   Al0PF       1     1.575    26.982
   14634      ao       1    MUSC   Al0PG       1     1.575    26.982
   14635      ao       1    MUSC   Al0PH       1     1.575    26.982
   14636      ao       1    MUSC   Al0PI       1     1.575    26.982
   14637      st       1    MUSC   Si0oL       1       2.1    28.086
   14638      st       1    MUSC   Si0oM       1       2.1    28.086
   14639      st       1    MUSC   Si0oN       1       2.1    28.086
   14640      st       1    MUSC   Si0oO       1       2.1    28.086
   14641      st       1    MUSC   Si0oP       1       2.1    28.086
   14642      st       1    MUSC   Si0oQ       1       2.1    28.086
   14643      st       1    MUSC   Si0oR       1       2.1    28.086
   14644      st       1    MUSC   Si0oS       1       2.1    28.086
   14645      st       1    MUSC   Si0oT       1       2.1    28.086
   14646      st       1    MUSC   Si0oU       1       2.1    28.086
   14647      st       1    MUSC   Si0oV       1       2.1    28.086
   14648      st       1    MUSC   Si0oW       1       2.1    28.086
   14649      st       1    MUSC   Si0oX       1       2.1    28.086
   14650      st       1    MUSC   Si0oY       1       2.1    28.086
   14651      st       1    MUSC   Si0oZ       1       2.1    28.086
   14652      st       1    MUSC   Si0oa       1       2.1    28.086
   14653      ob       1    MUSC   O02Qz       1     -1.05    15.999
   14654      ob       1    MUSC   O02R0       1     -1.05    15.999
   14655      ob       1    MUSC   O02R1       1     -1.05    15.999
   14656      ob       1    MUSC   O02R2       1     -1.05    15.999
   14657      oh       1    MUSC   O02R3       1     -0.95    15.999
   14658      oh       1    MUSC   O02R4       1     -0.95    15.999
   14659      oh       1    MUSC   O02R5       1     -0.95    15.999
   14660      oh       1    MUSC   O02R6       1     -0.95    15.999
   14661      ob       1    MUSC   O02R7       1     -1.05    15.999
   14662      ob       1    MUSC   O02R8       1     -1.05    15.999
   14663      ob       1    MUSC   O02R9       1     -1.05    15.999
   14664      ob       1    MUSC   O02RA       1     -1.05    15.999
   14665      ob       1    MUSC   O02RB       1     -1.05    15.999
   14666      ob       1    MUSC   O02RC       1     -1.05    15.999
   14667      ob       1    MUSC   O02RD       1     -1.05    15.999
   14668      ob       1    MUSC   O02RE       1     -1.05    15.999
   14669      ob       1    MUSC   O02RF       1     -1.05    15.999
   14670      ob       1    MUSC   O02RG       1     -1.05    15.999
   14671      ob       1    MUSC   O02RH       1     -1.05    15.999
   14672      ob       1    MUSC   O02RI       1     -1.05    15.999
   14673      ob       1    MUSC   O02RJ       1     -1.05    15.999
   14674      ob       1    MUSC   O02RK       1     -1.05    15.999
   14675      ob       1    MUSC   O02RL       1     -1.05    15.999
   14676      ob       1    MUSC   O02RM       1     -1.05    15.999
   14677      ob       1    MUSC   O02RN       1     -1.05    15.999
   14678      ob       1    MUSC   O02RO       1     -1.05    15.999
   14679      ob       1    MUSC   O02RP       1     -1.05    15.999
   14680      ob       1    MUSC   O02RQ       1     -1.05    15.999
   14681      oh       1    MUSC   O02RR       1     -0.95    15.999
   14682      oh       1    MUSC   O02RS       1     -0.95    15.999
   14683      oh       1    MUSC   O02RT       1     -0.95    15.999
   14684      oh       1    MUSC   O02RU       1     -0.95    15.999
   14685      ob       1    MUSC   O02RV       1     -1.05    15.999
   14686      ob       1    MUSC   O02RW       1     -1.05    15.999
   14687      ob       1    MUSC   O02RX       1     -1.05    15.999
   14688      ob       1    MUSC   O02RY       1     -1.05    15.999
   14689      ob       1    MUSC   O02RZ       1     -1.05    15.999
   14690      ob       1    MUSC   O02Ra       1     -1.05    15.999
   14691      ob       1    MUSC   O02Rb       1     -1.05    15.999
   14692      ob       1    MUSC   O02Rc       1     -1.05    15.999
   14693      ob       1    MUSC   O02Rd       1     -1.05    15.999
   14694      ob       1    MUSC   O02Re       1     -1.05    15.999
   14695      ob       1    MUSC   O02Rf       1     -1.05    15.999
   14696      ob       1    MUSC   O02Rg       1     -1.05    15.999
   14697      ob       1    MUSC   O02Rh       1     -1.05    15.999
   14698      ob       1    MUSC   O02Ri       1     -1.05    15.999
   14699      ob       1    MUSC   O02Rj       1     -1.05    15.999
   14700      ob       1    MUSC   O02Rk       1     -1.05    15.999
   14701       K       1    MUSC   K009V       1       1.0    39.098
   14702       K       1    MUSC   K009W       1       1.0    39.098
   14703      ao       1    MUSC   Al0PJ       1     1.575    26.982
   14704      ao       1    MUSC   Al0PK       1     1.575    26.982
   14705      ao       1    MUSC   Al0PL       1     1.575    26.982
   14706      ao       1    MUSC   Al0PM       1     1.575    26.982
   14707      ao       1    MUSC   Al0PN       1     1.575    26.982
   14708      ao       1    MUSC   Al0PO       1     1.575    26.982
   14709      ao       1    MUSC   Al0PP       1     1.575    26.982
   14710      ao       1    MUSC   Al0PQ       1     1.575    26.982
   14711      st       1    MUSC   Si0ob       1       2.1    28.086
   14712      st       1    MUSC   Si0oc       1       2.1    28.086
   14713      st       1    MUSC   Si0od       1       2.1    28.086
   14714      st       1    MUSC   Si0oe       1       2.1    28.086
   14715      st       1    MUSC   Si0of       1       2.1    28.086
   14716      st       1    MUSC   Si0og       1       2.1    28.086
   14717      st       1    MUSC   Si0oh       1       2.1    28.086
   14718      st       1    MUSC   Si0oi       1       2.1    28.086
   14719      st       1    MUSC   Si0oj       1       2.1    28.086
   14720      st       1    MUSC   Si0ok       1       2.1    28.086
   14721      st       1    MUSC   Si0ol       1       2.1    28.086
   14722      st       1    MUSC   Si0om       1       2.1    28.086
   14723      st       1    MUSC   Si0on       1       2.1    28.086
   14724      st       1    MUSC   Si0oo       1       2.1    28.086
   14725      st       1    MUSC   Si0op       1       2.1    28.086
   14726      st       1    MUSC   Si0oq       1       2.1    28.086
   14727      ob       1    MUSC   O02Rl       1     -1.05    15.999
   14728      ob       1    MUSC   O02Rm       1     -1.05    15.999
   14729      ob       1    MUSC   O02Rn       1     -1.05    15.999
   14730      ob       1    MUSC   O02Ro       1     -1.05    15.999
   14731      oh       1    MUSC   O02Rp       1     -0.95    15.999
   14732      oh       1    MUSC   O02Rq       1     -0.95    15.999
   14733      oh       1    MUSC   O02Rr       1     -0.95    15.999
   14734      oh       1    MUSC   O02Rs       1     -0.95    15.999
   14735      ob       1    MUSC   O02Rt       1     -1.05    15.999
   14736      ob       1    MUSC   O02Ru       1     -1.05    15.999
   14737      ob       1    MUSC   O02Rv       1     -1.05    15.999
   14738      ob       1    MUSC   O02Rw       1     -1.05    15.999
   14739      ob       1    MUSC   O02Rx       1     -1.05    15.999
   14740      ob       1    MUSC   O02Ry       1     -1.05    15.999
   14741      ob       1    MUSC   O02Rz       1     -1.05    15.999
   14742      ob       1    MUSC   O02S0       1     -1.05    15.999
   14743      ob       1    MUSC   O02S1       1     -1.05    15.999
   14744      ob       1    MUSC   O02S2       1     -1.05    15.999
   14745      ob       1    MUSC   O02S3       1     -1.05    15.999
   14746      ob       1    MUSC   O02S4       1     -1.05    15.999
   14747      ob       1    MUSC   O02S5       1     -1.05    15.999
   14748      ob       1    MUSC   O02S6       1     -1.05    15.999
   14749      ob       1    MUSC   O02S7       1     -1.05    15.999
   14750      ob       1    MUSC   O02S8       1     -1.05    15.999
   14751      ob       1    MUSC   O02S9       1     -1.05    15.999
   14752      ob       1    MUSC   O02SA       1     -1.05    15.999
   14753      ob       1    MUSC   O02SB       1     -1.05    15.999
   14754      ob       1    MUSC   O02SC       1     -1.05    15.999
   14755      oh       1    MUSC   O02SD       1     -0.95    15.999
   14756      oh       1    MUSC   O02SE       1     -0.95    15.999
   14757      oh       1    MUSC   O02SF       1     -0.95    15.999
   14758      oh       1    MUSC   O02SG       1     -0.95    15.999
   14759      ob       1    MUSC   O02SH       1     -1.05    15.999
   14760      ob       1    MUSC   O02SI       1     -1.05    15.999
   14761      ob       1    MUSC   O02SJ       1     -1.05    15.999
   14762      ob       1    MUSC   O02SK       1     -1.05    15.999
   14763      ob       1    MUSC   O02SL       1     -1.05    15.999
   14764      ob       1    MUSC   O02SM       1     -1.05    15.999
   14765      ob       1    MUSC   O02SN       1     -1.05    15.999
   14766      ob       1    MUSC   O02SO       1     -1.05    15.999
   14767      ob       1    MUSC   O02SP       1     -1.05    15.999
   14768      ob       1    MUSC   O02SQ       1     -1.05    15.999
   14769      ob       1    MUSC   O02SR       1     -1.05    15.999
   14770      ob       1    MUSC   O02SS       1     -1.05    15.999
   14771      ob       1    MUSC   O02ST       1     -1.05    15.999
   14772      ob       1    MUSC   O02SU       1     -1.05    15.999
   14773      ob       1    MUSC   O02SV       1     -1.05    15.999
   14774      ob       1    MUSC   O02SW       1     -1.05    15.999
   14775       K       1    MUSC   K009X       1       1.0    39.098
   14776       K       1    MUSC   K009Y       1       1.0    39.098
   14777       K       1    MUSC   K009Z       1       1.0    39.098
   14778       K       1    MUSC   K009a       1       1.0    39.098
   14779      ao       1    MUSC   Al0PR       1     1.575    26.982
   14780      ao       1    MUSC   Al0PS       1     1.575    26.982
   14781      ao       1    MUSC   Al0PT       1     1.575    26.982
   14782      ao       1    MUSC   Al0PU       1     1.575    26.982
   14783      ao       1    MUSC   Al0PV       1     1.575    26.982
   14784      ao       1    MUSC   Al0PW       1     1.575    26.982
   14785      ao       1    MUSC   Al0PX       1     1.575    26.982
   14786      ao       1    MUSC   Al0PY       1     1.575    26.982
   14787      st       1    MUSC   Si0or       1       2.1    28.086
   14788      st       1    MUSC   Si0os       1       2.1    28.086
   14789      st       1    MUSC   Si0ot       1       2.1    28.086
   14790      st       1    MUSC   Si0ou       1       2.1    28.086
   14791      st       1    MUSC   Si0ov       1       2.1    28.086
   14792      st       1    MUSC   Si0ow       1       2.1    28.086
   14793      st       1    MUSC   Si0ox       1       2.1    28.086
   14794      st       1    MUSC   Si0oy       1       2.1    28.086
   14795      st       1    MUSC   Si0oz       1       2.1    28.086
   14796      st       1    MUSC   Si0p0       1       2.1    28.086
   14797      st       1    MUSC   Si0p1       1       2.1    28.086
   14798      st       1    MUSC   Si0p2       1       2.1    28.086
   14799      st       1    MUSC   Si0p3       1       2.1    28.086
   14800      st       1    MUSC   Si0p4       1       2.1    28.086
   14801      st       1    MUSC   Si0p5       1       2.1    28.086
   14802      st       1    MUSC   Si0p6       1       2.1    28.086
   14803      ob       1    MUSC   O02SX       1     -1.05    15.999
   14804      ob       1    MUSC   O02SY       1     -1.05    15.999
   14805      ob       1    MUSC   O02SZ       1     -1.05    15.999
   14806      ob       1    MUSC   O02Sa       1     -1.05    15.999
   14807      oh       1    MUSC   O02Sb       1     -0.95    15.999
   14808      oh       1    MUSC   O02Sc       1     -0.95    15.999
   14809      oh       1    MUSC   O02Sd       1     -0.95    15.999
   14810      oh       1    MUSC   O02Se       1     -0.95    15.999
   14811      ob       1    MUSC   O02Sf       1     -1.05    15.999
   14812      ob       1    MUSC   O02Sg       1     -1.05    15.999
   14813      ob       1    MUSC   O02Sh       1     -1.05    15.999
   14814      ob       1    MUSC   O02Si       1     -1.05    15.999
   14815      ob       1    MUSC   O02Sj       1     -1.05    15.999
   14816      ob       1    MUSC   O02Sk       1     -1.05    15.999
   14817      ob       1    MUSC   O02Sl       1     -1.05    15.999
   14818      ob       1    MUSC   O02Sm       1     -1.05    15.999
   14819      ob       1    MUSC   O02Sn       1     -1.05    15.999
   14820      ob       1    MUSC   O02So       1     -1.05    15.999
   14821      ob       1    MUSC   O02Sp       1     -1.05    15.999
   14822      ob       1    MUSC   O02Sq       1     -1.05    15.999
   14823      ob       1    MUSC   O02Sr       1     -1.05    15.999
   14824      ob       1    MUSC   O02Ss       1     -1.05    15.999
   14825      ob       1    MUSC   O02St       1     -1.05    15.999
   14826      ob       1    MUSC   O02Su       1     -1.05    15.999
   14827      ob       1    MUSC   O02Sv       1     -1.05    15.999
   14828      ob       1    MUSC   O02Sw       1     -1.05    15.999
   14829      ob       1    MUSC   O02Sx       1     -1.05    15.999
   14830      ob       1    MUSC   O02Sy       1     -1.05    15.999
   14831      oh       1    MUSC   O02Sz       1     -0.95    15.999
   14832      oh       1    MUSC   O02T0       1     -0.95    15.999
   14833      oh       1    MUSC   O02T1       1     -0.95    15.999
   14834      oh       1    MUSC   O02T2       1     -0.95    15.999
   14835      ob       1    MUSC   O02T3       1     -1.05    15.999
   14836      ob       1    MUSC   O02T4       1     -1.05    15.999
   14837      ob       1    MUSC   O02T5       1     -1.05    15.999
   14838      ob       1    MUSC   O02T6       1     -1.05    15.999
   14839      ob       1    MUSC   O02T7       1     -1.05    15.999
   14840      ob       1    MUSC   O02T8       1     -1.05    15.999
   14841      ob       1    MUSC   O02T9       1     -1.05    15.999
   14842      ob       1    MUSC   O02TA       1     -1.05    15.999
   14843      ob       1    MUSC   O02TB       1     -1.05    15.999
   14844      ob       1    MUSC   O02TC       1     -1.05    15.999
   14845      ob       1    MUSC   O02TD       1     -1.05    15.999
   14846      ob       1    MUSC   O02TE       1     -1.05    15.999
   14847      ob       1    MUSC   O02TF       1     -1.05    15.999
   14848      ob       1    MUSC   O02TG       1     -1.05    15.999
   14849      ob       1    MUSC   O02TH       1     -1.05    15.999
   14850      ob       1    MUSC   O02TI       1     -1.05    15.999
   14851       K       1    MUSC   K009b       1       1.0    39.098
   14852       K       1    MUSC   K009c       1       1.0    39.098
   14853      ao       1    MUSC   Al0PZ       1     1.575    26.982
   14854      ao       1    MUSC   Al0Pa       1     1.575    26.982
   14855      ao       1    MUSC   Al0Pb       1     1.575    26.982
   14856      ao       1    MUSC   Al0Pc       1     1.575    26.982
   14857      ao       1    MUSC   Al0Pd       1     1.575    26.982
   14858      ao       1    MUSC   Al0Pe       1     1.575    26.982
   14859      ao       1    MUSC   Al0Pf       1     1.575    26.982
   14860      ao       1    MUSC   Al0Pg       1     1.575    26.982
   14861      st       1    MUSC   Si0p7       1       2.1    28.086
   14862      st       1    MUSC   Si0p8       1       2.1    28.086
   14863      st       1    MUSC   Si0p9       1       2.1    28.086
   14864      st       1    MUSC   Si0pA       1       2.1    28.086
   14865      st       1    MUSC   Si0pB       1       2.1    28.086
   14866      st       1    MUSC   Si0pC       1       2.1    28.086
   14867      st       1    MUSC   Si0pD       1       2.1    28.086
   14868      st       1    MUSC   Si0pE       1       2.1    28.086
   14869      st       1    MUSC   Si0pF       1       2.1    28.086
   14870      st       1    MUSC   Si0pG       1       2.1    28.086
   14871      st       1    MUSC   Si0pH       1       2.1    28.086
   14872      st       1    MUSC   Si0pI       1       2.1    28.086
   14873      st       1    MUSC   Si0pJ       1       2.1    28.086
   14874      st       1    MUSC   Si0pK       1       2.1    28.086
   14875      st       1    MUSC   Si0pL       1       2.1    28.086
   14876      st       1    MUSC   Si0pM       1       2.1    28.086
   14877      ob       1    MUSC   O02TJ       1     -1.05    15.999
   14878      ob       1    MUSC   O02TK       1     -1.05    15.999
   14879      ob       1    MUSC   O02TL       1     -1.05    15.999
   14880      ob       1    MUSC   O02TM       1     -1.05    15.999
   14881      oh       1    MUSC   O02TN       1     -0.95    15.999
   14882      oh       1    MUSC   O02TO       1     -0.95    15.999
   14883      oh       1    MUSC   O02TP       1     -0.95    15.999
   14884      oh       1    MUSC   O02TQ       1     -0.95    15.999
   14885      ob       1    MUSC   O02TR       1     -1.05    15.999
   14886      ob       1    MUSC   O02TS       1     -1.05    15.999
   14887      ob       1    MUSC   O02TT       1     -1.05    15.999
   14888      ob       1    MUSC   O02TU       1     -1.05    15.999
   14889      ob       1    MUSC   O02TV       1     -1.05    15.999
   14890      ob       1    MUSC   O02TW       1     -1.05    15.999
   14891      ob       1    MUSC   O02TX       1     -1.05    15.999
   14892      ob       1    MUSC   O02TY       1     -1.05    15.999
   14893      ob       1    MUSC   O02TZ       1     -1.05    15.999
   14894      ob       1    MUSC   O02Ta       1     -1.05    15.999
   14895      ob       1    MUSC   O02Tb       1     -1.05    15.999
   14896      ob       1    MUSC   O02Tc       1     -1.05    15.999
   14897      ob       1    MUSC   O02Td       1     -1.05    15.999
   14898      ob       1    MUSC   O02Te       1     -1.05    15.999
   14899      ob       1    MUSC   O02Tf       1     -1.05    15.999
   14900      ob       1    MUSC   O02Tg       1     -1.05    15.999
   14901      ob       1    MUSC   O02Th       1     -1.05    15.999
   14902      ob       1    MUSC   O02Ti       1     -1.05    15.999
   14903      ob       1    MUSC   O02Tj       1     -1.05    15.999
   14904      ob       1    MUSC   O02Tk       1     -1.05    15.999
   14905      oh       1    MUSC   O02Tl       1     -0.95    15.999
   14906      oh       1    MUSC   O02Tm       1     -0.95    15.999
   14907      oh       1    MUSC   O02Tn       1     -0.95    15.999
   14908      oh       1    MUSC   O02To       1     -0.95    15.999
   14909      ob       1    MUSC   O02Tp       1     -1.05    15.999
   14910      ob       1    MUSC   O02Tq       1     -1.05    15.999
   14911      ob       1    MUSC   O02Tr       1     -1.05    15.999
   14912      ob       1    MUSC   O02Ts       1     -1.05    15.999
   14913      ob       1    MUSC   O02Tt       1     -1.05    15.999
   14914      ob       1    MUSC   O02Tu       1     -1.05    15.999
   14915      ob       1    MUSC   O02Tv       1     -1.05    15.999
   14916      ob       1    MUSC   O02Tw       1     -1.05    15.999
   14917      ob       1    MUSC   O02Tx       1     -1.05    15.999
   14918      ob       1    MUSC   O02Ty       1     -1.05    15.999
   14919      ob       1    MUSC   O02Tz       1     -1.05    15.999
   14920      ob       1    MUSC   O02U0       1     -1.05    15.999
   14921      ob       1    MUSC   O02U1       1     -1.05    15.999
   14922      ob       1    MUSC   O02U2       1     -1.05    15.999
   14923      ob       1    MUSC   O02U3       1     -1.05    15.999
   14924      ob       1    MUSC   O02U4       1     -1.05    15.999
   14925       K       1    MUSC   K009d       1       1.0    39.098
   14926       K       1    MUSC   K009e       1       1.0    39.098
   14927       K       1    MUSC   K009f       1       1.0    39.098
   14928       K       1    MUSC   K009g       1       1.0    39.098
   14929      ao       1    MUSC   Al0Ph       1     1.575    26.982
   14930      ao       1    MUSC   Al0Pi       1     1.575    26.982
   14931      ao       1    MUSC   Al0Pj       1     1.575    26.982
   14932      ao       1    MUSC   Al0Pk       1     1.575    26.982
   14933      ao       1    MUSC   Al0Pl       1     1.575    26.982
   14934      ao       1    MUSC   Al0Pm       1     1.575    26.982
   14935      ao       1    MUSC   Al0Pn       1     1.575    26.982
   14936      ao       1    MUSC   Al0Po       1     1.575    26.982
   14937      st       1    MUSC   Si0pN       1       2.1    28.086
   14938      st       1    MUSC   Si0pO       1       2.1    28.086
   14939      st       1    MUSC   Si0pP       1       2.1    28.086
   14940      st       1    MUSC   Si0pQ       1       2.1    28.086
   14941      st       1    MUSC   Si0pR       1       2.1    28.086
   14942      st       1    MUSC   Si0pS       1       2.1    28.086
   14943      st       1    MUSC   Si0pT       1       2.1    28.086
   14944      st       1    MUSC   Si0pU       1       2.1    28.086
   14945      st       1    MUSC   Si0pV       1       2.1    28.086
   14946      st       1    MUSC   Si0pW       1       2.1    28.086
   14947      st       1    MUSC   Si0pX       1       2.1    28.086
   14948      st       1    MUSC   Si0pY       1       2.1    28.086
   14949      st       1    MUSC   Si0pZ       1       2.1    28.086
   14950      st       1    MUSC   Si0pa       1       2.1    28.086
   14951      st       1    MUSC   Si0pb       1       2.1    28.086
   14952      st       1    MUSC   Si0pc       1       2.1    28.086
   14953      ob       1    MUSC   O02U5       1     -1.05    15.999
   14954      ob       1    MUSC   O02U6       1     -1.05    15.999
   14955      ob       1    MUSC   O02U7       1     -1.05    15.999
   14956      ob       1    MUSC   O02U8       1     -1.05    15.999
   14957      oh       1    MUSC   O02U9       1     -0.95    15.999
   14958      oh       1    MUSC   O02UA       1     -0.95    15.999
   14959      oh       1    MUSC   O02UB       1     -0.95    15.999
   14960      oh       1    MUSC   O02UC       1     -0.95    15.999
   14961      ob       1    MUSC   O02UD       1     -1.05    15.999
   14962      ob       1    MUSC   O02UE       1     -1.05    15.999
   14963      ob       1    MUSC   O02UF       1     -1.05    15.999
   14964      ob       1    MUSC   O02UG       1     -1.05    15.999
   14965      ob       1    MUSC   O02UH       1     -1.05    15.999
   14966      ob       1    MUSC   O02UI       1     -1.05    15.999
   14967      ob       1    MUSC   O02UJ       1     -1.05    15.999
   14968      ob       1    MUSC   O02UK       1     -1.05    15.999
   14969      ob       1    MUSC   O02UL       1     -1.05    15.999
   14970      ob       1    MUSC   O02UM       1     -1.05    15.999
   14971      ob       1    MUSC   O02UN       1     -1.05    15.999
   14972      ob       1    MUSC   O02UO       1     -1.05    15.999
   14973      ob       1    MUSC   O02UP       1     -1.05    15.999
   14974      ob       1    MUSC   O02UQ       1     -1.05    15.999
   14975      ob       1    MUSC   O02UR       1     -1.05    15.999
   14976      ob       1    MUSC   O02US       1     -1.05    15.999
   14977      ob       1    MUSC   O02UT       1     -1.05    15.999
   14978      ob       1    MUSC   O02UU       1     -1.05    15.999
   14979      ob       1    MUSC   O02UV       1     -1.05    15.999
   14980      ob       1    MUSC   O02UW       1     -1.05    15.999
   14981      oh       1    MUSC   O02UX       1     -0.95    15.999
   14982      oh       1    MUSC   O02UY       1     -0.95    15.999
   14983      oh       1    MUSC   O02UZ       1     -0.95    15.999
   14984      oh       1    MUSC   O02Ua       1     -0.95    15.999
   14985      ob       1    MUSC   O02Ub       1     -1.05    15.999
   14986      ob       1    MUSC   O02Uc       1     -1.05    15.999
   14987      ob       1    MUSC   O02Ud       1     -1.05    15.999
   14988      ob       1    MUSC   O02Ue       1     -1.05    15.999
   14989      ob       1    MUSC   O02Uf       1     -1.05    15.999
   14990      ob       1    MUSC   O02Ug       1     -1.05    15.999
   14991      ob       1    MUSC   O02Uh       1     -1.05    15.999
   14992      ob       1    MUSC   O02Ui       1     -1.05    15.999
   14993      ob       1    MUSC   O02Uj       1     -1.05    15.999
   14994      ob       1    MUSC   O02Uk       1     -1.05    15.999
   14995      ob       1    MUSC   O02Ul       1     -1.05    15.999
   14996      ob       1    MUSC   O02Um       1     -1.05    15.999
   14997      ob       1    MUSC   O02Un       1     -1.05    15.999
   14998      ob       1    MUSC   O02Uo       1     -1.05    15.999
   14999      ob       1    MUSC   O02Up       1     -1.05    15.999
   15000      ob       1    MUSC   O02Uq       1     -1.05    15.999
   15001       K       1    MUSC   K009h       1       1.0    39.098
   15002       K       1    MUSC   K009i       1       1.0    39.098
   15003      ao       1    MUSC   Al0Pp       1     1.575    26.982
   15004      ao       1    MUSC   Al0Pq       1     1.575    26.982
   15005      ao       1    MUSC   Al0Pr       1     1.575    26.982
   15006      ao       1    MUSC   Al0Ps       1     1.575    26.982
   15007      ao       1    MUSC   Al0Pt       1     1.575    26.982
   15008      ao       1    MUSC   Al0Pu       1     1.575    26.982
   15009      ao       1    MUSC   Al0Pv       1     1.575    26.982
   15010      ao       1    MUSC   Al0Pw       1     1.575    26.982
   15011      st       1    MUSC   Si0pd       1       2.1    28.086
   15012      st       1    MUSC   Si0pe       1       2.1    28.086
   15013      st       1    MUSC   Si0pf       1       2.1    28.086
   15014      st       1    MUSC   Si0pg       1       2.1    28.086
   15015      st       1    MUSC   Si0ph       1       2.1    28.086
   15016      st       1    MUSC   Si0pi       1       2.1    28.086
   15017      st       1    MUSC   Si0pj       1       2.1    28.086
   15018      st       1    MUSC   Si0pk       1       2.1    28.086
   15019      st       1    MUSC   Si0pl       1       2.1    28.086
   15020      st       1    MUSC   Si0pm       1       2.1    28.086
   15021      st       1    MUSC   Si0pn       1       2.1    28.086
   15022      st       1    MUSC   Si0po       1       2.1    28.086
   15023      st       1    MUSC   Si0pp       1       2.1    28.086
   15024      st       1    MUSC   Si0pq       1       2.1    28.086
   15025      st       1    MUSC   Si0pr       1       2.1    28.086
   15026      st       1    MUSC   Si0ps       1       2.1    28.086
   15027      ob       1    MUSC   O02Ur       1     -1.05    15.999
   15028      ob       1    MUSC   O02Us       1     -1.05    15.999
   15029      ob       1    MUSC   O02Ut       1     -1.05    15.999
   15030      ob       1    MUSC   O02Uu       1     -1.05    15.999
   15031      oh       1    MUSC   O02Uv       1     -0.95    15.999
   15032      oh       1    MUSC   O02Uw       1     -0.95    15.999
   15033      oh       1    MUSC   O02Ux       1     -0.95    15.999
   15034      oh       1    MUSC   O02Uy       1     -0.95    15.999
   15035      ob       1    MUSC   O02Uz       1     -1.05    15.999
   15036      ob       1    MUSC   O02V0       1     -1.05    15.999
   15037      ob       1    MUSC   O02V1       1     -1.05    15.999
   15038      ob       1    MUSC   O02V2       1     -1.05    15.999
   15039      ob       1    MUSC   O02V3       1     -1.05    15.999
   15040      ob       1    MUSC   O02V4       1     -1.05    15.999
   15041      ob       1    MUSC   O02V5       1     -1.05    15.999
   15042      ob       1    MUSC   O02V6       1     -1.05    15.999
   15043      ob       1    MUSC   O02V7       1     -1.05    15.999
   15044      ob       1    MUSC   O02V8       1     -1.05    15.999
   15045      ob       1    MUSC   O02V9       1     -1.05    15.999
   15046      ob       1    MUSC   O02VA       1     -1.05    15.999
   15047      ob       1    MUSC   O02VB       1     -1.05    15.999
   15048      ob       1    MUSC   O02VC       1     -1.05    15.999
   15049      ob       1    MUSC   O02VD       1     -1.05    15.999
   15050      ob       1    MUSC   O02VE       1     -1.05    15.999
   15051      ob       1    MUSC   O02VF       1     -1.05    15.999
   15052      ob       1    MUSC   O02VG       1     -1.05    15.999
   15053      ob       1    MUSC   O02VH       1     -1.05    15.999
   15054      ob       1    MUSC   O02VI       1     -1.05    15.999
   15055      oh       1    MUSC   O02VJ       1     -0.95    15.999
   15056      oh       1    MUSC   O02VK       1     -0.95    15.999
   15057      oh       1    MUSC   O02VL       1     -0.95    15.999
   15058      oh       1    MUSC   O02VM       1     -0.95    15.999
   15059      ob       1    MUSC   O02VN       1     -1.05    15.999
   15060      ob       1    MUSC   O02VO       1     -1.05    15.999
   15061      ob       1    MUSC   O02VP       1     -1.05    15.999
   15062      ob       1    MUSC   O02VQ       1     -1.05    15.999
   15063      ob       1    MUSC   O02VR       1     -1.05    15.999
   15064      ob       1    MUSC   O02VS       1     -1.05    15.999
   15065      ob       1    MUSC   O02VT       1     -1.05    15.999
   15066      ob       1    MUSC   O02VU       1     -1.05    15.999
   15067      ob       1    MUSC   O02VV       1     -1.05    15.999
   15068      ob       1    MUSC   O02VW       1     -1.05    15.999
   15069      ob       1    MUSC   O02VX       1     -1.05    15.999
   15070      ob       1    MUSC   O02VY       1     -1.05    15.999
   15071      ob       1    MUSC   O02VZ       1     -1.05    15.999
   15072      ob       1    MUSC   O02Va       1     -1.05    15.999
   15073      ob       1    MUSC   O02Vb       1     -1.05    15.999
   15074      ob       1    MUSC   O02Vc       1     -1.05    15.999
   15075       K       1    MUSC   K009j       1       1.0    39.098
   15076       K       1    MUSC   K009k       1       1.0    39.098
   15077       K       1    MUSC   K009l       1       1.0    39.098
   15078       K       1    MUSC   K009m       1       1.0    39.098
   15079      ao       1    MUSC   Al0Px       1     1.575    26.982
   15080      ao       1    MUSC   Al0Py       1     1.575    26.982
   15081      ao       1    MUSC   Al0Pz       1     1.575    26.982
   15082      ao       1    MUSC   Al0Q0       1     1.575    26.982
   15083      ao       1    MUSC   Al0Q1       1     1.575    26.982
   15084      ao       1    MUSC   Al0Q2       1     1.575    26.982
   15085      ao       1    MUSC   Al0Q3       1     1.575    26.982
   15086      ao       1    MUSC   Al0Q4       1     1.575    26.982
   15087      st       1    MUSC   Si0pt       1       2.1    28.086
   15088      st       1    MUSC   Si0pu       1       2.1    28.086
   15089      st       1    MUSC   Si0pv       1       2.1    28.086
   15090      st       1    MUSC   Si0pw       1       2.1    28.086
   15091      st       1    MUSC   Si0px       1       2.1    28.086
   15092      st       1    MUSC   Si0py       1       2.1    28.086
   15093      st       1    MUSC   Si0pz       1       2.1    28.086
   15094      st       1    MUSC   Si0q0       1       2.1    28.086
   15095      st       1    MUSC   Si0q1       1       2.1    28.086
   15096      st       1    MUSC   Si0q2       1       2.1    28.086
   15097      st       1    MUSC   Si0q3       1       2.1    28.086
   15098      st       1    MUSC   Si0q4       1       2.1    28.086
   15099      st       1    MUSC   Si0q5       1       2.1    28.086
   15100      st       1    MUSC   Si0q6       1       2.1    28.086
   15101      st       1    MUSC   Si0q7       1       2.1    28.086
   15102      st       1    MUSC   Si0q8       1       2.1    28.086
   15103      ob       1    MUSC   O02Vd       1     -1.05    15.999
   15104      ob       1    MUSC   O02Ve       1     -1.05    15.999
   15105      ob       1    MUSC   O02Vf       1     -1.05    15.999
   15106      ob       1    MUSC   O02Vg       1     -1.05    15.999
   15107      oh       1    MUSC   O02Vh       1     -0.95    15.999
   15108      oh       1    MUSC   O02Vi       1     -0.95    15.999
   15109      oh       1    MUSC   O02Vj       1     -0.95    15.999
   15110      oh       1    MUSC   O02Vk       1     -0.95    15.999
   15111      ob       1    MUSC   O02Vl       1     -1.05    15.999
   15112      ob       1    MUSC   O02Vm       1     -1.05    15.999
   15113      ob       1    MUSC   O02Vn       1     -1.05    15.999
   15114      ob       1    MUSC   O02Vo       1     -1.05    15.999
   15115      ob       1    MUSC   O02Vp       1     -1.05    15.999
   15116      ob       1    MUSC   O02Vq       1     -1.05    15.999
   15117      ob       1    MUSC   O02Vr       1     -1.05    15.999
   15118      ob       1    MUSC   O02Vs       1     -1.05    15.999
   15119      ob       1    MUSC   O02Vt       1     -1.05    15.999
   15120      ob       1    MUSC   O02Vu       1     -1.05    15.999
   15121      ob       1    MUSC   O02Vv       1     -1.05    15.999
   15122      ob       1    MUSC   O02Vw       1     -1.05    15.999
   15123      ob       1    MUSC   O02Vx       1     -1.05    15.999
   15124      ob       1    MUSC   O02Vy       1     -1.05    15.999
   15125      ob       1    MUSC   O02Vz       1     -1.05    15.999
   15126      ob       1    MUSC   O02W0       1     -1.05    15.999
   15127      ob       1    MUSC   O02W1       1     -1.05    15.999
   15128      ob       1    MUSC   O02W2       1     -1.05    15.999
   15129      ob       1    MUSC   O02W3       1     -1.05    15.999
   15130      ob       1    MUSC   O02W4       1     -1.05    15.999
   15131      oh       1    MUSC   O02W5       1     -0.95    15.999
   15132      oh       1    MUSC   O02W6       1     -0.95    15.999
   15133      oh       1    MUSC   O02W7       1     -0.95    15.999
   15134      oh       1    MUSC   O02W8       1     -0.95    15.999
   15135      ob       1    MUSC   O02W9       1     -1.05    15.999
   15136      ob       1    MUSC   O02WA       1     -1.05    15.999
   15137      ob       1    MUSC   O02WB       1     -1.05    15.999
   15138      ob       1    MUSC   O02WC       1     -1.05    15.999
   15139      ob       1    MUSC   O02WD       1     -1.05    15.999
   15140      ob       1    MUSC   O02WE       1     -1.05    15.999
   15141      ob       1    MUSC   O02WF       1     -1.05    15.999
   15142      ob       1    MUSC   O02WG       1     -1.05    15.999
   15143      ob       1    MUSC   O02WH       1     -1.05    15.999
   15144      ob       1    MUSC   O02WI       1     -1.05    15.999
   15145      ob       1    MUSC   O02WJ       1     -1.05    15.999
   15146      ob       1    MUSC   O02WK       1     -1.05    15.999
   15147      ob       1    MUSC   O02WL       1     -1.05    15.999
   15148      ob       1    MUSC   O02WM       1     -1.05    15.999
   15149      ob       1    MUSC   O02WN       1     -1.05    15.999
   15150      ob       1    MUSC   O02WO       1     -1.05    15.999
   15151       K       1    MUSC   K009n       1       1.0    39.098
   15152       K       1    MUSC   K009o       1       1.0    39.098
   15153      ao       1    MUSC   Al0Q5       1     1.575    26.982
   15154      ao       1    MUSC   Al0Q6       1     1.575    26.982
   15155      ao       1    MUSC   Al0Q7       1     1.575    26.982
   15156      ao       1    MUSC   Al0Q8       1     1.575    26.982
   15157      ao       1    MUSC   Al0Q9       1     1.575    26.982
   15158      ao       1    MUSC   Al0QA       1     1.575    26.982
   15159      ao       1    MUSC   Al0QB       1     1.575    26.982
   15160      ao       1    MUSC   Al0QC       1     1.575    26.982
   15161      st       1    MUSC   Si0q9       1       2.1    28.086
   15162      st       1    MUSC   Si0qA       1       2.1    28.086
   15163      st       1    MUSC   Si0qB       1       2.1    28.086
   15164      st       1    MUSC   Si0qC       1       2.1    28.086
   15165      st       1    MUSC   Si0qD       1       2.1    28.086
   15166      st       1    MUSC   Si0qE       1       2.1    28.086
   15167      st       1    MUSC   Si0qF       1       2.1    28.086
   15168      st       1    MUSC   Si0qG       1       2.1    28.086
   15169      st       1    MUSC   Si0qH       1       2.1    28.086
   15170      st       1    MUSC   Si0qI       1       2.1    28.086
   15171      st       1    MUSC   Si0qJ       1       2.1    28.086
   15172      st       1    MUSC   Si0qK       1       2.1    28.086
   15173      st       1    MUSC   Si0qL       1       2.1    28.086
   15174      st       1    MUSC   Si0qM       1       2.1    28.086
   15175      st       1    MUSC   Si0qN       1       2.1    28.086
   15176      st       1    MUSC   Si0qO       1       2.1    28.086
   15177      ob       1    MUSC   O02WP       1     -1.05    15.999
   15178      ob       1    MUSC   O02WQ       1     -1.05    15.999
   15179      ob       1    MUSC   O02WR       1     -1.05    15.999
   15180      ob       1    MUSC   O02WS       1     -1.05    15.999
   15181      oh       1    MUSC   O02WT       1     -0.95    15.999
   15182      oh       1    MUSC   O02WU       1     -0.95    15.999
   15183      oh       1    MUSC   O02WV       1     -0.95    15.999
   15184      oh       1    MUSC   O02WW       1     -0.95    15.999
   15185      ob       1    MUSC   O02WX       1     -1.05    15.999
   15186      ob       1    MUSC   O02WY       1     -1.05    15.999
   15187      ob       1    MUSC   O02WZ       1     -1.05    15.999
   15188      ob       1    MUSC   O02Wa       1     -1.05    15.999
   15189      ob       1    MUSC   O02Wb       1     -1.05    15.999
   15190      ob       1    MUSC   O02Wc       1     -1.05    15.999
   15191      ob       1    MUSC   O02Wd       1     -1.05    15.999
   15192      ob       1    MUSC   O02We       1     -1.05    15.999
   15193      ob       1    MUSC   O02Wf       1     -1.05    15.999
   15194      ob       1    MUSC   O02Wg       1     -1.05    15.999
   15195      ob       1    MUSC   O02Wh       1     -1.05    15.999
   15196      ob       1    MUSC   O02Wi       1     -1.05    15.999
   15197      ob       1    MUSC   O02Wj       1     -1.05    15.999
   15198      ob       1    MUSC   O02Wk       1     -1.05    15.999
   15199      ob       1    MUSC   O02Wl       1     -1.05    15.999
   15200      ob       1    MUSC   O02Wm       1     -1.05    15.999
   15201      ob       1    MUSC   O02Wn       1     -1.05    15.999
   15202      ob       1    MUSC   O02Wo       1     -1.05    15.999
   15203      ob       1    MUSC   O02Wp       1     -1.05    15.999
   15204      ob       1    MUSC   O02Wq       1     -1.05    15.999
   15205      oh       1    MUSC   O02Wr       1     -0.95    15.999
   15206      oh       1    MUSC   O02Ws       1     -0.95    15.999
   15207      oh       1    MUSC   O02Wt       1     -0.95    15.999
   15208      oh       1    MUSC   O02Wu       1     -0.95    15.999
   15209      ob       1    MUSC   O02Wv       1     -1.05    15.999
   15210      ob       1    MUSC   O02Ww       1     -1.05    15.999
   15211      ob       1    MUSC   O02Wx       1     -1.05    15.999
   15212      ob       1    MUSC   O02Wy       1     -1.05    15.999
   15213      ob       1    MUSC   O02Wz       1     -1.05    15.999
   15214      ob       1    MUSC   O02X0       1     -1.05    15.999
   15215      ob       1    MUSC   O02X1       1     -1.05    15.999
   15216      ob       1    MUSC   O02X2       1     -1.05    15.999
   15217      ob       1    MUSC   O02X3       1     -1.05    15.999
   15218      ob       1    MUSC   O02X4       1     -1.05    15.999
   15219      ob       1    MUSC   O02X5       1     -1.05    15.999
   15220      ob       1    MUSC   O02X6       1     -1.05    15.999
   15221      ob       1    MUSC   O02X7       1     -1.05    15.999
   15222      ob       1    MUSC   O02X8       1     -1.05    15.999
   15223      ob       1    MUSC   O02X9       1     -1.05    15.999
   15224      ob       1    MUSC   O02XA       1     -1.05    15.999
   15225       K       1    MUSC   K009p       1       1.0    39.098
   15226       K       1    MUSC   K009q       1       1.0    39.098
   15227       K       1    MUSC   K009r       1       1.0    39.098
   15228       K       1    MUSC   K009s       1       1.0    39.098
   15229      ao       1    MUSC   Al0QD       1     1.575    26.982
   15230      ao       1    MUSC   Al0QE       1     1.575    26.982
   15231      ao       1    MUSC   Al0QF       1     1.575    26.982
   15232      ao       1    MUSC   Al0QG       1     1.575    26.982
   15233      ao       1    MUSC   Al0QH       1     1.575    26.982
   15234      ao       1    MUSC   Al0QI       1     1.575    26.982
   15235      ao       1    MUSC   Al0QJ       1     1.575    26.982
   15236      ao       1    MUSC   Al0QK       1     1.575    26.982
   15237      st       1    MUSC   Si0qP       1       2.1    28.086
   15238      st       1    MUSC   Si0qQ       1       2.1    28.086
   15239      st       1    MUSC   Si0qR       1       2.1    28.086
   15240      st       1    MUSC   Si0qS       1       2.1    28.086
   15241      st       1    MUSC   Si0qT       1       2.1    28.086
   15242      st       1    MUSC   Si0qU       1       2.1    28.086
   15243      st       1    MUSC   Si0qV       1       2.1    28.086
   15244      st       1    MUSC   Si0qW       1       2.1    28.086
   15245      st       1    MUSC   Si0qX       1       2.1    28.086
   15246      st       1    MUSC   Si0qY       1       2.1    28.086
   15247      st       1    MUSC   Si0qZ       1       2.1    28.086
   15248      st       1    MUSC   Si0qa       1       2.1    28.086
   15249      st       1    MUSC   Si0qb       1       2.1    28.086
   15250      st       1    MUSC   Si0qc       1       2.1    28.086
   15251      st       1    MUSC   Si0qd       1       2.1    28.086
   15252      st       1    MUSC   Si0qe       1       2.1    28.086
   15253      ob       1    MUSC   O02XB       1     -1.05    15.999
   15254      ob       1    MUSC   O02XC       1     -1.05    15.999
   15255      ob       1    MUSC   O02XD       1     -1.05    15.999
   15256      ob       1    MUSC   O02XE       1     -1.05    15.999
   15257      oh       1    MUSC   O02XF       1     -0.95    15.999
   15258      oh       1    MUSC   O02XG       1     -0.95    15.999
   15259      oh       1    MUSC   O02XH       1     -0.95    15.999
   15260      oh       1    MUSC   O02XI       1     -0.95    15.999
   15261      ob       1    MUSC   O02XJ       1     -1.05    15.999
   15262      ob       1    MUSC   O02XK       1     -1.05    15.999
   15263      ob       1    MUSC   O02XL       1     -1.05    15.999
   15264      ob       1    MUSC   O02XM       1     -1.05    15.999
   15265      ob       1    MUSC   O02XN       1     -1.05    15.999
   15266      ob       1    MUSC   O02XO       1     -1.05    15.999
   15267      ob       1    MUSC   O02XP       1     -1.05    15.999
   15268      ob       1    MUSC   O02XQ       1     -1.05    15.999
   15269      ob       1    MUSC   O02XR       1     -1.05    15.999
   15270      ob       1    MUSC   O02XS       1     -1.05    15.999
   15271      ob       1    MUSC   O02XT       1     -1.05    15.999
   15272      ob       1    MUSC   O02XU       1     -1.05    15.999
   15273      ob       1    MUSC   O02XV       1     -1.05    15.999
   15274      ob       1    MUSC   O02XW       1     -1.05    15.999
   15275      ob       1    MUSC   O02XX       1     -1.05    15.999
   15276      ob       1    MUSC   O02XY       1     -1.05    15.999
   15277      ob       1    MUSC   O02XZ       1     -1.05    15.999
   15278      ob       1    MUSC   O02Xa       1     -1.05    15.999
   15279      ob       1    MUSC   O02Xb       1     -1.05    15.999
   15280      ob       1    MUSC   O02Xc       1     -1.05    15.999
   15281      oh       1    MUSC   O02Xd       1     -0.95    15.999
   15282      oh       1    MUSC   O02Xe       1     -0.95    15.999
   15283      oh       1    MUSC   O02Xf       1     -0.95    15.999
   15284      oh       1    MUSC   O02Xg       1     -0.95    15.999
   15285      ob       1    MUSC   O02Xh       1     -1.05    15.999
   15286      ob       1    MUSC   O02Xi       1     -1.05    15.999
   15287      ob       1    MUSC   O02Xj       1     -1.05    15.999
   15288      ob       1    MUSC   O02Xk       1     -1.05    15.999
   15289      ob       1    MUSC   O02Xl       1     -1.05    15.999
   15290      ob       1    MUSC   O02Xm       1     -1.05    15.999
   15291      ob       1    MUSC   O02Xn       1     -1.05    15.999
   15292      ob       1    MUSC   O02Xo       1     -1.05    15.999
   15293      ob       1    MUSC   O02Xp       1     -1.05    15.999
   15294      ob       1    MUSC   O02Xq       1     -1.05    15.999
   15295      ob       1    MUSC   O02Xr       1     -1.05    15.999
   15296      ob       1    MUSC   O02Xs       1     -1.05    15.999
   15297      ob       1    MUSC   O02Xt       1     -1.05    15.999
   15298      ob       1    MUSC   O02Xu       1     -1.05    15.999
   15299      ob       1    MUSC   O02Xv       1     -1.05    15.999
   15300      ob       1    MUSC   O02Xw       1     -1.05    15.999
   15301       K       1    MUSC   K009t       1       1.0    39.098
   15302       K       1    MUSC   K009u       1       1.0    39.098
   15303      ao       1    MUSC   Al0QL       1     1.575    26.982
   15304      ao       1    MUSC   Al0QM       1     1.575    26.982
   15305      ao       1    MUSC   Al0QN       1     1.575    26.982
   15306      ao       1    MUSC   Al0QO       1     1.575    26.982
   15307      ao       1    MUSC   Al0QP       1     1.575    26.982
   15308      ao       1    MUSC   Al0QQ       1     1.575    26.982
   15309      ao       1    MUSC   Al0QR       1     1.575    26.982
   15310      ao       1    MUSC   Al0QS       1     1.575    26.982
   15311      st       1    MUSC   Si0qf       1       2.1    28.086
   15312      st       1    MUSC   Si0qg       1       2.1    28.086
   15313      st       1    MUSC   Si0qh       1       2.1    28.086
   15314      st       1    MUSC   Si0qi       1       2.1    28.086
   15315      st       1    MUSC   Si0qj       1       2.1    28.086
   15316      st       1    MUSC   Si0qk       1       2.1    28.086
   15317      st       1    MUSC   Si0ql       1       2.1    28.086
   15318      st       1    MUSC   Si0qm       1       2.1    28.086
   15319      st       1    MUSC   Si0qn       1       2.1    28.086
   15320      st       1    MUSC   Si0qo       1       2.1    28.086
   15321      st       1    MUSC   Si0qp       1       2.1    28.086
   15322      st       1    MUSC   Si0qq       1       2.1    28.086
   15323      st       1    MUSC   Si0qr       1       2.1    28.086
   15324      st       1    MUSC   Si0qs       1       2.1    28.086
   15325      st       1    MUSC   Si0qt       1       2.1    28.086
   15326      st       1    MUSC   Si0qu       1       2.1    28.086
   15327      ob       1    MUSC   O02Xx       1     -1.05    15.999
   15328      ob       1    MUSC   O02Xy       1     -1.05    15.999
   15329      ob       1    MUSC   O02Xz       1     -1.05    15.999
   15330      ob       1    MUSC   O02Y0       1     -1.05    15.999
   15331      oh       1    MUSC   O02Y1       1     -0.95    15.999
   15332      oh       1    MUSC   O02Y2       1     -0.95    15.999
   15333      oh       1    MUSC   O02Y3       1     -0.95    15.999
   15334      oh       1    MUSC   O02Y4       1     -0.95    15.999
   15335      ob       1    MUSC   O02Y5       1     -1.05    15.999
   15336      ob       1    MUSC   O02Y6       1     -1.05    15.999
   15337      ob       1    MUSC   O02Y7       1     -1.05    15.999
   15338      ob       1    MUSC   O02Y8       1     -1.05    15.999
   15339      ob       1    MUSC   O02Y9       1     -1.05    15.999
   15340      ob       1    MUSC   O02YA       1     -1.05    15.999
   15341      ob       1    MUSC   O02YB       1     -1.05    15.999
   15342      ob       1    MUSC   O02YC       1     -1.05    15.999
   15343      ob       1    MUSC   O02YD       1     -1.05    15.999
   15344      ob       1    MUSC   O02YE       1     -1.05    15.999
   15345      ob       1    MUSC   O02YF       1     -1.05    15.999
   15346      ob       1    MUSC   O02YG       1     -1.05    15.999
   15347      ob       1    MUSC   O02YH       1     -1.05    15.999
   15348      ob       1    MUSC   O02YI       1     -1.05    15.999
   15349      ob       1    MUSC   O02YJ       1     -1.05    15.999
   15350      ob       1    MUSC   O02YK       1     -1.05    15.999
   15351      ob       1    MUSC   O02YL       1     -1.05    15.999
   15352      ob       1    MUSC   O02YM       1     -1.05    15.999
   15353      ob       1    MUSC   O02YN       1     -1.05    15.999
   15354      ob       1    MUSC   O02YO       1     -1.05    15.999
   15355      oh       1    MUSC   O02YP       1     -0.95    15.999
   15356      oh       1    MUSC   O02YQ       1     -0.95    15.999
   15357      oh       1    MUSC   O02YR       1     -0.95    15.999
   15358      oh       1    MUSC   O02YS       1     -0.95    15.999
   15359      ob       1    MUSC   O02YT       1     -1.05    15.999
   15360      ob       1    MUSC   O02YU       1     -1.05    15.999
   15361      ob       1    MUSC   O02YV       1     -1.05    15.999
   15362      ob       1    MUSC   O02YW       1     -1.05    15.999
   15363      ob       1    MUSC   O02YX       1     -1.05    15.999
   15364      ob       1    MUSC   O02YY       1     -1.05    15.999
   15365      ob       1    MUSC   O02YZ       1     -1.05    15.999
   15366      ob       1    MUSC   O02Ya       1     -1.05    15.999
   15367      ob       1    MUSC   O02Yb       1     -1.05    15.999
   15368      ob       1    MUSC   O02Yc       1     -1.05    15.999
   15369      ob       1    MUSC   O02Yd       1     -1.05    15.999
   15370      ob       1    MUSC   O02Ye       1     -1.05    15.999
   15371      ob       1    MUSC   O02Yf       1     -1.05    15.999
   15372      ob       1    MUSC   O02Yg       1     -1.05    15.999
   15373      ob       1    MUSC   O02Yh       1     -1.05    15.999
   15374      ob       1    MUSC   O02Yi       1     -1.05    15.999
   15375       K       1    MUSC   K009v       1       1.0    39.098
   15376       K       1    MUSC   K009w       1       1.0    39.098
   15377       K       1    MUSC   K009x       1       1.0    39.098
   15378       K       1    MUSC   K009y       1       1.0    39.098
   15379      ao       1    MUSC   Al0QT       1     1.575    26.982
   15380      ao       1    MUSC   Al0QU       1     1.575    26.982
   15381      ao       1    MUSC   Al0QV       1     1.575    26.982
   15382      ao       1    MUSC   Al0QW       1     1.575    26.982
   15383      ao       1    MUSC   Al0QX       1     1.575    26.982
   15384      ao       1    MUSC   Al0QY       1     1.575    26.982
   15385      ao       1    MUSC   Al0QZ       1     1.575    26.982
   15386      ao       1    MUSC   Al0Qa       1     1.575    26.982
   15387      st       1    MUSC   Si0qv       1       2.1    28.086
   15388      st       1    MUSC   Si0qw       1       2.1    28.086
   15389      st       1    MUSC   Si0qx       1       2.1    28.086
   15390      st       1    MUSC   Si0qy       1       2.1    28.086
   15391      st       1    MUSC   Si0qz       1       2.1    28.086
   15392      st       1    MUSC   Si0r0       1       2.1    28.086
   15393      st       1    MUSC   Si0r1       1       2.1    28.086
   15394      st       1    MUSC   Si0r2       1       2.1    28.086
   15395      st       1    MUSC   Si0r3       1       2.1    28.086
   15396      st       1    MUSC   Si0r4       1       2.1    28.086
   15397      st       1    MUSC   Si0r5       1       2.1    28.086
   15398      st       1    MUSC   Si0r6       1       2.1    28.086
   15399      st       1    MUSC   Si0r7       1       2.1    28.086
   15400      st       1    MUSC   Si0r8       1       2.1    28.086
   15401      st       1    MUSC   Si0r9       1       2.1    28.086
   15402      st       1    MUSC   Si0rA       1       2.1    28.086
   15403      ob       1    MUSC   O02Yj       1     -1.05    15.999
   15404      ob       1    MUSC   O02Yk       1     -1.05    15.999
   15405      ob       1    MUSC   O02Yl       1     -1.05    15.999
   15406      ob       1    MUSC   O02Ym       1     -1.05    15.999
   15407      oh       1    MUSC   O02Yn       1     -0.95    15.999
   15408      oh       1    MUSC   O02Yo       1     -0.95    15.999
   15409      oh       1    MUSC   O02Yp       1     -0.95    15.999
   15410      oh       1    MUSC   O02Yq       1     -0.95    15.999
   15411      ob       1    MUSC   O02Yr       1     -1.05    15.999
   15412      ob       1    MUSC   O02Ys       1     -1.05    15.999
   15413      ob       1    MUSC   O02Yt       1     -1.05    15.999
   15414      ob       1    MUSC   O02Yu       1     -1.05    15.999
   15415      ob       1    MUSC   O02Yv       1     -1.05    15.999
   15416      ob       1    MUSC   O02Yw       1     -1.05    15.999
   15417      ob       1    MUSC   O02Yx       1     -1.05    15.999
   15418      ob       1    MUSC   O02Yy       1     -1.05    15.999
   15419      ob       1    MUSC   O02Yz       1     -1.05    15.999
   15420      ob       1    MUSC   O02Z0       1     -1.05    15.999
   15421      ob       1    MUSC   O02Z1       1     -1.05    15.999
   15422      ob       1    MUSC   O02Z2       1     -1.05    15.999
   15423      ob       1    MUSC   O02Z3       1     -1.05    15.999
   15424      ob       1    MUSC   O02Z4       1     -1.05    15.999
   15425      ob       1    MUSC   O02Z5       1     -1.05    15.999
   15426      ob       1    MUSC   O02Z6       1     -1.05    15.999
   15427      ob       1    MUSC   O02Z7       1     -1.05    15.999
   15428      ob       1    MUSC   O02Z8       1     -1.05    15.999
   15429      ob       1    MUSC   O02Z9       1     -1.05    15.999
   15430      ob       1    MUSC   O02ZA       1     -1.05    15.999
   15431      oh       1    MUSC   O02ZB       1     -0.95    15.999
   15432      oh       1    MUSC   O02ZC       1     -0.95    15.999
   15433      oh       1    MUSC   O02ZD       1     -0.95    15.999
   15434      oh       1    MUSC   O02ZE       1     -0.95    15.999
   15435      ob       1    MUSC   O02ZF       1     -1.05    15.999
   15436      ob       1    MUSC   O02ZG       1     -1.05    15.999
   15437      ob       1    MUSC   O02ZH       1     -1.05    15.999
   15438      ob       1    MUSC   O02ZI       1     -1.05    15.999
   15439      ob       1    MUSC   O02ZJ       1     -1.05    15.999
   15440      ob       1    MUSC   O02ZK       1     -1.05    15.999
   15441      ob       1    MUSC   O02ZL       1     -1.05    15.999
   15442      ob       1    MUSC   O02ZM       1     -1.05    15.999
   15443      ob       1    MUSC   O02ZN       1     -1.05    15.999
   15444      ob       1    MUSC   O02ZO       1     -1.05    15.999
   15445      ob       1    MUSC   O02ZP       1     -1.05    15.999
   15446      ob       1    MUSC   O02ZQ       1     -1.05    15.999
   15447      ob       1    MUSC   O02ZR       1     -1.05    15.999
   15448      ob       1    MUSC   O02ZS       1     -1.05    15.999
   15449      ob       1    MUSC   O02ZT       1     -1.05    15.999
   15450      ob       1    MUSC   O02ZU       1     -1.05    15.999
   15451       K       1    MUSC   K009z       1       1.0    39.098
   15452       K       1    MUSC   K00A0       1       1.0    39.098
   15453      ao       1    MUSC   Al0Qb       1     1.575    26.982
   15454      ao       1    MUSC   Al0Qc       1     1.575    26.982
   15455      ao       1    MUSC   Al0Qd       1     1.575    26.982
   15456      ao       1    MUSC   Al0Qe       1     1.575    26.982
   15457      ao       1    MUSC   Al0Qf       1     1.575    26.982
   15458      ao       1    MUSC   Al0Qg       1     1.575    26.982
   15459      ao       1    MUSC   Al0Qh       1     1.575    26.982
   15460      ao       1    MUSC   Al0Qi       1     1.575    26.982
   15461      st       1    MUSC   Si0rB       1       2.1    28.086
   15462      st       1    MUSC   Si0rC       1       2.1    28.086
   15463      st       1    MUSC   Si0rD       1       2.1    28.086
   15464      st       1    MUSC   Si0rE       1       2.1    28.086
   15465      st       1    MUSC   Si0rF       1       2.1    28.086
   15466      st       1    MUSC   Si0rG       1       2.1    28.086
   15467      st       1    MUSC   Si0rH       1       2.1    28.086
   15468      st       1    MUSC   Si0rI       1       2.1    28.086
   15469      st       1    MUSC   Si0rJ       1       2.1    28.086
   15470      st       1    MUSC   Si0rK       1       2.1    28.086
   15471      st       1    MUSC   Si0rL       1       2.1    28.086
   15472      st       1    MUSC   Si0rM       1       2.1    28.086
   15473      st       1    MUSC   Si0rN       1       2.1    28.086
   15474      st       1    MUSC   Si0rO       1       2.1    28.086
   15475      st       1    MUSC   Si0rP       1       2.1    28.086
   15476      st       1    MUSC   Si0rQ       1       2.1    28.086
   15477      ob       1    MUSC   O02ZV       1     -1.05    15.999
   15478      ob       1    MUSC   O02ZW       1     -1.05    15.999
   15479      ob       1    MUSC   O02ZX       1     -1.05    15.999
   15480      ob       1    MUSC   O02ZY       1     -1.05    15.999
   15481      oh       1    MUSC   O02ZZ       1     -0.95    15.999
   15482      oh       1    MUSC   O02Za       1     -0.95    15.999
   15483      oh       1    MUSC   O02Zb       1     -0.95    15.999
   15484      oh       1    MUSC   O02Zc       1     -0.95    15.999
   15485      ob       1    MUSC   O02Zd       1     -1.05    15.999
   15486      ob       1    MUSC   O02Ze       1     -1.05    15.999
   15487      ob       1    MUSC   O02Zf       1     -1.05    15.999
   15488      ob       1    MUSC   O02Zg       1     -1.05    15.999
   15489      ob       1    MUSC   O02Zh       1     -1.05    15.999
   15490      ob       1    MUSC   O02Zi       1     -1.05    15.999
   15491      ob       1    MUSC   O02Zj       1     -1.05    15.999
   15492      ob       1    MUSC   O02Zk       1     -1.05    15.999
   15493      ob       1    MUSC   O02Zl       1     -1.05    15.999
   15494      ob       1    MUSC   O02Zm       1     -1.05    15.999
   15495      ob       1    MUSC   O02Zn       1     -1.05    15.999
   15496      ob       1    MUSC   O02Zo       1     -1.05    15.999
   15497      ob       1    MUSC   O02Zp       1     -1.05    15.999
   15498      ob       1    MUSC   O02Zq       1     -1.05    15.999
   15499      ob       1    MUSC   O02Zr       1     -1.05    15.999
   15500      ob       1    MUSC   O02Zs       1     -1.05    15.999
   15501      ob       1    MUSC   O02Zt       1     -1.05    15.999
   15502      ob       1    MUSC   O02Zu       1     -1.05    15.999
   15503      ob       1    MUSC   O02Zv       1     -1.05    15.999
   15504      ob       1    MUSC   O02Zw       1     -1.05    15.999
   15505      oh       1    MUSC   O02Zx       1     -0.95    15.999
   15506      oh       1    MUSC   O02Zy       1     -0.95    15.999
   15507      oh       1    MUSC   O02Zz       1     -0.95    15.999
   15508      oh       1    MUSC   O02a0       1     -0.95    15.999
   15509      ob       1    MUSC   O02a1       1     -1.05    15.999
   15510      ob       1    MUSC   O02a2       1     -1.05    15.999
   15511      ob       1    MUSC   O02a3       1     -1.05    15.999
   15512      ob       1    MUSC   O02a4       1     -1.05    15.999
   15513      ob       1    MUSC   O02a5       1     -1.05    15.999
   15514      ob       1    MUSC   O02a6       1     -1.05    15.999
   15515      ob       1    MUSC   O02a7       1     -1.05    15.999
   15516      ob       1    MUSC   O02a8       1     -1.05    15.999
   15517      ob       1    MUSC   O02a9       1     -1.05    15.999
   15518      ob       1    MUSC   O02aA       1     -1.05    15.999
   15519      ob       1    MUSC   O02aB       1     -1.05    15.999
   15520      ob       1    MUSC   O02aC       1     -1.05    15.999
   15521      ob       1    MUSC   O02aD       1     -1.05    15.999
   15522      ob       1    MUSC   O02aE       1     -1.05    15.999
   15523      ob       1    MUSC   O02aF       1     -1.05    15.999
   15524      ob       1    MUSC   O02aG       1     -1.05    15.999
   15525       K       1    MUSC   K00A1       1       1.0    39.098
   15526       K       1    MUSC   K00A2       1       1.0    39.098
   15527       K       1    MUSC   K00A3       1       1.0    39.098
   15528       K       1    MUSC   K00A4       1       1.0    39.098
   15529      ao       1    MUSC   Al0Qj       1     1.575    26.982
   15530      ao       1    MUSC   Al0Qk       1     1.575    26.982
   15531      ao       1    MUSC   Al0Ql       1     1.575    26.982
   15532      ao       1    MUSC   Al0Qm       1     1.575    26.982
   15533      ao       1    MUSC   Al0Qn       1     1.575    26.982
   15534      ao       1    MUSC   Al0Qo       1     1.575    26.982
   15535      ao       1    MUSC   Al0Qp       1     1.575    26.982
   15536      ao       1    MUSC   Al0Qq       1     1.575    26.982
   15537      st       1    MUSC   Si0rR       1       2.1    28.086
   15538      st       1    MUSC   Si0rS       1       2.1    28.086
   15539      st       1    MUSC   Si0rT       1       2.1    28.086
   15540      st       1    MUSC   Si0rU       1       2.1    28.086
   15541      st       1    MUSC   Si0rV       1       2.1    28.086
   15542      st       1    MUSC   Si0rW       1       2.1    28.086
   15543      st       1    MUSC   Si0rX       1       2.1    28.086
   15544      st       1    MUSC   Si0rY       1       2.1    28.086
   15545      st       1    MUSC   Si0rZ       1       2.1    28.086
   15546      st       1    MUSC   Si0ra       1       2.1    28.086
   15547      st       1    MUSC   Si0rb       1       2.1    28.086
   15548      st       1    MUSC   Si0rc       1       2.1    28.086
   15549      st       1    MUSC   Si0rd       1       2.1    28.086
   15550      st       1    MUSC   Si0re       1       2.1    28.086
   15551      st       1    MUSC   Si0rf       1       2.1    28.086
   15552      st       1    MUSC   Si0rg       1       2.1    28.086
   15553      ob       1    MUSC   O02aH       1     -1.05    15.999
   15554      ob       1    MUSC   O02aI       1     -1.05    15.999
   15555      ob       1    MUSC   O02aJ       1     -1.05    15.999
   15556      ob       1    MUSC   O02aK       1     -1.05    15.999
   15557      oh       1    MUSC   O02aL       1     -0.95    15.999
   15558      oh       1    MUSC   O02aM       1     -0.95    15.999
   15559      oh       1    MUSC   O02aN       1     -0.95    15.999
   15560      oh       1    MUSC   O02aO       1     -0.95    15.999
   15561      ob       1    MUSC   O02aP       1     -1.05    15.999
   15562      ob       1    MUSC   O02aQ       1     -1.05    15.999
   15563      ob       1    MUSC   O02aR       1     -1.05    15.999
   15564      ob       1    MUSC   O02aS       1     -1.05    15.999
   15565      ob       1    MUSC   O02aT       1     -1.05    15.999
   15566      ob       1    MUSC   O02aU       1     -1.05    15.999
   15567      ob       1    MUSC   O02aV       1     -1.05    15.999
   15568      ob       1    MUSC   O02aW       1     -1.05    15.999
   15569      ob       1    MUSC   O02aX       1     -1.05    15.999
   15570      ob       1    MUSC   O02aY       1     -1.05    15.999
   15571      ob       1    MUSC   O02aZ       1     -1.05    15.999
   15572      ob       1    MUSC   O02aa       1     -1.05    15.999
   15573      ob       1    MUSC   O02ab       1     -1.05    15.999
   15574      ob       1    MUSC   O02ac       1     -1.05    15.999
   15575      ob       1    MUSC   O02ad       1     -1.05    15.999
   15576      ob       1    MUSC   O02ae       1     -1.05    15.999
   15577      ob       1    MUSC   O02af       1     -1.05    15.999
   15578      ob       1    MUSC   O02ag       1     -1.05    15.999
   15579      ob       1    MUSC   O02ah       1     -1.05    15.999
   15580      ob       1    MUSC   O02ai       1     -1.05    15.999
   15581      oh       1    MUSC   O02aj       1     -0.95    15.999
   15582      oh       1    MUSC   O02ak       1     -0.95    15.999
   15583      oh       1    MUSC   O02al       1     -0.95    15.999
   15584      oh       1    MUSC   O02am       1     -0.95    15.999
   15585      ob       1    MUSC   O02an       1     -1.05    15.999
   15586      ob       1    MUSC   O02ao       1     -1.05    15.999
   15587      ob       1    MUSC   O02ap       1     -1.05    15.999
   15588      ob       1    MUSC   O02aq       1     -1.05    15.999
   15589      ob       1    MUSC   O02ar       1     -1.05    15.999
   15590      ob       1    MUSC   O02as       1     -1.05    15.999
   15591      ob       1    MUSC   O02at       1     -1.05    15.999
   15592      ob       1    MUSC   O02au       1     -1.05    15.999
   15593      ob       1    MUSC   O02av       1     -1.05    15.999
   15594      ob       1    MUSC   O02aw       1     -1.05    15.999
   15595      ob       1    MUSC   O02ax       1     -1.05    15.999
   15596      ob       1    MUSC   O02ay       1     -1.05    15.999
   15597      ob       1    MUSC   O02az       1     -1.05    15.999
   15598      ob       1    MUSC   O02b0       1     -1.05    15.999
   15599      ob       1    MUSC   O02b1       1     -1.05    15.999
   15600      ob       1    MUSC   O02b2       1     -1.05    15.999
   15601       K       1    MUSC   K00A5       1       1.0    39.098
   15602       K       1    MUSC   K00A6       1       1.0    39.098
   15603      ao       1    MUSC   Al0Qr       1     1.575    26.982
   15604      ao       1    MUSC   Al0Qs       1     1.575    26.982
   15605      ao       1    MUSC   Al0Qt       1     1.575    26.982
   15606      ao       1    MUSC   Al0Qu       1     1.575    26.982
   15607      ao       1    MUSC   Al0Qv       1     1.575    26.982
   15608      ao       1    MUSC   Al0Qw       1     1.575    26.982
   15609      ao       1    MUSC   Al0Qx       1     1.575    26.982
   15610      ao       1    MUSC   Al0Qy       1     1.575    26.982
   15611      st       1    MUSC   Si0rh       1       2.1    28.086
   15612      st       1    MUSC   Si0ri       1       2.1    28.086
   15613      st       1    MUSC   Si0rj       1       2.1    28.086
   15614      st       1    MUSC   Si0rk       1       2.1    28.086
   15615      st       1    MUSC   Si0rl       1       2.1    28.086
   15616      st       1    MUSC   Si0rm       1       2.1    28.086
   15617      st       1    MUSC   Si0rn       1       2.1    28.086
   15618      st       1    MUSC   Si0ro       1       2.1    28.086
   15619      st       1    MUSC   Si0rp       1       2.1    28.086
   15620      st       1    MUSC   Si0rq       1       2.1    28.086
   15621      st       1    MUSC   Si0rr       1       2.1    28.086
   15622      st       1    MUSC   Si0rs       1       2.1    28.086
   15623      st       1    MUSC   Si0rt       1       2.1    28.086
   15624      st       1    MUSC   Si0ru       1       2.1    28.086
   15625      st       1    MUSC   Si0rv       1       2.1    28.086
   15626      st       1    MUSC   Si0rw       1       2.1    28.086
   15627      ob       1    MUSC   O02b3       1     -1.05    15.999
   15628      ob       1    MUSC   O02b4       1     -1.05    15.999
   15629      ob       1    MUSC   O02b5       1     -1.05    15.999
   15630      ob       1    MUSC   O02b6       1     -1.05    15.999
   15631      oh       1    MUSC   O02b7       1     -0.95    15.999
   15632      oh       1    MUSC   O02b8       1     -0.95    15.999
   15633      oh       1    MUSC   O02b9       1     -0.95    15.999
   15634      oh       1    MUSC   O02bA       1     -0.95    15.999
   15635      ob       1    MUSC   O02bB       1     -1.05    15.999
   15636      ob       1    MUSC   O02bC       1     -1.05    15.999
   15637      ob       1    MUSC   O02bD       1     -1.05    15.999
   15638      ob       1    MUSC   O02bE       1     -1.05    15.999
   15639      ob       1    MUSC   O02bF       1     -1.05    15.999
   15640      ob       1    MUSC   O02bG       1     -1.05    15.999
   15641      ob       1    MUSC   O02bH       1     -1.05    15.999
   15642      ob       1    MUSC   O02bI       1     -1.05    15.999
   15643      ob       1    MUSC   O02bJ       1     -1.05    15.999
   15644      ob       1    MUSC   O02bK       1     -1.05    15.999
   15645      ob       1    MUSC   O02bL       1     -1.05    15.999
   15646      ob       1    MUSC   O02bM       1     -1.05    15.999
   15647      ob       1    MUSC   O02bN       1     -1.05    15.999
   15648      ob       1    MUSC   O02bO       1     -1.05    15.999
   15649      ob       1    MUSC   O02bP       1     -1.05    15.999
   15650      ob       1    MUSC   O02bQ       1     -1.05    15.999
   15651      ob       1    MUSC   O02bR       1     -1.05    15.999
   15652      ob       1    MUSC   O02bS       1     -1.05    15.999
   15653      ob       1    MUSC   O02bT       1     -1.05    15.999
   15654      ob       1    MUSC   O02bU       1     -1.05    15.999
   15655      oh       1    MUSC   O02bV       1     -0.95    15.999
   15656      oh       1    MUSC   O02bW       1     -0.95    15.999
   15657      oh       1    MUSC   O02bX       1     -0.95    15.999
   15658      oh       1    MUSC   O02bY       1     -0.95    15.999
   15659      ob       1    MUSC   O02bZ       1     -1.05    15.999
   15660      ob       1    MUSC   O02ba       1     -1.05    15.999
   15661      ob       1    MUSC   O02bb       1     -1.05    15.999
   15662      ob       1    MUSC   O02bc       1     -1.05    15.999
   15663      ob       1    MUSC   O02bd       1     -1.05    15.999
   15664      ob       1    MUSC   O02be       1     -1.05    15.999
   15665      ob       1    MUSC   O02bf       1     -1.05    15.999
   15666      ob       1    MUSC   O02bg       1     -1.05    15.999
   15667      ob       1    MUSC   O02bh       1     -1.05    15.999
   15668      ob       1    MUSC   O02bi       1     -1.05    15.999
   15669      ob       1    MUSC   O02bj       1     -1.05    15.999
   15670      ob       1    MUSC   O02bk       1     -1.05    15.999
   15671      ob       1    MUSC   O02bl       1     -1.05    15.999
   15672      ob       1    MUSC   O02bm       1     -1.05    15.999
   15673      ob       1    MUSC   O02bn       1     -1.05    15.999
   15674      ob       1    MUSC   O02bo       1     -1.05    15.999
   15675       K       1    MUSC   K00A7       1       1.0    39.098
   15676       K       1    MUSC   K00A8       1       1.0    39.098
   15677       K       1    MUSC   K00A9       1       1.0    39.098
   15678       K       1    MUSC   K00AA       1       1.0    39.098
   15679      ao       1    MUSC   Al0Qz       1     1.575    26.982
   15680      ao       1    MUSC   Al0R0       1     1.575    26.982
   15681      ao       1    MUSC   Al0R1       1     1.575    26.982
   15682      ao       1    MUSC   Al0R2       1     1.575    26.982
   15683      ao       1    MUSC   Al0R3       1     1.575    26.982
   15684      ao       1    MUSC   Al0R4       1     1.575    26.982
   15685      ao       1    MUSC   Al0R5       1     1.575    26.982
   15686      ao       1    MUSC   Al0R6       1     1.575    26.982
   15687      st       1    MUSC   Si0rx       1       2.1    28.086
   15688      st       1    MUSC   Si0ry       1       2.1    28.086
   15689      st       1    MUSC   Si0rz       1       2.1    28.086
   15690      st       1    MUSC   Si0s0       1       2.1    28.086
   15691      st       1    MUSC   Si0s1       1       2.1    28.086
   15692      st       1    MUSC   Si0s2       1       2.1    28.086
   15693      st       1    MUSC   Si0s3       1       2.1    28.086
   15694      st       1    MUSC   Si0s4       1       2.1    28.086
   15695      st       1    MUSC   Si0s5       1       2.1    28.086
   15696      st       1    MUSC   Si0s6       1       2.1    28.086
   15697      st       1    MUSC   Si0s7       1       2.1    28.086
   15698      st       1    MUSC   Si0s8       1       2.1    28.086
   15699      st       1    MUSC   Si0s9       1       2.1    28.086
   15700      st       1    MUSC   Si0sA       1       2.1    28.086
   15701      st       1    MUSC   Si0sB       1       2.1    28.086
   15702      st       1    MUSC   Si0sC       1       2.1    28.086
   15703      ob       1    MUSC   O02bp       1     -1.05    15.999
   15704      ob       1    MUSC   O02bq       1     -1.05    15.999
   15705      ob       1    MUSC   O02br       1     -1.05    15.999
   15706      ob       1    MUSC   O02bs       1     -1.05    15.999
   15707      oh       1    MUSC   O02bt       1     -0.95    15.999
   15708      oh       1    MUSC   O02bu       1     -0.95    15.999
   15709      oh       1    MUSC   O02bv       1     -0.95    15.999
   15710      oh       1    MUSC   O02bw       1     -0.95    15.999
   15711      ob       1    MUSC   O02bx       1     -1.05    15.999
   15712      ob       1    MUSC   O02by       1     -1.05    15.999
   15713      ob       1    MUSC   O02bz       1     -1.05    15.999
   15714      ob       1    MUSC   O02c0       1     -1.05    15.999
   15715      ob       1    MUSC   O02c1       1     -1.05    15.999
   15716      ob       1    MUSC   O02c2       1     -1.05    15.999
   15717      ob       1    MUSC   O02c3       1     -1.05    15.999
   15718      ob       1    MUSC   O02c4       1     -1.05    15.999
   15719      ob       1    MUSC   O02c5       1     -1.05    15.999
   15720      ob       1    MUSC   O02c6       1     -1.05    15.999
   15721      ob       1    MUSC   O02c7       1     -1.05    15.999
   15722      ob       1    MUSC   O02c8       1     -1.05    15.999
   15723      ob       1    MUSC   O02c9       1     -1.05    15.999
   15724      ob       1    MUSC   O02cA       1     -1.05    15.999
   15725      ob       1    MUSC   O02cB       1     -1.05    15.999
   15726      ob       1    MUSC   O02cC       1     -1.05    15.999
   15727      ob       1    MUSC   O02cD       1     -1.05    15.999
   15728      ob       1    MUSC   O02cE       1     -1.05    15.999
   15729      ob       1    MUSC   O02cF       1     -1.05    15.999
   15730      ob       1    MUSC   O02cG       1     -1.05    15.999
   15731      oh       1    MUSC   O02cH       1     -0.95    15.999
   15732      oh       1    MUSC   O02cI       1     -0.95    15.999
   15733      oh       1    MUSC   O02cJ       1     -0.95    15.999
   15734      oh       1    MUSC   O02cK       1     -0.95    15.999
   15735      ob       1    MUSC   O02cL       1     -1.05    15.999
   15736      ob       1    MUSC   O02cM       1     -1.05    15.999
   15737      ob       1    MUSC   O02cN       1     -1.05    15.999
   15738      ob       1    MUSC   O02cO       1     -1.05    15.999
   15739      ob       1    MUSC   O02cP       1     -1.05    15.999
   15740      ob       1    MUSC   O02cQ       1     -1.05    15.999
   15741      ob       1    MUSC   O02cR       1     -1.05    15.999
   15742      ob       1    MUSC   O02cS       1     -1.05    15.999
   15743      ob       1    MUSC   O02cT       1     -1.05    15.999
   15744      ob       1    MUSC   O02cU       1     -1.05    15.999
   15745      ob       1    MUSC   O02cV       1     -1.05    15.999
   15746      ob       1    MUSC   O02cW       1     -1.05    15.999
   15747      ob       1    MUSC   O02cX       1     -1.05    15.999
   15748      ob       1    MUSC   O02cY       1     -1.05    15.999
   15749      ob       1    MUSC   O02cZ       1     -1.05    15.999
   15750      ob       1    MUSC   O02ca       1     -1.05    15.999
   15751       K       1    MUSC   K00AB       1       1.0    39.098
   15752       K       1    MUSC   K00AC       1       1.0    39.098
   15753      ao       1    MUSC   Al0R7       1     1.575    26.982
   15754      ao       1    MUSC   Al0R8       1     1.575    26.982
   15755      ao       1    MUSC   Al0R9       1     1.575    26.982
   15756      ao       1    MUSC   Al0RA       1     1.575    26.982
   15757      ao       1    MUSC   Al0RB       1     1.575    26.982
   15758      ao       1    MUSC   Al0RC       1     1.575    26.982
   15759      ao       1    MUSC   Al0RD       1     1.575    26.982
   15760      ao       1    MUSC   Al0RE       1     1.575    26.982
   15761      st       1    MUSC   Si0sD       1       2.1    28.086
   15762      st       1    MUSC   Si0sE       1       2.1    28.086
   15763      st       1    MUSC   Si0sF       1       2.1    28.086
   15764      st       1    MUSC   Si0sG       1       2.1    28.086
   15765      st       1    MUSC   Si0sH       1       2.1    28.086
   15766      st       1    MUSC   Si0sI       1       2.1    28.086
   15767      st       1    MUSC   Si0sJ       1       2.1    28.086
   15768      st       1    MUSC   Si0sK       1       2.1    28.086
   15769      st       1    MUSC   Si0sL       1       2.1    28.086
   15770      st       1    MUSC   Si0sM       1       2.1    28.086
   15771      st       1    MUSC   Si0sN       1       2.1    28.086
   15772      st       1    MUSC   Si0sO       1       2.1    28.086
   15773      st       1    MUSC   Si0sP       1       2.1    28.086
   15774      st       1    MUSC   Si0sQ       1       2.1    28.086
   15775      st       1    MUSC   Si0sR       1       2.1    28.086
   15776      st       1    MUSC   Si0sS       1       2.1    28.086
   15777      ob       1    MUSC   O02cb       1     -1.05    15.999
   15778      ob       1    MUSC   O02cc       1     -1.05    15.999
   15779      ob       1    MUSC   O02cd       1     -1.05    15.999
   15780      ob       1    MUSC   O02ce       1     -1.05    15.999
   15781      oh       1    MUSC   O02cf       1     -0.95    15.999
   15782      oh       1    MUSC   O02cg       1     -0.95    15.999
   15783      oh       1    MUSC   O02ch       1     -0.95    15.999
   15784      oh       1    MUSC   O02ci       1     -0.95    15.999
   15785      ob       1    MUSC   O02cj       1     -1.05    15.999
   15786      ob       1    MUSC   O02ck       1     -1.05    15.999
   15787      ob       1    MUSC   O02cl       1     -1.05    15.999
   15788      ob       1    MUSC   O02cm       1     -1.05    15.999
   15789      ob       1    MUSC   O02cn       1     -1.05    15.999
   15790      ob       1    MUSC   O02co       1     -1.05    15.999
   15791      ob       1    MUSC   O02cp       1     -1.05    15.999
   15792      ob       1    MUSC   O02cq       1     -1.05    15.999
   15793      ob       1    MUSC   O02cr       1     -1.05    15.999
   15794      ob       1    MUSC   O02cs       1     -1.05    15.999
   15795      ob       1    MUSC   O02ct       1     -1.05    15.999
   15796      ob       1    MUSC   O02cu       1     -1.05    15.999
   15797      ob       1    MUSC   O02cv       1     -1.05    15.999
   15798      ob       1    MUSC   O02cw       1     -1.05    15.999
   15799      ob       1    MUSC   O02cx       1     -1.05    15.999
   15800      ob       1    MUSC   O02cy       1     -1.05    15.999
   15801      ob       1    MUSC   O02cz       1     -1.05    15.999
   15802      ob       1    MUSC   O02d0       1     -1.05    15.999
   15803      ob       1    MUSC   O02d1       1     -1.05    15.999
   15804      ob       1    MUSC   O02d2       1     -1.05    15.999
   15805      oh       1    MUSC   O02d3       1     -0.95    15.999
   15806      oh       1    MUSC   O02d4       1     -0.95    15.999
   15807      oh       1    MUSC   O02d5       1     -0.95    15.999
   15808      oh       1    MUSC   O02d6       1     -0.95    15.999
   15809      ob       1    MUSC   O02d7       1     -1.05    15.999
   15810      ob       1    MUSC   O02d8       1     -1.05    15.999
   15811      ob       1    MUSC   O02d9       1     -1.05    15.999
   15812      ob       1    MUSC   O02dA       1     -1.05    15.999
   15813      ob       1    MUSC   O02dB       1     -1.05    15.999
   15814      ob       1    MUSC   O02dC       1     -1.05    15.999
   15815      ob       1    MUSC   O02dD       1     -1.05    15.999
   15816      ob       1    MUSC   O02dE       1     -1.05    15.999
   15817      ob       1    MUSC   O02dF       1     -1.05    15.999
   15818      ob       1    MUSC   O02dG       1     -1.05    15.999
   15819      ob       1    MUSC   O02dH       1     -1.05    15.999
   15820      ob       1    MUSC   O02dI       1     -1.05    15.999
   15821      ob       1    MUSC   O02dJ       1     -1.05    15.999
   15822      ob       1    MUSC   O02dK       1     -1.05    15.999
   15823      ob       1    MUSC   O02dL       1     -1.05    15.999
   15824      ob       1    MUSC   O02dM       1     -1.05    15.999
   15825       K       1    MUSC   K00AD       1       1.0    39.098
   15826       K       1    MUSC   K00AE       1       1.0    39.098
   15827       K       1    MUSC   K00AF       1       1.0    39.098
   15828       K       1    MUSC   K00AG       1       1.0    39.098
   15829      ao       1    MUSC   Al0RF       1     1.575    26.982
   15830      ao       1    MUSC   Al0RG       1     1.575    26.982
   15831      ao       1    MUSC   Al0RH       1     1.575    26.982
   15832      ao       1    MUSC   Al0RI       1     1.575    26.982
   15833      ao       1    MUSC   Al0RJ       1     1.575    26.982
   15834      ao       1    MUSC   Al0RK       1     1.575    26.982
   15835      ao       1    MUSC   Al0RL       1     1.575    26.982
   15836      ao       1    MUSC   Al0RM       1     1.575    26.982
   15837      st       1    MUSC   Si0sT       1       2.1    28.086
   15838      st       1    MUSC   Si0sU       1       2.1    28.086
   15839      st       1    MUSC   Si0sV       1       2.1    28.086
   15840      st       1    MUSC   Si0sW       1       2.1    28.086
   15841      st       1    MUSC   Si0sX       1       2.1    28.086
   15842      st       1    MUSC   Si0sY       1       2.1    28.086
   15843      st       1    MUSC   Si0sZ       1       2.1    28.086
   15844      st       1    MUSC   Si0sa       1       2.1    28.086
   15845      st       1    MUSC   Si0sb       1       2.1    28.086
   15846      st       1    MUSC   Si0sc       1       2.1    28.086
   15847      st       1    MUSC   Si0sd       1       2.1    28.086
   15848      st       1    MUSC   Si0se       1       2.1    28.086
   15849      st       1    MUSC   Si0sf       1       2.1    28.086
   15850      st       1    MUSC   Si0sg       1       2.1    28.086
   15851      st       1    MUSC   Si0sh       1       2.1    28.086
   15852      st       1    MUSC   Si0si       1       2.1    28.086
   15853      ob       1    MUSC   O02dN       1     -1.05    15.999
   15854      ob       1    MUSC   O02dO       1     -1.05    15.999
   15855      ob       1    MUSC   O02dP       1     -1.05    15.999
   15856      ob       1    MUSC   O02dQ       1     -1.05    15.999
   15857      oh       1    MUSC   O02dR       1     -0.95    15.999
   15858      oh       1    MUSC   O02dS       1     -0.95    15.999
   15859      oh       1    MUSC   O02dT       1     -0.95    15.999
   15860      oh       1    MUSC   O02dU       1     -0.95    15.999
   15861      ob       1    MUSC   O02dV       1     -1.05    15.999
   15862      ob       1    MUSC   O02dW       1     -1.05    15.999
   15863      ob       1    MUSC   O02dX       1     -1.05    15.999
   15864      ob       1    MUSC   O02dY       1     -1.05    15.999
   15865      ob       1    MUSC   O02dZ       1     -1.05    15.999
   15866      ob       1    MUSC   O02da       1     -1.05    15.999
   15867      ob       1    MUSC   O02db       1     -1.05    15.999
   15868      ob       1    MUSC   O02dc       1     -1.05    15.999
   15869      ob       1    MUSC   O02dd       1     -1.05    15.999
   15870      ob       1    MUSC   O02de       1     -1.05    15.999
   15871      ob       1    MUSC   O02df       1     -1.05    15.999
   15872      ob       1    MUSC   O02dg       1     -1.05    15.999
   15873      ob       1    MUSC   O02dh       1     -1.05    15.999
   15874      ob       1    MUSC   O02di       1     -1.05    15.999
   15875      ob       1    MUSC   O02dj       1     -1.05    15.999
   15876      ob       1    MUSC   O02dk       1     -1.05    15.999
   15877      ob       1    MUSC   O02dl       1     -1.05    15.999
   15878      ob       1    MUSC   O02dm       1     -1.05    15.999
   15879      ob       1    MUSC   O02dn       1     -1.05    15.999
   15880      ob       1    MUSC   O02do       1     -1.05    15.999
   15881      oh       1    MUSC   O02dp       1     -0.95    15.999
   15882      oh       1    MUSC   O02dq       1     -0.95    15.999
   15883      oh       1    MUSC   O02dr       1     -0.95    15.999
   15884      oh       1    MUSC   O02ds       1     -0.95    15.999
   15885      ob       1    MUSC   O02dt       1     -1.05    15.999
   15886      ob       1    MUSC   O02du       1     -1.05    15.999
   15887      ob       1    MUSC   O02dv       1     -1.05    15.999
   15888      ob       1    MUSC   O02dw       1     -1.05    15.999
   15889      ob       1    MUSC   O02dx       1     -1.05    15.999
   15890      ob       1    MUSC   O02dy       1     -1.05    15.999
   15891      ob       1    MUSC   O02dz       1     -1.05    15.999
   15892      ob       1    MUSC   O02e0       1     -1.05    15.999
   15893      ob       1    MUSC   O02e1       1     -1.05    15.999
   15894      ob       1    MUSC   O02e2       1     -1.05    15.999
   15895      ob       1    MUSC   O02e3       1     -1.05    15.999
   15896      ob       1    MUSC   O02e4       1     -1.05    15.999
   15897      ob       1    MUSC   O02e5       1     -1.05    15.999
   15898      ob       1    MUSC   O02e6       1     -1.05    15.999
   15899      ob       1    MUSC   O02e7       1     -1.05    15.999
   15900      ob       1    MUSC   O02e8       1     -1.05    15.999
   15901       K       1    MUSC   K00AH       1       1.0    39.098
   15902       K       1    MUSC   K00AI       1       1.0    39.098
   15903      ao       1    MUSC   Al0RN       1     1.575    26.982
   15904      ao       1    MUSC   Al0RO       1     1.575    26.982
   15905      ao       1    MUSC   Al0RP       1     1.575    26.982
   15906      ao       1    MUSC   Al0RQ       1     1.575    26.982
   15907      ao       1    MUSC   Al0RR       1     1.575    26.982
   15908      ao       1    MUSC   Al0RS       1     1.575    26.982
   15909      ao       1    MUSC   Al0RT       1     1.575    26.982
   15910      ao       1    MUSC   Al0RU       1     1.575    26.982
   15911      st       1    MUSC   Si0sj       1       2.1    28.086
   15912      st       1    MUSC   Si0sk       1       2.1    28.086
   15913      st       1    MUSC   Si0sl       1       2.1    28.086
   15914      st       1    MUSC   Si0sm       1       2.1    28.086
   15915      st       1    MUSC   Si0sn       1       2.1    28.086
   15916      st       1    MUSC   Si0so       1       2.1    28.086
   15917      st       1    MUSC   Si0sp       1       2.1    28.086
   15918      st       1    MUSC   Si0sq       1       2.1    28.086
   15919      st       1    MUSC   Si0sr       1       2.1    28.086
   15920      st       1    MUSC   Si0ss       1       2.1    28.086
   15921      st       1    MUSC   Si0st       1       2.1    28.086
   15922      st       1    MUSC   Si0su       1       2.1    28.086
   15923      st       1    MUSC   Si0sv       1       2.1    28.086
   15924      st       1    MUSC   Si0sw       1       2.1    28.086
   15925      st       1    MUSC   Si0sx       1       2.1    28.086
   15926      st       1    MUSC   Si0sy       1       2.1    28.086
   15927      ob       1    MUSC   O02e9       1     -1.05    15.999
   15928      ob       1    MUSC   O02eA       1     -1.05    15.999
   15929      ob       1    MUSC   O02eB       1     -1.05    15.999
   15930      ob       1    MUSC   O02eC       1     -1.05    15.999
   15931      oh       1    MUSC   O02eD       1     -0.95    15.999
   15932      oh       1    MUSC   O02eE       1     -0.95    15.999
   15933      oh       1    MUSC   O02eF       1     -0.95    15.999
   15934      oh       1    MUSC   O02eG       1     -0.95    15.999
   15935      ob       1    MUSC   O02eH       1     -1.05    15.999
   15936      ob       1    MUSC   O02eI       1     -1.05    15.999
   15937      ob       1    MUSC   O02eJ       1     -1.05    15.999
   15938      ob       1    MUSC   O02eK       1     -1.05    15.999
   15939      ob       1    MUSC   O02eL       1     -1.05    15.999
   15940      ob       1    MUSC   O02eM       1     -1.05    15.999
   15941      ob       1    MUSC   O02eN       1     -1.05    15.999
   15942      ob       1    MUSC   O02eO       1     -1.05    15.999
   15943      ob       1    MUSC   O02eP       1     -1.05    15.999
   15944      ob       1    MUSC   O02eQ       1     -1.05    15.999
   15945      ob       1    MUSC   O02eR       1     -1.05    15.999
   15946      ob       1    MUSC   O02eS       1     -1.05    15.999
   15947      ob       1    MUSC   O02eT       1     -1.05    15.999
   15948      ob       1    MUSC   O02eU       1     -1.05    15.999
   15949      ob       1    MUSC   O02eV       1     -1.05    15.999
   15950      ob       1    MUSC   O02eW       1     -1.05    15.999
   15951      ob       1    MUSC   O02eX       1     -1.05    15.999
   15952      ob       1    MUSC   O02eY       1     -1.05    15.999
   15953      ob       1    MUSC   O02eZ       1     -1.05    15.999
   15954      ob       1    MUSC   O02ea       1     -1.05    15.999
   15955      oh       1    MUSC   O02eb       1     -0.95    15.999
   15956      oh       1    MUSC   O02ec       1     -0.95    15.999
   15957      oh       1    MUSC   O02ed       1     -0.95    15.999
   15958      oh       1    MUSC   O02ee       1     -0.95    15.999
   15959      ob       1    MUSC   O02ef       1     -1.05    15.999
   15960      ob       1    MUSC   O02eg       1     -1.05    15.999
   15961      ob       1    MUSC   O02eh       1     -1.05    15.999
   15962      ob       1    MUSC   O02ei       1     -1.05    15.999
   15963      ob       1    MUSC   O02ej       1     -1.05    15.999
   15964      ob       1    MUSC   O02ek       1     -1.05    15.999
   15965      ob       1    MUSC   O02el       1     -1.05    15.999
   15966      ob       1    MUSC   O02em       1     -1.05    15.999
   15967      ob       1    MUSC   O02en       1     -1.05    15.999
   15968      ob       1    MUSC   O02eo       1     -1.05    15.999
   15969      ob       1    MUSC   O02ep       1     -1.05    15.999
   15970      ob       1    MUSC   O02eq       1     -1.05    15.999
   15971      ob       1    MUSC   O02er       1     -1.05    15.999
   15972      ob       1    MUSC   O02es       1     -1.05    15.999
   15973      ob       1    MUSC   O02et       1     -1.05    15.999
   15974      ob       1    MUSC   O02eu       1     -1.05    15.999
   15975       K       1    MUSC   K00AJ       1       1.0    39.098
   15976       K       1    MUSC   K00AK       1       1.0    39.098
   15977       K       1    MUSC   K00AL       1       1.0    39.098
   15978       K       1    MUSC   K00AM       1       1.0    39.098
   15979      ao       1    MUSC   Al0RV       1     1.575    26.982
   15980      ao       1    MUSC   Al0RW       1     1.575    26.982
   15981      ao       1    MUSC   Al0RX       1     1.575    26.982
   15982      ao       1    MUSC   Al0RY       1     1.575    26.982
   15983      ao       1    MUSC   Al0RZ       1     1.575    26.982
   15984      ao       1    MUSC   Al0Ra       1     1.575    26.982
   15985      ao       1    MUSC   Al0Rb       1     1.575    26.982
   15986      ao       1    MUSC   Al0Rc       1     1.575    26.982
   15987      st       1    MUSC   Si0sz       1       2.1    28.086
   15988      st       1    MUSC   Si0t0       1       2.1    28.086
   15989      st       1    MUSC   Si0t1       1       2.1    28.086
   15990      st       1    MUSC   Si0t2       1       2.1    28.086
   15991      st       1    MUSC   Si0t3       1       2.1    28.086
   15992      st       1    MUSC   Si0t4       1       2.1    28.086
   15993      st       1    MUSC   Si0t5       1       2.1    28.086
   15994      st       1    MUSC   Si0t6       1       2.1    28.086
   15995      st       1    MUSC   Si0t7       1       2.1    28.086
   15996      st       1    MUSC   Si0t8       1       2.1    28.086
   15997      st       1    MUSC   Si0t9       1       2.1    28.086
   15998      st       1    MUSC   Si0tA       1       2.1    28.086
   15999      st       1    MUSC   Si0tB       1       2.1    28.086
   16000      st       1    MUSC   Si0tC       1       2.1    28.086
   16001      st       1    MUSC   Si0tD       1       2.1    28.086
   16002      st       1    MUSC   Si0tE       1       2.1    28.086
   16003      ob       1    MUSC   O02ev       1     -1.05    15.999
   16004      ob       1    MUSC   O02ew       1     -1.05    15.999
   16005      ob       1    MUSC   O02ex       1     -1.05    15.999
   16006      ob       1    MUSC   O02ey       1     -1.05    15.999
   16007      oh       1    MUSC   O02ez       1     -0.95    15.999
   16008      oh       1    MUSC   O02f0       1     -0.95    15.999
   16009      oh       1    MUSC   O02f1       1     -0.95    15.999
   16010      oh       1    MUSC   O02f2       1     -0.95    15.999
   16011      ob       1    MUSC   O02f3       1     -1.05    15.999
   16012      ob       1    MUSC   O02f4       1     -1.05    15.999
   16013      ob       1    MUSC   O02f5       1     -1.05    15.999
   16014      ob       1    MUSC   O02f6       1     -1.05    15.999
   16015      ob       1    MUSC   O02f7       1     -1.05    15.999
   16016      ob       1    MUSC   O02f8       1     -1.05    15.999
   16017      ob       1    MUSC   O02f9       1     -1.05    15.999
   16018      ob       1    MUSC   O02fA       1     -1.05    15.999
   16019      ob       1    MUSC   O02fB       1     -1.05    15.999
   16020      ob       1    MUSC   O02fC       1     -1.05    15.999
   16021      ob       1    MUSC   O02fD       1     -1.05    15.999
   16022      ob       1    MUSC   O02fE       1     -1.05    15.999
   16023      ob       1    MUSC   O02fF       1     -1.05    15.999
   16024      ob       1    MUSC   O02fG       1     -1.05    15.999
   16025      ob       1    MUSC   O02fH       1     -1.05    15.999
   16026      ob       1    MUSC   O02fI       1     -1.05    15.999
   16027      ob       1    MUSC   O02fJ       1     -1.05    15.999
   16028      ob       1    MUSC   O02fK       1     -1.05    15.999
   16029      ob       1    MUSC   O02fL       1     -1.05    15.999
   16030      ob       1    MUSC   O02fM       1     -1.05    15.999
   16031      oh       1    MUSC   O02fN       1     -0.95    15.999
   16032      oh       1    MUSC   O02fO       1     -0.95    15.999
   16033      oh       1    MUSC   O02fP       1     -0.95    15.999
   16034      oh       1    MUSC   O02fQ       1     -0.95    15.999
   16035      ob       1    MUSC   O02fR       1     -1.05    15.999
   16036      ob       1    MUSC   O02fS       1     -1.05    15.999
   16037      ob       1    MUSC   O02fT       1     -1.05    15.999
   16038      ob       1    MUSC   O02fU       1     -1.05    15.999
   16039      ob       1    MUSC   O02fV       1     -1.05    15.999
   16040      ob       1    MUSC   O02fW       1     -1.05    15.999
   16041      ob       1    MUSC   O02fX       1     -1.05    15.999
   16042      ob       1    MUSC   O02fY       1     -1.05    15.999
   16043      ob       1    MUSC   O02fZ       1     -1.05    15.999
   16044      ob       1    MUSC   O02fa       1     -1.05    15.999
   16045      ob       1    MUSC   O02fb       1     -1.05    15.999
   16046      ob       1    MUSC   O02fc       1     -1.05    15.999
   16047      ob       1    MUSC   O02fd       1     -1.05    15.999
   16048      ob       1    MUSC   O02fe       1     -1.05    15.999
   16049      ob       1    MUSC   O02ff       1     -1.05    15.999
   16050      ob       1    MUSC   O02fg       1     -1.05    15.999
   16051       K       1    MUSC   K00AN       1       1.0    39.098
   16052       K       1    MUSC   K00AO       1       1.0    39.098
   16053      ao       1    MUSC   Al0Rd       1     1.575    26.982
   16054      ao       1    MUSC   Al0Re       1     1.575    26.982
   16055      ao       1    MUSC   Al0Rf       1     1.575    26.982
   16056      ao       1    MUSC   Al0Rg       1     1.575    26.982
   16057      ao       1    MUSC   Al0Rh       1     1.575    26.982
   16058      ao       1    MUSC   Al0Ri       1     1.575    26.982
   16059      ao       1    MUSC   Al0Rj       1     1.575    26.982
   16060      ao       1    MUSC   Al0Rk       1     1.575    26.982
   16061      st       1    MUSC   Si0tF       1       2.1    28.086
   16062      st       1    MUSC   Si0tG       1       2.1    28.086
   16063      st       1    MUSC   Si0tH       1       2.1    28.086
   16064      st       1    MUSC   Si0tI       1       2.1    28.086
   16065      st       1    MUSC   Si0tJ       1       2.1    28.086
   16066      st       1    MUSC   Si0tK       1       2.1    28.086
   16067      st       1    MUSC   Si0tL       1       2.1    28.086
   16068      st       1    MUSC   Si0tM       1       2.1    28.086
   16069      st       1    MUSC   Si0tN       1       2.1    28.086
   16070      st       1    MUSC   Si0tO       1       2.1    28.086
   16071      st       1    MUSC   Si0tP       1       2.1    28.086
   16072      st       1    MUSC   Si0tQ       1       2.1    28.086
   16073      st       1    MUSC   Si0tR       1       2.1    28.086
   16074      st       1    MUSC   Si0tS       1       2.1    28.086
   16075      st       1    MUSC   Si0tT       1       2.1    28.086
   16076      st       1    MUSC   Si0tU       1       2.1    28.086
   16077      ob       1    MUSC   O02fh       1     -1.05    15.999
   16078      ob       1    MUSC   O02fi       1     -1.05    15.999
   16079      ob       1    MUSC   O02fj       1     -1.05    15.999
   16080      ob       1    MUSC   O02fk       1     -1.05    15.999
   16081      oh       1    MUSC   O02fl       1     -0.95    15.999
   16082      oh       1    MUSC   O02fm       1     -0.95    15.999
   16083      oh       1    MUSC   O02fn       1     -0.95    15.999
   16084      oh       1    MUSC   O02fo       1     -0.95    15.999
   16085      ob       1    MUSC   O02fp       1     -1.05    15.999
   16086      ob       1    MUSC   O02fq       1     -1.05    15.999
   16087      ob       1    MUSC   O02fr       1     -1.05    15.999
   16088      ob       1    MUSC   O02fs       1     -1.05    15.999
   16089      ob       1    MUSC   O02ft       1     -1.05    15.999
   16090      ob       1    MUSC   O02fu       1     -1.05    15.999
   16091      ob       1    MUSC   O02fv       1     -1.05    15.999
   16092      ob       1    MUSC   O02fw       1     -1.05    15.999
   16093      ob       1    MUSC   O02fx       1     -1.05    15.999
   16094      ob       1    MUSC   O02fy       1     -1.05    15.999
   16095      ob       1    MUSC   O02fz       1     -1.05    15.999
   16096      ob       1    MUSC   O02g0       1     -1.05    15.999
   16097      ob       1    MUSC   O02g1       1     -1.05    15.999
   16098      ob       1    MUSC   O02g2       1     -1.05    15.999
   16099      ob       1    MUSC   O02g3       1     -1.05    15.999
   16100      ob       1    MUSC   O02g4       1     -1.05    15.999
   16101      ob       1    MUSC   O02g5       1     -1.05    15.999
   16102      ob       1    MUSC   O02g6       1     -1.05    15.999
   16103      ob       1    MUSC   O02g7       1     -1.05    15.999
   16104      ob       1    MUSC   O02g8       1     -1.05    15.999
   16105      oh       1    MUSC   O02g9       1     -0.95    15.999
   16106      oh       1    MUSC   O02gA       1     -0.95    15.999
   16107      oh       1    MUSC   O02gB       1     -0.95    15.999
   16108      oh       1    MUSC   O02gC       1     -0.95    15.999
   16109      ob       1    MUSC   O02gD       1     -1.05    15.999
   16110      ob       1    MUSC   O02gE       1     -1.05    15.999
   16111      ob       1    MUSC   O02gF       1     -1.05    15.999
   16112      ob       1    MUSC   O02gG       1     -1.05    15.999
   16113      ob       1    MUSC   O02gH       1     -1.05    15.999
   16114      ob       1    MUSC   O02gI       1     -1.05    15.999
   16115      ob       1    MUSC   O02gJ       1     -1.05    15.999
   16116      ob       1    MUSC   O02gK       1     -1.05    15.999
   16117      ob       1    MUSC   O02gL       1     -1.05    15.999
   16118      ob       1    MUSC   O02gM       1     -1.05    15.999
   16119      ob       1    MUSC   O02gN       1     -1.05    15.999
   16120      ob       1    MUSC   O02gO       1     -1.05    15.999
   16121      ob       1    MUSC   O02gP       1     -1.05    15.999
   16122      ob       1    MUSC   O02gQ       1     -1.05    15.999
   16123      ob       1    MUSC   O02gR       1     -1.05    15.999
   16124      ob       1    MUSC   O02gS       1     -1.05    15.999
   16125       K       1    MUSC   K00AP       1       1.0    39.098
   16126       K       1    MUSC   K00AQ       1       1.0    39.098
   16127       K       1    MUSC   K00AR       1       1.0    39.098
   16128       K       1    MUSC   K00AS       1       1.0    39.098
   16129      ao       1    MUSC   Al0Rl       1     1.575    26.982
   16130      ao       1    MUSC   Al0Rm       1     1.575    26.982
   16131      ao       1    MUSC   Al0Rn       1     1.575    26.982
   16132      ao       1    MUSC   Al0Ro       1     1.575    26.982
   16133      ao       1    MUSC   Al0Rp       1     1.575    26.982
   16134      ao       1    MUSC   Al0Rq       1     1.575    26.982
   16135      ao       1    MUSC   Al0Rr       1     1.575    26.982
   16136      ao       1    MUSC   Al0Rs       1     1.575    26.982
   16137      st       1    MUSC   Si0tV       1       2.1    28.086
   16138      st       1    MUSC   Si0tW       1       2.1    28.086
   16139      st       1    MUSC   Si0tX       1       2.1    28.086
   16140      st       1    MUSC   Si0tY       1       2.1    28.086
   16141      st       1    MUSC   Si0tZ       1       2.1    28.086
   16142      st       1    MUSC   Si0ta       1       2.1    28.086
   16143      st       1    MUSC   Si0tb       1       2.1    28.086
   16144      st       1    MUSC   Si0tc       1       2.1    28.086
   16145      st       1    MUSC   Si0td       1       2.1    28.086
   16146      st       1    MUSC   Si0te       1       2.1    28.086
   16147      st       1    MUSC   Si0tf       1       2.1    28.086
   16148      st       1    MUSC   Si0tg       1       2.1    28.086
   16149      st       1    MUSC   Si0th       1       2.1    28.086
   16150      st       1    MUSC   Si0ti       1       2.1    28.086
   16151      st       1    MUSC   Si0tj       1       2.1    28.086
   16152      st       1    MUSC   Si0tk       1       2.1    28.086
   16153      ob       1    MUSC   O02gT       1     -1.05    15.999
   16154      ob       1    MUSC   O02gU       1     -1.05    15.999
   16155      ob       1    MUSC   O02gV       1     -1.05    15.999
   16156      ob       1    MUSC   O02gW       1     -1.05    15.999
   16157      oh       1    MUSC   O02gX       1     -0.95    15.999
   16158      oh       1    MUSC   O02gY       1     -0.95    15.999
   16159      oh       1    MUSC   O02gZ       1     -0.95    15.999
   16160      oh       1    MUSC   O02ga       1     -0.95    15.999
   16161      ob       1    MUSC   O02gb       1     -1.05    15.999
   16162      ob       1    MUSC   O02gc       1     -1.05    15.999
   16163      ob       1    MUSC   O02gd       1     -1.05    15.999
   16164      ob       1    MUSC   O02ge       1     -1.05    15.999
   16165      ob       1    MUSC   O02gf       1     -1.05    15.999
   16166      ob       1    MUSC   O02gg       1     -1.05    15.999
   16167      ob       1    MUSC   O02gh       1     -1.05    15.999
   16168      ob       1    MUSC   O02gi       1     -1.05    15.999
   16169      ob       1    MUSC   O02gj       1     -1.05    15.999
   16170      ob       1    MUSC   O02gk       1     -1.05    15.999
   16171      ob       1    MUSC   O02gl       1     -1.05    15.999
   16172      ob       1    MUSC   O02gm       1     -1.05    15.999
   16173      ob       1    MUSC   O02gn       1     -1.05    15.999
   16174      ob       1    MUSC   O02go       1     -1.05    15.999
   16175      ob       1    MUSC   O02gp       1     -1.05    15.999
   16176      ob       1    MUSC   O02gq       1     -1.05    15.999
   16177      ob       1    MUSC   O02gr       1     -1.05    15.999
   16178      ob       1    MUSC   O02gs       1     -1.05    15.999
   16179      ob       1    MUSC   O02gt       1     -1.05    15.999
   16180      ob       1    MUSC   O02gu       1     -1.05    15.999
   16181      oh       1    MUSC   O02gv       1     -0.95    15.999
   16182      oh       1    MUSC   O02gw       1     -0.95    15.999
   16183      oh       1    MUSC   O02gx       1     -0.95    15.999
   16184      oh       1    MUSC   O02gy       1     -0.95    15.999
   16185      ob       1    MUSC   O02gz       1     -1.05    15.999
   16186      ob       1    MUSC   O02h0       1     -1.05    15.999
   16187      ob       1    MUSC   O02h1       1     -1.05    15.999
   16188      ob       1    MUSC   O02h2       1     -1.05    15.999
   16189      ob       1    MUSC   O02h3       1     -1.05    15.999
   16190      ob       1    MUSC   O02h4       1     -1.05    15.999
   16191      ob       1    MUSC   O02h5       1     -1.05    15.999
   16192      ob       1    MUSC   O02h6       1     -1.05    15.999
   16193      ob       1    MUSC   O02h7       1     -1.05    15.999
   16194      ob       1    MUSC   O02h8       1     -1.05    15.999
   16195      ob       1    MUSC   O02h9       1     -1.05    15.999
   16196      ob       1    MUSC   O02hA       1     -1.05    15.999
   16197      ob       1    MUSC   O02hB       1     -1.05    15.999
   16198      ob       1    MUSC   O02hC       1     -1.05    15.999
   16199      ob       1    MUSC   O02hD       1     -1.05    15.999
   16200      ob       1    MUSC   O02hE       1     -1.05    15.999
   16201       K       1    MUSC   K00AT       1       1.0    39.098
   16202       K       1    MUSC   K00AU       1       1.0    39.098
   16203      ao       1    MUSC   Al0Rt       1     1.575    26.982
   16204      ao       1    MUSC   Al0Ru       1     1.575    26.982
   16205      ao       1    MUSC   Al0Rv       1     1.575    26.982
   16206      ao       1    MUSC   Al0Rw       1     1.575    26.982
   16207      ao       1    MUSC   Al0Rx       1     1.575    26.982
   16208      ao       1    MUSC   Al0Ry       1     1.575    26.982
   16209      ao       1    MUSC   Al0Rz       1     1.575    26.982
   16210      ao       1    MUSC   Al0S0       1     1.575    26.982
   16211      st       1    MUSC   Si0tl       1       2.1    28.086
   16212      st       1    MUSC   Si0tm       1       2.1    28.086
   16213      st       1    MUSC   Si0tn       1       2.1    28.086
   16214      st       1    MUSC   Si0to       1       2.1    28.086
   16215      st       1    MUSC   Si0tp       1       2.1    28.086
   16216      st       1    MUSC   Si0tq       1       2.1    28.086
   16217      st       1    MUSC   Si0tr       1       2.1    28.086
   16218      st       1    MUSC   Si0ts       1       2.1    28.086
   16219      st       1    MUSC   Si0tt       1       2.1    28.086
   16220      st       1    MUSC   Si0tu       1       2.1    28.086
   16221      st       1    MUSC   Si0tv       1       2.1    28.086
   16222      st       1    MUSC   Si0tw       1       2.1    28.086
   16223      st       1    MUSC   Si0tx       1       2.1    28.086
   16224      st       1    MUSC   Si0ty       1       2.1    28.086
   16225      st       1    MUSC   Si0tz       1       2.1    28.086
   16226      st       1    MUSC   Si0u0       1       2.1    28.086
   16227      ob       1    MUSC   O02hF       1     -1.05    15.999
   16228      ob       1    MUSC   O02hG       1     -1.05    15.999
   16229      ob       1    MUSC   O02hH       1     -1.05    15.999
   16230      ob       1    MUSC   O02hI       1     -1.05    15.999
   16231      oh       1    MUSC   O02hJ       1     -0.95    15.999
   16232      oh       1    MUSC   O02hK       1     -0.95    15.999
   16233      oh       1    MUSC   O02hL       1     -0.95    15.999
   16234      oh       1    MUSC   O02hM       1     -0.95    15.999
   16235      ob       1    MUSC   O02hN       1     -1.05    15.999
   16236      ob       1    MUSC   O02hO       1     -1.05    15.999
   16237      ob       1    MUSC   O02hP       1     -1.05    15.999
   16238      ob       1    MUSC   O02hQ       1     -1.05    15.999
   16239      ob       1    MUSC   O02hR       1     -1.05    15.999
   16240      ob       1    MUSC   O02hS       1     -1.05    15.999
   16241      ob       1    MUSC   O02hT       1     -1.05    15.999
   16242      ob       1    MUSC   O02hU       1     -1.05    15.999
   16243      ob       1    MUSC   O02hV       1     -1.05    15.999
   16244      ob       1    MUSC   O02hW       1     -1.05    15.999
   16245      ob       1    MUSC   O02hX       1     -1.05    15.999
   16246      ob       1    MUSC   O02hY       1     -1.05    15.999
   16247      ob       1    MUSC   O02hZ       1     -1.05    15.999
   16248      ob       1    MUSC   O02ha       1     -1.05    15.999
   16249      ob       1    MUSC   O02hb       1     -1.05    15.999
   16250      ob       1    MUSC   O02hc       1     -1.05    15.999
   16251      ob       1    MUSC   O02hd       1     -1.05    15.999
   16252      ob       1    MUSC   O02he       1     -1.05    15.999
   16253      ob       1    MUSC   O02hf       1     -1.05    15.999
   16254      ob       1    MUSC   O02hg       1     -1.05    15.999
   16255      oh       1    MUSC   O02hh       1     -0.95    15.999
   16256      oh       1    MUSC   O02hi       1     -0.95    15.999
   16257      oh       1    MUSC   O02hj       1     -0.95    15.999
   16258      oh       1    MUSC   O02hk       1     -0.95    15.999
   16259      ob       1    MUSC   O02hl       1     -1.05    15.999
   16260      ob       1    MUSC   O02hm       1     -1.05    15.999
   16261      ob       1    MUSC   O02hn       1     -1.05    15.999
   16262      ob       1    MUSC   O02ho       1     -1.05    15.999
   16263      ob       1    MUSC   O02hp       1     -1.05    15.999
   16264      ob       1    MUSC   O02hq       1     -1.05    15.999
   16265      ob       1    MUSC   O02hr       1     -1.05    15.999
   16266      ob       1    MUSC   O02hs       1     -1.05    15.999
   16267      ob       1    MUSC   O02ht       1     -1.05    15.999
   16268      ob       1    MUSC   O02hu       1     -1.05    15.999
   16269      ob       1    MUSC   O02hv       1     -1.05    15.999
   16270      ob       1    MUSC   O02hw       1     -1.05    15.999
   16271      ob       1    MUSC   O02hx       1     -1.05    15.999
   16272      ob       1    MUSC   O02hy       1     -1.05    15.999
   16273      ob       1    MUSC   O02hz       1     -1.05    15.999
   16274      ob       1    MUSC   O02i0       1     -1.05    15.999
   16275       K       1    MUSC   K00AV       1       1.0    39.098
   16276       K       1    MUSC   K00AW       1       1.0    39.098
   16277       K       1    MUSC   K00AX       1       1.0    39.098
   16278       K       1    MUSC   K00AY       1       1.0    39.098
   16279      ao       1    MUSC   Al0S1       1     1.575    26.982
   16280      ao       1    MUSC   Al0S2       1     1.575    26.982
   16281      ao       1    MUSC   Al0S3       1     1.575    26.982
   16282      ao       1    MUSC   Al0S4       1     1.575    26.982
   16283      ao       1    MUSC   Al0S5       1     1.575    26.982
   16284      ao       1    MUSC   Al0S6       1     1.575    26.982
   16285      ao       1    MUSC   Al0S7       1     1.575    26.982
   16286      ao       1    MUSC   Al0S8       1     1.575    26.982
   16287      st       1    MUSC   Si0u1       1       2.1    28.086
   16288      st       1    MUSC   Si0u2       1       2.1    28.086
   16289      st       1    MUSC   Si0u3       1       2.1    28.086
   16290      st       1    MUSC   Si0u4       1       2.1    28.086
   16291      st       1    MUSC   Si0u5       1       2.1    28.086
   16292      st       1    MUSC   Si0u6       1       2.1    28.086
   16293      st       1    MUSC   Si0u7       1       2.1    28.086
   16294      st       1    MUSC   Si0u8       1       2.1    28.086
   16295      st       1    MUSC   Si0u9       1       2.1    28.086
   16296      st       1    MUSC   Si0uA       1       2.1    28.086
   16297      st       1    MUSC   Si0uB       1       2.1    28.086
   16298      st       1    MUSC   Si0uC       1       2.1    28.086
   16299      st       1    MUSC   Si0uD       1       2.1    28.086
   16300      st       1    MUSC   Si0uE       1       2.1    28.086
   16301      st       1    MUSC   Si0uF       1       2.1    28.086
   16302      st       1    MUSC   Si0uG       1       2.1    28.086
   16303      ob       1    MUSC   O02i1       1     -1.05    15.999
   16304      ob       1    MUSC   O02i2       1     -1.05    15.999
   16305      ob       1    MUSC   O02i3       1     -1.05    15.999
   16306      ob       1    MUSC   O02i4       1     -1.05    15.999
   16307      oh       1    MUSC   O02i5       1     -0.95    15.999
   16308      oh       1    MUSC   O02i6       1     -0.95    15.999
   16309      oh       1    MUSC   O02i7       1     -0.95    15.999
   16310      oh       1    MUSC   O02i8       1     -0.95    15.999
   16311      ob       1    MUSC   O02i9       1     -1.05    15.999
   16312      ob       1    MUSC   O02iA       1     -1.05    15.999
   16313      ob       1    MUSC   O02iB       1     -1.05    15.999
   16314      ob       1    MUSC   O02iC       1     -1.05    15.999
   16315      ob       1    MUSC   O02iD       1     -1.05    15.999
   16316      ob       1    MUSC   O02iE       1     -1.05    15.999
   16317      ob       1    MUSC   O02iF       1     -1.05    15.999
   16318      ob       1    MUSC   O02iG       1     -1.05    15.999
   16319      ob       1    MUSC   O02iH       1     -1.05    15.999
   16320      ob       1    MUSC   O02iI       1     -1.05    15.999
   16321      ob       1    MUSC   O02iJ       1     -1.05    15.999
   16322      ob       1    MUSC   O02iK       1     -1.05    15.999
   16323      ob       1    MUSC   O02iL       1     -1.05    15.999
   16324      ob       1    MUSC   O02iM       1     -1.05    15.999
   16325      ob       1    MUSC   O02iN       1     -1.05    15.999
   16326      ob       1    MUSC   O02iO       1     -1.05    15.999
   16327      ob       1    MUSC   O02iP       1     -1.05    15.999
   16328      ob       1    MUSC   O02iQ       1     -1.05    15.999
   16329      ob       1    MUSC   O02iR       1     -1.05    15.999
   16330      ob       1    MUSC   O02iS       1     -1.05    15.999
   16331      oh       1    MUSC   O02iT       1     -0.95    15.999
   16332      oh       1    MUSC   O02iU       1     -0.95    15.999
   16333      oh       1    MUSC   O02iV       1     -0.95    15.999
   16334      oh       1    MUSC   O02iW       1     -0.95    15.999
   16335      ob       1    MUSC   O02iX       1     -1.05    15.999
   16336      ob       1    MUSC   O02iY       1     -1.05    15.999
   16337      ob       1    MUSC   O02iZ       1     -1.05    15.999
   16338      ob       1    MUSC   O02ia       1     -1.05    15.999
   16339      ob       1    MUSC   O02ib       1     -1.05    15.999
   16340      ob       1    MUSC   O02ic       1     -1.05    15.999
   16341      ob       1    MUSC   O02id       1     -1.05    15.999
   16342      ob       1    MUSC   O02ie       1     -1.05    15.999
   16343      ob       1    MUSC   O02if       1     -1.05    15.999
   16344      ob       1    MUSC   O02ig       1     -1.05    15.999
   16345      ob       1    MUSC   O02ih       1     -1.05    15.999
   16346      ob       1    MUSC   O02ii       1     -1.05    15.999
   16347      ob       1    MUSC   O02ij       1     -1.05    15.999
   16348      ob       1    MUSC   O02ik       1     -1.05    15.999
   16349      ob       1    MUSC   O02il       1     -1.05    15.999
   16350      ob       1    MUSC   O02im       1     -1.05    15.999
   16351       K       1    MUSC   K00AZ       1       1.0    39.098
   16352       K       1    MUSC   K00Aa       1       1.0    39.098
   16353      ao       1    MUSC   Al0S9       1     1.575    26.982
   16354      ao       1    MUSC   Al0SA       1     1.575    26.982
   16355      ao       1    MUSC   Al0SB       1     1.575    26.982
   16356      ao       1    MUSC   Al0SC       1     1.575    26.982
   16357      ao       1    MUSC   Al0SD       1     1.575    26.982
   16358      ao       1    MUSC   Al0SE       1     1.575    26.982
   16359      ao       1    MUSC   Al0SF       1     1.575    26.982
   16360      ao       1    MUSC   Al0SG       1     1.575    26.982
   16361      st       1    MUSC   Si0uH       1       2.1    28.086
   16362      st       1    MUSC   Si0uI       1       2.1    28.086
   16363      st       1    MUSC   Si0uJ       1       2.1    28.086
   16364      st       1    MUSC   Si0uK       1       2.1    28.086
   16365      st       1    MUSC   Si0uL       1       2.1    28.086
   16366      st       1    MUSC   Si0uM       1       2.1    28.086
   16367      st       1    MUSC   Si0uN       1       2.1    28.086
   16368      st       1    MUSC   Si0uO       1       2.1    28.086
   16369      st       1    MUSC   Si0uP       1       2.1    28.086
   16370      st       1    MUSC   Si0uQ       1       2.1    28.086
   16371      st       1    MUSC   Si0uR       1       2.1    28.086
   16372      st       1    MUSC   Si0uS       1       2.1    28.086
   16373      st       1    MUSC   Si0uT       1       2.1    28.086
   16374      st       1    MUSC   Si0uU       1       2.1    28.086
   16375      st       1    MUSC   Si0uV       1       2.1    28.086
   16376      st       1    MUSC   Si0uW       1       2.1    28.086
   16377      ob       1    MUSC   O02in       1     -1.05    15.999
   16378      ob       1    MUSC   O02io       1     -1.05    15.999
   16379      ob       1    MUSC   O02ip       1     -1.05    15.999
   16380      ob       1    MUSC   O02iq       1     -1.05    15.999
   16381      oh       1    MUSC   O02ir       1     -0.95    15.999
   16382      oh       1    MUSC   O02is       1     -0.95    15.999
   16383      oh       1    MUSC   O02it       1     -0.95    15.999
   16384      oh       1    MUSC   O02iu       1     -0.95    15.999
   16385      ob       1    MUSC   O02iv       1     -1.05    15.999
   16386      ob       1    MUSC   O02iw       1     -1.05    15.999
   16387      ob       1    MUSC   O02ix       1     -1.05    15.999
   16388      ob       1    MUSC   O02iy       1     -1.05    15.999
   16389      ob       1    MUSC   O02iz       1     -1.05    15.999
   16390      ob       1    MUSC   O02j0       1     -1.05    15.999
   16391      ob       1    MUSC   O02j1       1     -1.05    15.999
   16392      ob       1    MUSC   O02j2       1     -1.05    15.999
   16393      ob       1    MUSC   O02j3       1     -1.05    15.999
   16394      ob       1    MUSC   O02j4       1     -1.05    15.999
   16395      ob       1    MUSC   O02j5       1     -1.05    15.999
   16396      ob       1    MUSC   O02j6       1     -1.05    15.999
   16397      ob       1    MUSC   O02j7       1     -1.05    15.999
   16398      ob       1    MUSC   O02j8       1     -1.05    15.999
   16399      ob       1    MUSC   O02j9       1     -1.05    15.999
   16400      ob       1    MUSC   O02jA       1     -1.05    15.999
   16401      ob       1    MUSC   O02jB       1     -1.05    15.999
   16402      ob       1    MUSC   O02jC       1     -1.05    15.999
   16403      ob       1    MUSC   O02jD       1     -1.05    15.999
   16404      ob       1    MUSC   O02jE       1     -1.05    15.999
   16405      oh       1    MUSC   O02jF       1     -0.95    15.999
   16406      oh       1    MUSC   O02jG       1     -0.95    15.999
   16407      oh       1    MUSC   O02jH       1     -0.95    15.999
   16408      oh       1    MUSC   O02jI       1     -0.95    15.999
   16409      ob       1    MUSC   O02jJ       1     -1.05    15.999
   16410      ob       1    MUSC   O02jK       1     -1.05    15.999
   16411      ob       1    MUSC   O02jL       1     -1.05    15.999
   16412      ob       1    MUSC   O02jM       1     -1.05    15.999
   16413      ob       1    MUSC   O02jN       1     -1.05    15.999
   16414      ob       1    MUSC   O02jO       1     -1.05    15.999
   16415      ob       1    MUSC   O02jP       1     -1.05    15.999
   16416      ob       1    MUSC   O02jQ       1     -1.05    15.999
   16417      ob       1    MUSC   O02jR       1     -1.05    15.999
   16418      ob       1    MUSC   O02jS       1     -1.05    15.999
   16419      ob       1    MUSC   O02jT       1     -1.05    15.999
   16420      ob       1    MUSC   O02jU       1     -1.05    15.999
   16421      ob       1    MUSC   O02jV       1     -1.05    15.999
   16422      ob       1    MUSC   O02jW       1     -1.05    15.999
   16423      ob       1    MUSC   O02jX       1     -1.05    15.999
   16424      ob       1    MUSC   O02jY       1     -1.05    15.999
   16425       K       1    MUSC   K00Ab       1       1.0    39.098
   16426       K       1    MUSC   K00Ac       1       1.0    39.098
   16427       K       1    MUSC   K00Ad       1       1.0    39.098
   16428       K       1    MUSC   K00Ae       1       1.0    39.098
   16429      ao       1    MUSC   Al0SH       1     1.575    26.982
   16430      ao       1    MUSC   Al0SI       1     1.575    26.982
   16431      ao       1    MUSC   Al0SJ       1     1.575    26.982
   16432      ao       1    MUSC   Al0SK       1     1.575    26.982
   16433      ao       1    MUSC   Al0SL       1     1.575    26.982
   16434      ao       1    MUSC   Al0SM       1     1.575    26.982
   16435      ao       1    MUSC   Al0SN       1     1.575    26.982
   16436      ao       1    MUSC   Al0SO       1     1.575    26.982
   16437      st       1    MUSC   Si0uX       1       2.1    28.086
   16438      st       1    MUSC   Si0uY       1       2.1    28.086
   16439      st       1    MUSC   Si0uZ       1       2.1    28.086
   16440      st       1    MUSC   Si0ua       1       2.1    28.086
   16441      st       1    MUSC   Si0ub       1       2.1    28.086
   16442      st       1    MUSC   Si0uc       1       2.1    28.086
   16443      st       1    MUSC   Si0ud       1       2.1    28.086
   16444      st       1    MUSC   Si0ue       1       2.1    28.086
   16445      st       1    MUSC   Si0uf       1       2.1    28.086
   16446      st       1    MUSC   Si0ug       1       2.1    28.086
   16447      st       1    MUSC   Si0uh       1       2.1    28.086
   16448      st       1    MUSC   Si0ui       1       2.1    28.086
   16449      st       1    MUSC   Si0uj       1       2.1    28.086
   16450      st       1    MUSC   Si0uk       1       2.1    28.086
   16451      st       1    MUSC   Si0ul       1       2.1    28.086
   16452      st       1    MUSC   Si0um       1       2.1    28.086
   16453      ob       1    MUSC   O02jZ       1     -1.05    15.999
   16454      ob       1    MUSC   O02ja       1     -1.05    15.999
   16455      ob       1    MUSC   O02jb       1     -1.05    15.999
   16456      ob       1    MUSC   O02jc       1     -1.05    15.999
   16457      oh       1    MUSC   O02jd       1     -0.95    15.999
   16458      oh       1    MUSC   O02je       1     -0.95    15.999
   16459      oh       1    MUSC   O02jf       1     -0.95    15.999
   16460      oh       1    MUSC   O02jg       1     -0.95    15.999
   16461      ob       1    MUSC   O02jh       1     -1.05    15.999
   16462      ob       1    MUSC   O02ji       1     -1.05    15.999
   16463      ob       1    MUSC   O02jj       1     -1.05    15.999
   16464      ob       1    MUSC   O02jk       1     -1.05    15.999
   16465      ob       1    MUSC   O02jl       1     -1.05    15.999
   16466      ob       1    MUSC   O02jm       1     -1.05    15.999
   16467      ob       1    MUSC   O02jn       1     -1.05    15.999
   16468      ob       1    MUSC   O02jo       1     -1.05    15.999
   16469      ob       1    MUSC   O02jp       1     -1.05    15.999
   16470      ob       1    MUSC   O02jq       1     -1.05    15.999
   16471      ob       1    MUSC   O02jr       1     -1.05    15.999
   16472      ob       1    MUSC   O02js       1     -1.05    15.999
   16473      ob       1    MUSC   O02jt       1     -1.05    15.999
   16474      ob       1    MUSC   O02ju       1     -1.05    15.999
   16475      ob       1    MUSC   O02jv       1     -1.05    15.999
   16476      ob       1    MUSC   O02jw       1     -1.05    15.999
   16477      ob       1    MUSC   O02jx       1     -1.05    15.999
   16478      ob       1    MUSC   O02jy       1     -1.05    15.999
   16479      ob       1    MUSC   O02jz       1     -1.05    15.999
   16480      ob       1    MUSC   O02k0       1     -1.05    15.999
   16481      oh       1    MUSC   O02k1       1     -0.95    15.999
   16482      oh       1    MUSC   O02k2       1     -0.95    15.999
   16483      oh       1    MUSC   O02k3       1     -0.95    15.999
   16484      oh       1    MUSC   O02k4       1     -0.95    15.999
   16485      ob       1    MUSC   O02k5       1     -1.05    15.999
   16486      ob       1    MUSC   O02k6       1     -1.05    15.999
   16487      ob       1    MUSC   O02k7       1     -1.05    15.999
   16488      ob       1    MUSC   O02k8       1     -1.05    15.999
   16489      ob       1    MUSC   O02k9       1     -1.05    15.999
   16490      ob       1    MUSC   O02kA       1     -1.05    15.999
   16491      ob       1    MUSC   O02kB       1     -1.05    15.999
   16492      ob       1    MUSC   O02kC       1     -1.05    15.999
   16493      ob       1    MUSC   O02kD       1     -1.05    15.999
   16494      ob       1    MUSC   O02kE       1     -1.05    15.999
   16495      ob       1    MUSC   O02kF       1     -1.05    15.999
   16496      ob       1    MUSC   O02kG       1     -1.05    15.999
   16497      ob       1    MUSC   O02kH       1     -1.05    15.999
   16498      ob       1    MUSC   O02kI       1     -1.05    15.999
   16499      ob       1    MUSC   O02kJ       1     -1.05    15.999
   16500      ob       1    MUSC   O02kK       1     -1.05    15.999
   16501       K       1    MUSC   K00Af       1       1.0    39.098
   16502       K       1    MUSC   K00Ag       1       1.0    39.098
   16503      ao       1    MUSC   Al0SP       1     1.575    26.982
   16504      ao       1    MUSC   Al0SQ       1     1.575    26.982
   16505      ao       1    MUSC   Al0SR       1     1.575    26.982
   16506      ao       1    MUSC   Al0SS       1     1.575    26.982
   16507      ao       1    MUSC   Al0ST       1     1.575    26.982
   16508      ao       1    MUSC   Al0SU       1     1.575    26.982
   16509      ao       1    MUSC   Al0SV       1     1.575    26.982
   16510      ao       1    MUSC   Al0SW       1     1.575    26.982
   16511      st       1    MUSC   Si0un       1       2.1    28.086
   16512      st       1    MUSC   Si0uo       1       2.1    28.086
   16513      st       1    MUSC   Si0up       1       2.1    28.086
   16514      st       1    MUSC   Si0uq       1       2.1    28.086
   16515      st       1    MUSC   Si0ur       1       2.1    28.086
   16516      st       1    MUSC   Si0us       1       2.1    28.086
   16517      st       1    MUSC   Si0ut       1       2.1    28.086
   16518      st       1    MUSC   Si0uu       1       2.1    28.086
   16519      st       1    MUSC   Si0uv       1       2.1    28.086
   16520      st       1    MUSC   Si0uw       1       2.1    28.086
   16521      st       1    MUSC   Si0ux       1       2.1    28.086
   16522      st       1    MUSC   Si0uy       1       2.1    28.086
   16523      st       1    MUSC   Si0uz       1       2.1    28.086
   16524      st       1    MUSC   Si0v0       1       2.1    28.086
   16525      st       1    MUSC   Si0v1       1       2.1    28.086
   16526      st       1    MUSC   Si0v2       1       2.1    28.086
   16527      ob       1    MUSC   O02kL       1     -1.05    15.999
   16528      ob       1    MUSC   O02kM       1     -1.05    15.999
   16529      ob       1    MUSC   O02kN       1     -1.05    15.999
   16530      ob       1    MUSC   O02kO       1     -1.05    15.999
   16531      oh       1    MUSC   O02kP       1     -0.95    15.999
   16532      oh       1    MUSC   O02kQ       1     -0.95    15.999
   16533      oh       1    MUSC   O02kR       1     -0.95    15.999
   16534      oh       1    MUSC   O02kS       1     -0.95    15.999
   16535      ob       1    MUSC   O02kT       1     -1.05    15.999
   16536      ob       1    MUSC   O02kU       1     -1.05    15.999
   16537      ob       1    MUSC   O02kV       1     -1.05    15.999
   16538      ob       1    MUSC   O02kW       1     -1.05    15.999
   16539      ob       1    MUSC   O02kX       1     -1.05    15.999
   16540      ob       1    MUSC   O02kY       1     -1.05    15.999
   16541      ob       1    MUSC   O02kZ       1     -1.05    15.999
   16542      ob       1    MUSC   O02ka       1     -1.05    15.999
   16543      ob       1    MUSC   O02kb       1     -1.05    15.999
   16544      ob       1    MUSC   O02kc       1     -1.05    15.999
   16545      ob       1    MUSC   O02kd       1     -1.05    15.999
   16546      ob       1    MUSC   O02ke       1     -1.05    15.999
   16547      ob       1    MUSC   O02kf       1     -1.05    15.999
   16548      ob       1    MUSC   O02kg       1     -1.05    15.999
   16549      ob       1    MUSC   O02kh       1     -1.05    15.999
   16550      ob       1    MUSC   O02ki       1     -1.05    15.999
   16551      ob       1    MUSC   O02kj       1     -1.05    15.999
   16552      ob       1    MUSC   O02kk       1     -1.05    15.999
   16553      ob       1    MUSC   O02kl       1     -1.05    15.999
   16554      ob       1    MUSC   O02km       1     -1.05    15.999
   16555      oh       1    MUSC   O02kn       1     -0.95    15.999
   16556      oh       1    MUSC   O02ko       1     -0.95    15.999
   16557      oh       1    MUSC   O02kp       1     -0.95    15.999
   16558      oh       1    MUSC   O02kq       1     -0.95    15.999
   16559      ob       1    MUSC   O02kr       1     -1.05    15.999
   16560      ob       1    MUSC   O02ks       1     -1.05    15.999
   16561      ob       1    MUSC   O02kt       1     -1.05    15.999
   16562      ob       1    MUSC   O02ku       1     -1.05    15.999
   16563      ob       1    MUSC   O02kv       1     -1.05    15.999
   16564      ob       1    MUSC   O02kw       1     -1.05    15.999
   16565      ob       1    MUSC   O02kx       1     -1.05    15.999
   16566      ob       1    MUSC   O02ky       1     -1.05    15.999
   16567      ob       1    MUSC   O02kz       1     -1.05    15.999
   16568      ob       1    MUSC   O02l0       1     -1.05    15.999
   16569      ob       1    MUSC   O02l1       1     -1.05    15.999
   16570      ob       1    MUSC   O02l2       1     -1.05    15.999
   16571      ob       1    MUSC   O02l3       1     -1.05    15.999
   16572      ob       1    MUSC   O02l4       1     -1.05    15.999
   16573      ob       1    MUSC   O02l5       1     -1.05    15.999
   16574      ob       1    MUSC   O02l6       1     -1.05    15.999
   16575       K       1    MUSC   K00Ah       1       1.0    39.098
   16576       K       1    MUSC   K00Ai       1       1.0    39.098
   16577       K       1    MUSC   K00Aj       1       1.0    39.098
   16578       K       1    MUSC   K00Ak       1       1.0    39.098
   16579      ao       1    MUSC   Al0SX       1     1.575    26.982
   16580      ao       1    MUSC   Al0SY       1     1.575    26.982
   16581      ao       1    MUSC   Al0SZ       1     1.575    26.982
   16582      ao       1    MUSC   Al0Sa       1     1.575    26.982
   16583      ao       1    MUSC   Al0Sb       1     1.575    26.982
   16584      ao       1    MUSC   Al0Sc       1     1.575    26.982
   16585      ao       1    MUSC   Al0Sd       1     1.575    26.982
   16586      ao       1    MUSC   Al0Se       1     1.575    26.982
   16587      st       1    MUSC   Si0v3       1       2.1    28.086
   16588      st       1    MUSC   Si0v4       1       2.1    28.086
   16589      st       1    MUSC   Si0v5       1       2.1    28.086
   16590      st       1    MUSC   Si0v6       1       2.1    28.086
   16591      st       1    MUSC   Si0v7       1       2.1    28.086
   16592      st       1    MUSC   Si0v8       1       2.1    28.086
   16593      st       1    MUSC   Si0v9       1       2.1    28.086
   16594      st       1    MUSC   Si0vA       1       2.1    28.086
   16595      st       1    MUSC   Si0vB       1       2.1    28.086
   16596      st       1    MUSC   Si0vC       1       2.1    28.086
   16597      st       1    MUSC   Si0vD       1       2.1    28.086
   16598      st       1    MUSC   Si0vE       1       2.1    28.086
   16599      st       1    MUSC   Si0vF       1       2.1    28.086
   16600      st       1    MUSC   Si0vG       1       2.1    28.086
   16601      st       1    MUSC   Si0vH       1       2.1    28.086
   16602      st       1    MUSC   Si0vI       1       2.1    28.086
   16603      ob       1    MUSC   O02l7       1     -1.05    15.999
   16604      ob       1    MUSC   O02l8       1     -1.05    15.999
   16605      ob       1    MUSC   O02l9       1     -1.05    15.999
   16606      ob       1    MUSC   O02lA       1     -1.05    15.999
   16607      oh       1    MUSC   O02lB       1     -0.95    15.999
   16608      oh       1    MUSC   O02lC       1     -0.95    15.999
   16609      oh       1    MUSC   O02lD       1     -0.95    15.999
   16610      oh       1    MUSC   O02lE       1     -0.95    15.999
   16611      ob       1    MUSC   O02lF       1     -1.05    15.999
   16612      ob       1    MUSC   O02lG       1     -1.05    15.999
   16613      ob       1    MUSC   O02lH       1     -1.05    15.999
   16614      ob       1    MUSC   O02lI       1     -1.05    15.999
   16615      ob       1    MUSC   O02lJ       1     -1.05    15.999
   16616      ob       1    MUSC   O02lK       1     -1.05    15.999
   16617      ob       1    MUSC   O02lL       1     -1.05    15.999
   16618      ob       1    MUSC   O02lM       1     -1.05    15.999
   16619      ob       1    MUSC   O02lN       1     -1.05    15.999
   16620      ob       1    MUSC   O02lO       1     -1.05    15.999
   16621      ob       1    MUSC   O02lP       1     -1.05    15.999
   16622      ob       1    MUSC   O02lQ       1     -1.05    15.999
   16623      ob       1    MUSC   O02lR       1     -1.05    15.999
   16624      ob       1    MUSC   O02lS       1     -1.05    15.999
   16625      ob       1    MUSC   O02lT       1     -1.05    15.999
   16626      ob       1    MUSC   O02lU       1     -1.05    15.999
   16627      ob       1    MUSC   O02lV       1     -1.05    15.999
   16628      ob       1    MUSC   O02lW       1     -1.05    15.999
   16629      ob       1    MUSC   O02lX       1     -1.05    15.999
   16630      ob       1    MUSC   O02lY       1     -1.05    15.999
   16631      oh       1    MUSC   O02lZ       1     -0.95    15.999
   16632      oh       1    MUSC   O02la       1     -0.95    15.999
   16633      oh       1    MUSC   O02lb       1     -0.95    15.999
   16634      oh       1    MUSC   O02lc       1     -0.95    15.999
   16635      ob       1    MUSC   O02ld       1     -1.05    15.999
   16636      ob       1    MUSC   O02le       1     -1.05    15.999
   16637      ob       1    MUSC   O02lf       1     -1.05    15.999
   16638      ob       1    MUSC   O02lg       1     -1.05    15.999
   16639      ob       1    MUSC   O02lh       1     -1.05    15.999
   16640      ob       1    MUSC   O02li       1     -1.05    15.999
   16641      ob       1    MUSC   O02lj       1     -1.05    15.999
   16642      ob       1    MUSC   O02lk       1     -1.05    15.999
   16643      ob       1    MUSC   O02ll       1     -1.05    15.999
   16644      ob       1    MUSC   O02lm       1     -1.05    15.999
   16645      ob       1    MUSC   O02ln       1     -1.05    15.999
   16646      ob       1    MUSC   O02lo       1     -1.05    15.999
   16647      ob       1    MUSC   O02lp       1     -1.05    15.999
   16648      ob       1    MUSC   O02lq       1     -1.05    15.999
   16649      ob       1    MUSC   O02lr       1     -1.05    15.999
   16650      ob       1    MUSC   O02ls       1     -1.05    15.999
   16651       K       1    MUSC   K00Al       1       1.0    39.098
   16652       K       1    MUSC   K00Am       1       1.0    39.098
   16653      ao       1    MUSC   Al0Sf       1     1.575    26.982
   16654      ao       1    MUSC   Al0Sg       1     1.575    26.982
   16655      ao       1    MUSC   Al0Sh       1     1.575    26.982
   16656      ao       1    MUSC   Al0Si       1     1.575    26.982
   16657      ao       1    MUSC   Al0Sj       1     1.575    26.982
   16658      ao       1    MUSC   Al0Sk       1     1.575    26.982
   16659      ao       1    MUSC   Al0Sl       1     1.575    26.982
   16660      ao       1    MUSC   Al0Sm       1     1.575    26.982
   16661      st       1    MUSC   Si0vJ       1       2.1    28.086
   16662      st       1    MUSC   Si0vK       1       2.1    28.086
   16663      st       1    MUSC   Si0vL       1       2.1    28.086
   16664      st       1    MUSC   Si0vM       1       2.1    28.086
   16665      st       1    MUSC   Si0vN       1       2.1    28.086
   16666      st       1    MUSC   Si0vO       1       2.1    28.086
   16667      st       1    MUSC   Si0vP       1       2.1    28.086
   16668      st       1    MUSC   Si0vQ       1       2.1    28.086
   16669      st       1    MUSC   Si0vR       1       2.1    28.086
   16670      st       1    MUSC   Si0vS       1       2.1    28.086
   16671      st       1    MUSC   Si0vT       1       2.1    28.086
   16672      st       1    MUSC   Si0vU       1       2.1    28.086
   16673      st       1    MUSC   Si0vV       1       2.1    28.086
   16674      st       1    MUSC   Si0vW       1       2.1    28.086
   16675      st       1    MUSC   Si0vX       1       2.1    28.086
   16676      st       1    MUSC   Si0vY       1       2.1    28.086
   16677      ob       1    MUSC   O02lt       1     -1.05    15.999
   16678      ob       1    MUSC   O02lu       1     -1.05    15.999
   16679      ob       1    MUSC   O02lv       1     -1.05    15.999
   16680      ob       1    MUSC   O02lw       1     -1.05    15.999
   16681      oh       1    MUSC   O02lx       1     -0.95    15.999
   16682      oh       1    MUSC   O02ly       1     -0.95    15.999
   16683      oh       1    MUSC   O02lz       1     -0.95    15.999
   16684      oh       1    MUSC   O02m0       1     -0.95    15.999
   16685      ob       1    MUSC   O02m1       1     -1.05    15.999
   16686      ob       1    MUSC   O02m2       1     -1.05    15.999
   16687      ob       1    MUSC   O02m3       1     -1.05    15.999
   16688      ob       1    MUSC   O02m4       1     -1.05    15.999
   16689      ob       1    MUSC   O02m5       1     -1.05    15.999
   16690      ob       1    MUSC   O02m6       1     -1.05    15.999
   16691      ob       1    MUSC   O02m7       1     -1.05    15.999
   16692      ob       1    MUSC   O02m8       1     -1.05    15.999
   16693      ob       1    MUSC   O02m9       1     -1.05    15.999
   16694      ob       1    MUSC   O02mA       1     -1.05    15.999
   16695      ob       1    MUSC   O02mB       1     -1.05    15.999
   16696      ob       1    MUSC   O02mC       1     -1.05    15.999
   16697      ob       1    MUSC   O02mD       1     -1.05    15.999
   16698      ob       1    MUSC   O02mE       1     -1.05    15.999
   16699      ob       1    MUSC   O02mF       1     -1.05    15.999
   16700      ob       1    MUSC   O02mG       1     -1.05    15.999
   16701      ob       1    MUSC   O02mH       1     -1.05    15.999
   16702      ob       1    MUSC   O02mI       1     -1.05    15.999
   16703      ob       1    MUSC   O02mJ       1     -1.05    15.999
   16704      ob       1    MUSC   O02mK       1     -1.05    15.999
   16705      oh       1    MUSC   O02mL       1     -0.95    15.999
   16706      oh       1    MUSC   O02mM       1     -0.95    15.999
   16707      oh       1    MUSC   O02mN       1     -0.95    15.999
   16708      oh       1    MUSC   O02mO       1     -0.95    15.999
   16709      ob       1    MUSC   O02mP       1     -1.05    15.999
   16710      ob       1    MUSC   O02mQ       1     -1.05    15.999
   16711      ob       1    MUSC   O02mR       1     -1.05    15.999
   16712      ob       1    MUSC   O02mS       1     -1.05    15.999
   16713      ob       1    MUSC   O02mT       1     -1.05    15.999
   16714      ob       1    MUSC   O02mU       1     -1.05    15.999
   16715      ob       1    MUSC   O02mV       1     -1.05    15.999
   16716      ob       1    MUSC   O02mW       1     -1.05    15.999
   16717      ob       1    MUSC   O02mX       1     -1.05    15.999
   16718      ob       1    MUSC   O02mY       1     -1.05    15.999
   16719      ob       1    MUSC   O02mZ       1     -1.05    15.999
   16720      ob       1    MUSC   O02ma       1     -1.05    15.999
   16721      ob       1    MUSC   O02mb       1     -1.05    15.999
   16722      ob       1    MUSC   O02mc       1     -1.05    15.999
   16723      ob       1    MUSC   O02md       1     -1.05    15.999
   16724      ob       1    MUSC   O02me       1     -1.05    15.999
   16725       K       1    MUSC   K00An       1       1.0    39.098
   16726       K       1    MUSC   K00Ao       1       1.0    39.098
   16727       K       1    MUSC   K00Ap       1       1.0    39.098
   16728       K       1    MUSC   K00Aq       1       1.0    39.098
   16729      ao       1    MUSC   Al0Sn       1     1.575    26.982
   16730      ao       1    MUSC   Al0So       1     1.575    26.982
   16731      ao       1    MUSC   Al0Sp       1     1.575    26.982
   16732      ao       1    MUSC   Al0Sq       1     1.575    26.982
   16733      ao       1    MUSC   Al0Sr       1     1.575    26.982
   16734      ao       1    MUSC   Al0Ss       1     1.575    26.982
   16735      ao       1    MUSC   Al0St       1     1.575    26.982
   16736      ao       1    MUSC   Al0Su       1     1.575    26.982
   16737      st       1    MUSC   Si0vZ       1       2.1    28.086
   16738      st       1    MUSC   Si0va       1       2.1    28.086
   16739      st       1    MUSC   Si0vb       1       2.1    28.086
   16740      st       1    MUSC   Si0vc       1       2.1    28.086
   16741      st       1    MUSC   Si0vd       1       2.1    28.086
   16742      st       1    MUSC   Si0ve       1       2.1    28.086
   16743      st       1    MUSC   Si0vf       1       2.1    28.086
   16744      st       1    MUSC   Si0vg       1       2.1    28.086
   16745      st       1    MUSC   Si0vh       1       2.1    28.086
   16746      st       1    MUSC   Si0vi       1       2.1    28.086
   16747      st       1    MUSC   Si0vj       1       2.1    28.086
   16748      st       1    MUSC   Si0vk       1       2.1    28.086
   16749      st       1    MUSC   Si0vl       1       2.1    28.086
   16750      st       1    MUSC   Si0vm       1       2.1    28.086
   16751      st       1    MUSC   Si0vn       1       2.1    28.086
   16752      st       1    MUSC   Si0vo       1       2.1    28.086
   16753      ob       1    MUSC   O02mf       1     -1.05    15.999
   16754      ob       1    MUSC   O02mg       1     -1.05    15.999
   16755      ob       1    MUSC   O02mh       1     -1.05    15.999
   16756      ob       1    MUSC   O02mi       1     -1.05    15.999
   16757      oh       1    MUSC   O02mj       1     -0.95    15.999
   16758      oh       1    MUSC   O02mk       1     -0.95    15.999
   16759      oh       1    MUSC   O02ml       1     -0.95    15.999
   16760      oh       1    MUSC   O02mm       1     -0.95    15.999
   16761      ob       1    MUSC   O02mn       1     -1.05    15.999
   16762      ob       1    MUSC   O02mo       1     -1.05    15.999
   16763      ob       1    MUSC   O02mp       1     -1.05    15.999
   16764      ob       1    MUSC   O02mq       1     -1.05    15.999
   16765      ob       1    MUSC   O02mr       1     -1.05    15.999
   16766      ob       1    MUSC   O02ms       1     -1.05    15.999
   16767      ob       1    MUSC   O02mt       1     -1.05    15.999
   16768      ob       1    MUSC   O02mu       1     -1.05    15.999
   16769      ob       1    MUSC   O02mv       1     -1.05    15.999
   16770      ob       1    MUSC   O02mw       1     -1.05    15.999
   16771      ob       1    MUSC   O02mx       1     -1.05    15.999
   16772      ob       1    MUSC   O02my       1     -1.05    15.999
   16773      ob       1    MUSC   O02mz       1     -1.05    15.999
   16774      ob       1    MUSC   O02n0       1     -1.05    15.999
   16775      ob       1    MUSC   O02n1       1     -1.05    15.999
   16776      ob       1    MUSC   O02n2       1     -1.05    15.999
   16777      ob       1    MUSC   O02n3       1     -1.05    15.999
   16778      ob       1    MUSC   O02n4       1     -1.05    15.999
   16779      ob       1    MUSC   O02n5       1     -1.05    15.999
   16780      ob       1    MUSC   O02n6       1     -1.05    15.999
   16781      oh       1    MUSC   O02n7       1     -0.95    15.999
   16782      oh       1    MUSC   O02n8       1     -0.95    15.999
   16783      oh       1    MUSC   O02n9       1     -0.95    15.999
   16784      oh       1    MUSC   O02nA       1     -0.95    15.999
   16785      ob       1    MUSC   O02nB       1     -1.05    15.999
   16786      ob       1    MUSC   O02nC       1     -1.05    15.999
   16787      ob       1    MUSC   O02nD       1     -1.05    15.999
   16788      ob       1    MUSC   O02nE       1     -1.05    15.999
   16789      ob       1    MUSC   O02nF       1     -1.05    15.999
   16790      ob       1    MUSC   O02nG       1     -1.05    15.999
   16791      ob       1    MUSC   O02nH       1     -1.05    15.999
   16792      ob       1    MUSC   O02nI       1     -1.05    15.999
   16793      ob       1    MUSC   O02nJ       1     -1.05    15.999
   16794      ob       1    MUSC   O02nK       1     -1.05    15.999
   16795      ob       1    MUSC   O02nL       1     -1.05    15.999
   16796      ob       1    MUSC   O02nM       1     -1.05    15.999
   16797      ob       1    MUSC   O02nN       1     -1.05    15.999
   16798      ob       1    MUSC   O02nO       1     -1.05    15.999
   16799      ob       1    MUSC   O02nP       1     -1.05    15.999
   16800      ob       1    MUSC   O02nQ       1     -1.05    15.999
   16801       K       1    MUSC   K00Ar       1       1.0    39.098
   16802       K       1    MUSC   K00As       1       1.0    39.098
   16803      ao       1    MUSC   Al0Sv       1     1.575    26.982
   16804      ao       1    MUSC   Al0Sw       1     1.575    26.982
   16805      ao       1    MUSC   Al0Sx       1     1.575    26.982
   16806      ao       1    MUSC   Al0Sy       1     1.575    26.982
   16807      ao       1    MUSC   Al0Sz       1     1.575    26.982
   16808      ao       1    MUSC   Al0T0       1     1.575    26.982
   16809      ao       1    MUSC   Al0T1       1     1.575    26.982
   16810      ao       1    MUSC   Al0T2       1     1.575    26.982
   16811      st       1    MUSC   Si0vp       1       2.1    28.086
   16812      st       1    MUSC   Si0vq       1       2.1    28.086
   16813      st       1    MUSC   Si0vr       1       2.1    28.086
   16814      st       1    MUSC   Si0vs       1       2.1    28.086
   16815      st       1    MUSC   Si0vt       1       2.1    28.086
   16816      st       1    MUSC   Si0vu       1       2.1    28.086
   16817      st       1    MUSC   Si0vv       1       2.1    28.086
   16818      st       1    MUSC   Si0vw       1       2.1    28.086
   16819      st       1    MUSC   Si0vx       1       2.1    28.086
   16820      st       1    MUSC   Si0vy       1       2.1    28.086
   16821      st       1    MUSC   Si0vz       1       2.1    28.086
   16822      st       1    MUSC   Si0w0       1       2.1    28.086
   16823      st       1    MUSC   Si0w1       1       2.1    28.086
   16824      st       1    MUSC   Si0w2       1       2.1    28.086
   16825      st       1    MUSC   Si0w3       1       2.1    28.086
   16826      st       1    MUSC   Si0w4       1       2.1    28.086
   16827      ob       1    MUSC   O02nR       1     -1.05    15.999
   16828      ob       1    MUSC   O02nS       1     -1.05    15.999
   16829      ob       1    MUSC   O02nT       1     -1.05    15.999
   16830      ob       1    MUSC   O02nU       1     -1.05    15.999
   16831      oh       1    MUSC   O02nV       1     -0.95    15.999
   16832      oh       1    MUSC   O02nW       1     -0.95    15.999
   16833      oh       1    MUSC   O02nX       1     -0.95    15.999
   16834      oh       1    MUSC   O02nY       1     -0.95    15.999
   16835      ob       1    MUSC   O02nZ       1     -1.05    15.999
   16836      ob       1    MUSC   O02na       1     -1.05    15.999
   16837      ob       1    MUSC   O02nb       1     -1.05    15.999
   16838      ob       1    MUSC   O02nc       1     -1.05    15.999
   16839      ob       1    MUSC   O02nd       1     -1.05    15.999
   16840      ob       1    MUSC   O02ne       1     -1.05    15.999
   16841      ob       1    MUSC   O02nf       1     -1.05    15.999
   16842      ob       1    MUSC   O02ng       1     -1.05    15.999
   16843      ob       1    MUSC   O02nh       1     -1.05    15.999
   16844      ob       1    MUSC   O02ni       1     -1.05    15.999
   16845      ob       1    MUSC   O02nj       1     -1.05    15.999
   16846      ob       1    MUSC   O02nk       1     -1.05    15.999
   16847      ob       1    MUSC   O02nl       1     -1.05    15.999
   16848      ob       1    MUSC   O02nm       1     -1.05    15.999
   16849      ob       1    MUSC   O02nn       1     -1.05    15.999
   16850      ob       1    MUSC   O02no       1     -1.05    15.999
   16851      ob       1    MUSC   O02np       1     -1.05    15.999
   16852      ob       1    MUSC   O02nq       1     -1.05    15.999
   16853      ob       1    MUSC   O02nr       1     -1.05    15.999
   16854      ob       1    MUSC   O02ns       1     -1.05    15.999
   16855      oh       1    MUSC   O02nt       1     -0.95    15.999
   16856      oh       1    MUSC   O02nu       1     -0.95    15.999
   16857      oh       1    MUSC   O02nv       1     -0.95    15.999
   16858      oh       1    MUSC   O02nw       1     -0.95    15.999
   16859      ob       1    MUSC   O02nx       1     -1.05    15.999
   16860      ob       1    MUSC   O02ny       1     -1.05    15.999
   16861      ob       1    MUSC   O02nz       1     -1.05    15.999
   16862      ob       1    MUSC   O02o0       1     -1.05    15.999
   16863      ob       1    MUSC   O02o1       1     -1.05    15.999
   16864      ob       1    MUSC   O02o2       1     -1.05    15.999
   16865      ob       1    MUSC   O02o3       1     -1.05    15.999
   16866      ob       1    MUSC   O02o4       1     -1.05    15.999
   16867      ob       1    MUSC   O02o5       1     -1.05    15.999
   16868      ob       1    MUSC   O02o6       1     -1.05    15.999
   16869      ob       1    MUSC   O02o7       1     -1.05    15.999
   16870      ob       1    MUSC   O02o8       1     -1.05    15.999
   16871      ob       1    MUSC   O02o9       1     -1.05    15.999
   16872      ob       1    MUSC   O02oA       1     -1.05    15.999
   16873      ob       1    MUSC   O02oB       1     -1.05    15.999
   16874      ob       1    MUSC   O02oC       1     -1.05    15.999
   16875       K       1    MUSC   K00At       1       1.0    39.098
   16876       K       1    MUSC   K00Au       1       1.0    39.098
   16877       K       1    MUSC   K00Av       1       1.0    39.098
   16878       K       1    MUSC   K00Aw       1       1.0    39.098
   16879      ao       1    MUSC   Al0T3       1     1.575    26.982
   16880      ao       1    MUSC   Al0T4       1     1.575    26.982
   16881      ao       1    MUSC   Al0T5       1     1.575    26.982
   16882      ao       1    MUSC   Al0T6       1     1.575    26.982
   16883      ao       1    MUSC   Al0T7       1     1.575    26.982
   16884      ao       1    MUSC   Al0T8       1     1.575    26.982
   16885      ao       1    MUSC   Al0T9       1     1.575    26.982
   16886      ao       1    MUSC   Al0TA       1     1.575    26.982
   16887      st       1    MUSC   Si0w5       1       2.1    28.086
   16888      st       1    MUSC   Si0w6       1       2.1    28.086
   16889      st       1    MUSC   Si0w7       1       2.1    28.086
   16890      st       1    MUSC   Si0w8       1       2.1    28.086
   16891      st       1    MUSC   Si0w9       1       2.1    28.086
   16892      st       1    MUSC   Si0wA       1       2.1    28.086
   16893      st       1    MUSC   Si0wB       1       2.1    28.086
   16894      st       1    MUSC   Si0wC       1       2.1    28.086
   16895      st       1    MUSC   Si0wD       1       2.1    28.086
   16896      st       1    MUSC   Si0wE       1       2.1    28.086
   16897      st       1    MUSC   Si0wF       1       2.1    28.086
   16898      st       1    MUSC   Si0wG       1       2.1    28.086
   16899      st       1    MUSC   Si0wH       1       2.1    28.086
   16900      st       1    MUSC   Si0wI       1       2.1    28.086
   16901      st       1    MUSC   Si0wJ       1       2.1    28.086
   16902      st       1    MUSC   Si0wK       1       2.1    28.086
   16903      ob       1    MUSC   O02oD       1     -1.05    15.999
   16904      ob       1    MUSC   O02oE       1     -1.05    15.999
   16905      ob       1    MUSC   O02oF       1     -1.05    15.999
   16906      ob       1    MUSC   O02oG       1     -1.05    15.999
   16907      oh       1    MUSC   O02oH       1     -0.95    15.999
   16908      oh       1    MUSC   O02oI       1     -0.95    15.999
   16909      oh       1    MUSC   O02oJ       1     -0.95    15.999
   16910      oh       1    MUSC   O02oK       1     -0.95    15.999
   16911      ob       1    MUSC   O02oL       1     -1.05    15.999
   16912      ob       1    MUSC   O02oM       1     -1.05    15.999
   16913      ob       1    MUSC   O02oN       1     -1.05    15.999
   16914      ob       1    MUSC   O02oO       1     -1.05    15.999
   16915      ob       1    MUSC   O02oP       1     -1.05    15.999
   16916      ob       1    MUSC   O02oQ       1     -1.05    15.999
   16917      ob       1    MUSC   O02oR       1     -1.05    15.999
   16918      ob       1    MUSC   O02oS       1     -1.05    15.999
   16919      ob       1    MUSC   O02oT       1     -1.05    15.999
   16920      ob       1    MUSC   O02oU       1     -1.05    15.999
   16921      ob       1    MUSC   O02oV       1     -1.05    15.999
   16922      ob       1    MUSC   O02oW       1     -1.05    15.999
   16923      ob       1    MUSC   O02oX       1     -1.05    15.999
   16924      ob       1    MUSC   O02oY       1     -1.05    15.999
   16925      ob       1    MUSC   O02oZ       1     -1.05    15.999
   16926      ob       1    MUSC   O02oa       1     -1.05    15.999
   16927      ob       1    MUSC   O02ob       1     -1.05    15.999
   16928      ob       1    MUSC   O02oc       1     -1.05    15.999
   16929      ob       1    MUSC   O02od       1     -1.05    15.999
   16930      ob       1    MUSC   O02oe       1     -1.05    15.999
   16931      oh       1    MUSC   O02of       1     -0.95    15.999
   16932      oh       1    MUSC   O02og       1     -0.95    15.999
   16933      oh       1    MUSC   O02oh       1     -0.95    15.999
   16934      oh       1    MUSC   O02oi       1     -0.95    15.999
   16935      ob       1    MUSC   O02oj       1     -1.05    15.999
   16936      ob       1    MUSC   O02ok       1     -1.05    15.999
   16937      ob       1    MUSC   O02ol       1     -1.05    15.999
   16938      ob       1    MUSC   O02om       1     -1.05    15.999
   16939      ob       1    MUSC   O02on       1     -1.05    15.999
   16940      ob       1    MUSC   O02oo       1     -1.05    15.999
   16941      ob       1    MUSC   O02op       1     -1.05    15.999
   16942      ob       1    MUSC   O02oq       1     -1.05    15.999
   16943      ob       1    MUSC   O02or       1     -1.05    15.999
   16944      ob       1    MUSC   O02os       1     -1.05    15.999
   16945      ob       1    MUSC   O02ot       1     -1.05    15.999
   16946      ob       1    MUSC   O02ou       1     -1.05    15.999
   16947      ob       1    MUSC   O02ov       1     -1.05    15.999
   16948      ob       1    MUSC   O02ow       1     -1.05    15.999
   16949      ob       1    MUSC   O02ox       1     -1.05    15.999
   16950      ob       1    MUSC   O02oy       1     -1.05    15.999
   16951       K       1    MUSC   K00Ax       1       1.0    39.098
   16952       K       1    MUSC   K00Ay       1       1.0    39.098
   16953      ao       1    MUSC   Al0TB       1     1.575    26.982
   16954      ao       1    MUSC   Al0TC       1     1.575    26.982
   16955      ao       1    MUSC   Al0TD       1     1.575    26.982
   16956      ao       1    MUSC   Al0TE       1     1.575    26.982
   16957      ao       1    MUSC   Al0TF       1     1.575    26.982
   16958      ao       1    MUSC   Al0TG       1     1.575    26.982
   16959      ao       1    MUSC   Al0TH       1     1.575    26.982
   16960      ao       1    MUSC   Al0TI       1     1.575    26.982
   16961      st       1    MUSC   Si0wL       1       2.1    28.086
   16962      st       1    MUSC   Si0wM       1       2.1    28.086
   16963      st       1    MUSC   Si0wN       1       2.1    28.086
   16964      st       1    MUSC   Si0wO       1       2.1    28.086
   16965      st       1    MUSC   Si0wP       1       2.1    28.086
   16966      st       1    MUSC   Si0wQ       1       2.1    28.086
   16967      st       1    MUSC   Si0wR       1       2.1    28.086
   16968      st       1    MUSC   Si0wS       1       2.1    28.086
   16969      st       1    MUSC   Si0wT       1       2.1    28.086
   16970      st       1    MUSC   Si0wU       1       2.1    28.086
   16971      st       1    MUSC   Si0wV       1       2.1    28.086
   16972      st       1    MUSC   Si0wW       1       2.1    28.086
   16973      st       1    MUSC   Si0wX       1       2.1    28.086
   16974      st       1    MUSC   Si0wY       1       2.1    28.086
   16975      st       1    MUSC   Si0wZ       1       2.1    28.086
   16976      st       1    MUSC   Si0wa       1       2.1    28.086
   16977      ob       1    MUSC   O02oz       1     -1.05    15.999
   16978      ob       1    MUSC   O02p0       1     -1.05    15.999
   16979      ob       1    MUSC   O02p1       1     -1.05    15.999
   16980      ob       1    MUSC   O02p2       1     -1.05    15.999
   16981      oh       1    MUSC   O02p3       1     -0.95    15.999
   16982      oh       1    MUSC   O02p4       1     -0.95    15.999
   16983      oh       1    MUSC   O02p5       1     -0.95    15.999
   16984      oh       1    MUSC   O02p6       1     -0.95    15.999
   16985      ob       1    MUSC   O02p7       1     -1.05    15.999
   16986      ob       1    MUSC   O02p8       1     -1.05    15.999
   16987      ob       1    MUSC   O02p9       1     -1.05    15.999
   16988      ob       1    MUSC   O02pA       1     -1.05    15.999
   16989      ob       1    MUSC   O02pB       1     -1.05    15.999
   16990      ob       1    MUSC   O02pC       1     -1.05    15.999
   16991      ob       1    MUSC   O02pD       1     -1.05    15.999
   16992      ob       1    MUSC   O02pE       1     -1.05    15.999
   16993      ob       1    MUSC   O02pF       1     -1.05    15.999
   16994      ob       1    MUSC   O02pG       1     -1.05    15.999
   16995      ob       1    MUSC   O02pH       1     -1.05    15.999
   16996      ob       1    MUSC   O02pI       1     -1.05    15.999
   16997      ob       1    MUSC   O02pJ       1     -1.05    15.999
   16998      ob       1    MUSC   O02pK       1     -1.05    15.999
   16999      ob       1    MUSC   O02pL       1     -1.05    15.999
   17000      ob       1    MUSC   O02pM       1     -1.05    15.999
   17001      ob       1    MUSC   O02pN       1     -1.05    15.999
   17002      ob       1    MUSC   O02pO       1     -1.05    15.999
   17003      ob       1    MUSC   O02pP       1     -1.05    15.999
   17004      ob       1    MUSC   O02pQ       1     -1.05    15.999
   17005      oh       1    MUSC   O02pR       1     -0.95    15.999
   17006      oh       1    MUSC   O02pS       1     -0.95    15.999
   17007      oh       1    MUSC   O02pT       1     -0.95    15.999
   17008      oh       1    MUSC   O02pU       1     -0.95    15.999
   17009      ob       1    MUSC   O02pV       1     -1.05    15.999
   17010      ob       1    MUSC   O02pW       1     -1.05    15.999
   17011      ob       1    MUSC   O02pX       1     -1.05    15.999
   17012      ob       1    MUSC   O02pY       1     -1.05    15.999
   17013      ob       1    MUSC   O02pZ       1     -1.05    15.999
   17014      ob       1    MUSC   O02pa       1     -1.05    15.999
   17015      ob       1    MUSC   O02pb       1     -1.05    15.999
   17016      ob       1    MUSC   O02pc       1     -1.05    15.999
   17017      ob       1    MUSC   O02pd       1     -1.05    15.999
   17018      ob       1    MUSC   O02pe       1     -1.05    15.999
   17019      ob       1    MUSC   O02pf       1     -1.05    15.999
   17020      ob       1    MUSC   O02pg       1     -1.05    15.999
   17021      ob       1    MUSC   O02ph       1     -1.05    15.999
   17022      ob       1    MUSC   O02pi       1     -1.05    15.999
   17023      ob       1    MUSC   O02pj       1     -1.05    15.999
   17024      ob       1    MUSC   O02pk       1     -1.05    15.999
   17025       K       1    MUSC   K00Az       1       1.0    39.098
   17026       K       1    MUSC   K00B0       1       1.0    39.098
   17027       K       1    MUSC   K00B1       1       1.0    39.098
   17028       K       1    MUSC   K00B2       1       1.0    39.098
   17029      ao       1    MUSC   Al0TJ       1     1.575    26.982
   17030      ao       1    MUSC   Al0TK       1     1.575    26.982
   17031      ao       1    MUSC   Al0TL       1     1.575    26.982
   17032      ao       1    MUSC   Al0TM       1     1.575    26.982
   17033      ao       1    MUSC   Al0TN       1     1.575    26.982
   17034      ao       1    MUSC   Al0TO       1     1.575    26.982
   17035      ao       1    MUSC   Al0TP       1     1.575    26.982
   17036      ao       1    MUSC   Al0TQ       1     1.575    26.982
   17037      st       1    MUSC   Si0wb       1       2.1    28.086
   17038      st       1    MUSC   Si0wc       1       2.1    28.086
   17039      st       1    MUSC   Si0wd       1       2.1    28.086
   17040      st       1    MUSC   Si0we       1       2.1    28.086
   17041      st       1    MUSC   Si0wf       1       2.1    28.086
   17042      st       1    MUSC   Si0wg       1       2.1    28.086
   17043      st       1    MUSC   Si0wh       1       2.1    28.086
   17044      st       1    MUSC   Si0wi       1       2.1    28.086
   17045      st       1    MUSC   Si0wj       1       2.1    28.086
   17046      st       1    MUSC   Si0wk       1       2.1    28.086
   17047      st       1    MUSC   Si0wl       1       2.1    28.086
   17048      st       1    MUSC   Si0wm       1       2.1    28.086
   17049      st       1    MUSC   Si0wn       1       2.1    28.086
   17050      st       1    MUSC   Si0wo       1       2.1    28.086
   17051      st       1    MUSC   Si0wp       1       2.1    28.086
   17052      st       1    MUSC   Si0wq       1       2.1    28.086
   17053      ob       1    MUSC   O02pl       1     -1.05    15.999
   17054      ob       1    MUSC   O02pm       1     -1.05    15.999
   17055      ob       1    MUSC   O02pn       1     -1.05    15.999
   17056      ob       1    MUSC   O02po       1     -1.05    15.999
   17057      oh       1    MUSC   O02pp       1     -0.95    15.999
   17058      oh       1    MUSC   O02pq       1     -0.95    15.999
   17059      oh       1    MUSC   O02pr       1     -0.95    15.999
   17060      oh       1    MUSC   O02ps       1     -0.95    15.999
   17061      ob       1    MUSC   O02pt       1     -1.05    15.999
   17062      ob       1    MUSC   O02pu       1     -1.05    15.999
   17063      ob       1    MUSC   O02pv       1     -1.05    15.999
   17064      ob       1    MUSC   O02pw       1     -1.05    15.999
   17065      ob       1    MUSC   O02px       1     -1.05    15.999
   17066      ob       1    MUSC   O02py       1     -1.05    15.999
   17067      ob       1    MUSC   O02pz       1     -1.05    15.999
   17068      ob       1    MUSC   O02q0       1     -1.05    15.999
   17069      ob       1    MUSC   O02q1       1     -1.05    15.999
   17070      ob       1    MUSC   O02q2       1     -1.05    15.999
   17071      ob       1    MUSC   O02q3       1     -1.05    15.999
   17072      ob       1    MUSC   O02q4       1     -1.05    15.999
   17073      ob       1    MUSC   O02q5       1     -1.05    15.999
   17074      ob       1    MUSC   O02q6       1     -1.05    15.999
   17075      ob       1    MUSC   O02q7       1     -1.05    15.999
   17076      ob       1    MUSC   O02q8       1     -1.05    15.999
   17077      ob       1    MUSC   O02q9       1     -1.05    15.999
   17078      ob       1    MUSC   O02qA       1     -1.05    15.999
   17079      ob       1    MUSC   O02qB       1     -1.05    15.999
   17080      ob       1    MUSC   O02qC       1     -1.05    15.999
   17081      oh       1    MUSC   O02qD       1     -0.95    15.999
   17082      oh       1    MUSC   O02qE       1     -0.95    15.999
   17083      oh       1    MUSC   O02qF       1     -0.95    15.999
   17084      oh       1    MUSC   O02qG       1     -0.95    15.999
   17085      ob       1    MUSC   O02qH       1     -1.05    15.999
   17086      ob       1    MUSC   O02qI       1     -1.05    15.999
   17087      ob       1    MUSC   O02qJ       1     -1.05    15.999
   17088      ob       1    MUSC   O02qK       1     -1.05    15.999
   17089      ob       1    MUSC   O02qL       1     -1.05    15.999
   17090      ob       1    MUSC   O02qM       1     -1.05    15.999
   17091      ob       1    MUSC   O02qN       1     -1.05    15.999
   17092      ob       1    MUSC   O02qO       1     -1.05    15.999
   17093      ob       1    MUSC   O02qP       1     -1.05    15.999
   17094      ob       1    MUSC   O02qQ       1     -1.05    15.999
   17095      ob       1    MUSC   O02qR       1     -1.05    15.999
   17096      ob       1    MUSC   O02qS       1     -1.05    15.999
   17097      ob       1    MUSC   O02qT       1     -1.05    15.999
   17098      ob       1    MUSC   O02qU       1     -1.05    15.999
   17099      ob       1    MUSC   O02qV       1     -1.05    15.999
   17100      ob       1    MUSC   O02qW       1     -1.05    15.999
   17101       K       1    MUSC   K00B3       1       1.0    39.098
   17102       K       1    MUSC   K00B4       1       1.0    39.098
   17103      ao       1    MUSC   Al0TR       1     1.575    26.982
   17104      ao       1    MUSC   Al0TS       1     1.575    26.982
   17105      ao       1    MUSC   Al0TT       1     1.575    26.982
   17106      ao       1    MUSC   Al0TU       1     1.575    26.982
   17107      ao       1    MUSC   Al0TV       1     1.575    26.982
   17108      ao       1    MUSC   Al0TW       1     1.575    26.982
   17109      ao       1    MUSC   Al0TX       1     1.575    26.982
   17110      ao       1    MUSC   Al0TY       1     1.575    26.982
   17111      st       1    MUSC   Si0wr       1       2.1    28.086
   17112      st       1    MUSC   Si0ws       1       2.1    28.086
   17113      st       1    MUSC   Si0wt       1       2.1    28.086
   17114      st       1    MUSC   Si0wu       1       2.1    28.086
   17115      st       1    MUSC   Si0wv       1       2.1    28.086
   17116      st       1    MUSC   Si0ww       1       2.1    28.086
   17117      st       1    MUSC   Si0wx       1       2.1    28.086
   17118      st       1    MUSC   Si0wy       1       2.1    28.086
   17119      st       1    MUSC   Si0wz       1       2.1    28.086
   17120      st       1    MUSC   Si0x0       1       2.1    28.086
   17121      st       1    MUSC   Si0x1       1       2.1    28.086
   17122      st       1    MUSC   Si0x2       1       2.1    28.086
   17123      st       1    MUSC   Si0x3       1       2.1    28.086
   17124      st       1    MUSC   Si0x4       1       2.1    28.086
   17125      st       1    MUSC   Si0x5       1       2.1    28.086
   17126      st       1    MUSC   Si0x6       1       2.1    28.086
   17127      ob       1    MUSC   O02qX       1     -1.05    15.999
   17128      ob       1    MUSC   O02qY       1     -1.05    15.999
   17129      ob       1    MUSC   O02qZ       1     -1.05    15.999
   17130      ob       1    MUSC   O02qa       1     -1.05    15.999
   17131      oh       1    MUSC   O02qb       1     -0.95    15.999
   17132      oh       1    MUSC   O02qc       1     -0.95    15.999
   17133      oh       1    MUSC   O02qd       1     -0.95    15.999
   17134      oh       1    MUSC   O02qe       1     -0.95    15.999
   17135      ob       1    MUSC   O02qf       1     -1.05    15.999
   17136      ob       1    MUSC   O02qg       1     -1.05    15.999
   17137      ob       1    MUSC   O02qh       1     -1.05    15.999
   17138      ob       1    MUSC   O02qi       1     -1.05    15.999
   17139      ob       1    MUSC   O02qj       1     -1.05    15.999
   17140      ob       1    MUSC   O02qk       1     -1.05    15.999
   17141      ob       1    MUSC   O02ql       1     -1.05    15.999
   17142      ob       1    MUSC   O02qm       1     -1.05    15.999
   17143      ob       1    MUSC   O02qn       1     -1.05    15.999
   17144      ob       1    MUSC   O02qo       1     -1.05    15.999
   17145      ob       1    MUSC   O02qp       1     -1.05    15.999
   17146      ob       1    MUSC   O02qq       1     -1.05    15.999
   17147      ob       1    MUSC   O02qr       1     -1.05    15.999
   17148      ob       1    MUSC   O02qs       1     -1.05    15.999
   17149      ob       1    MUSC   O02qt       1     -1.05    15.999
   17150      ob       1    MUSC   O02qu       1     -1.05    15.999
   17151      ob       1    MUSC   O02qv       1     -1.05    15.999
   17152      ob       1    MUSC   O02qw       1     -1.05    15.999
   17153      ob       1    MUSC   O02qx       1     -1.05    15.999
   17154      ob       1    MUSC   O02qy       1     -1.05    15.999
   17155      oh       1    MUSC   O02qz       1     -0.95    15.999
   17156      oh       1    MUSC   O02r0       1     -0.95    15.999
   17157      oh       1    MUSC   O02r1       1     -0.95    15.999
   17158      oh       1    MUSC   O02r2       1     -0.95    15.999
   17159      ob       1    MUSC   O02r3       1     -1.05    15.999
   17160      ob       1    MUSC   O02r4       1     -1.05    15.999
   17161      ob       1    MUSC   O02r5       1     -1.05    15.999
   17162      ob       1    MUSC   O02r6       1     -1.05    15.999
   17163      ob       1    MUSC   O02r7       1     -1.05    15.999
   17164      ob       1    MUSC   O02r8       1     -1.05    15.999
   17165      ob       1    MUSC   O02r9       1     -1.05    15.999
   17166      ob       1    MUSC   O02rA       1     -1.05    15.999
   17167      ob       1    MUSC   O02rB       1     -1.05    15.999
   17168      ob       1    MUSC   O02rC       1     -1.05    15.999
   17169      ob       1    MUSC   O02rD       1     -1.05    15.999
   17170      ob       1    MUSC   O02rE       1     -1.05    15.999
   17171      ob       1    MUSC   O02rF       1     -1.05    15.999
   17172      ob       1    MUSC   O02rG       1     -1.05    15.999
   17173      ob       1    MUSC   O02rH       1     -1.05    15.999
   17174      ob       1    MUSC   O02rI       1     -1.05    15.999
   17175       K       1    MUSC   K00B5       1       1.0    39.098
   17176       K       1    MUSC   K00B6       1       1.0    39.098
   17177       K       1    MUSC   K00B7       1       1.0    39.098
   17178       K       1    MUSC   K00B8       1       1.0    39.098
   17179      ao       1    MUSC   Al0TZ       1     1.575    26.982
   17180      ao       1    MUSC   Al0Ta       1     1.575    26.982
   17181      ao       1    MUSC   Al0Tb       1     1.575    26.982
   17182      ao       1    MUSC   Al0Tc       1     1.575    26.982
   17183      ao       1    MUSC   Al0Td       1     1.575    26.982
   17184      ao       1    MUSC   Al0Te       1     1.575    26.982
   17185      ao       1    MUSC   Al0Tf       1     1.575    26.982
   17186      ao       1    MUSC   Al0Tg       1     1.575    26.982
   17187      st       1    MUSC   Si0x7       1       2.1    28.086
   17188      st       1    MUSC   Si0x8       1       2.1    28.086
   17189      st       1    MUSC   Si0x9       1       2.1    28.086
   17190      st       1    MUSC   Si0xA       1       2.1    28.086
   17191      st       1    MUSC   Si0xB       1       2.1    28.086
   17192      st       1    MUSC   Si0xC       1       2.1    28.086
   17193      st       1    MUSC   Si0xD       1       2.1    28.086
   17194      st       1    MUSC   Si0xE       1       2.1    28.086
   17195      st       1    MUSC   Si0xF       1       2.1    28.086
   17196      st       1    MUSC   Si0xG       1       2.1    28.086
   17197      st       1    MUSC   Si0xH       1       2.1    28.086
   17198      st       1    MUSC   Si0xI       1       2.1    28.086
   17199      st       1    MUSC   Si0xJ       1       2.1    28.086
   17200      st       1    MUSC   Si0xK       1       2.1    28.086
   17201      st       1    MUSC   Si0xL       1       2.1    28.086
   17202      st       1    MUSC   Si0xM       1       2.1    28.086
   17203      ob       1    MUSC   O02rJ       1     -1.05    15.999
   17204      ob       1    MUSC   O02rK       1     -1.05    15.999
   17205      ob       1    MUSC   O02rL       1     -1.05    15.999
   17206      ob       1    MUSC   O02rM       1     -1.05    15.999
   17207      oh       1    MUSC   O02rN       1     -0.95    15.999
   17208      oh       1    MUSC   O02rO       1     -0.95    15.999
   17209      oh       1    MUSC   O02rP       1     -0.95    15.999
   17210      oh       1    MUSC   O02rQ       1     -0.95    15.999
   17211      ob       1    MUSC   O02rR       1     -1.05    15.999
   17212      ob       1    MUSC   O02rS       1     -1.05    15.999
   17213      ob       1    MUSC   O02rT       1     -1.05    15.999
   17214      ob       1    MUSC   O02rU       1     -1.05    15.999
   17215      ob       1    MUSC   O02rV       1     -1.05    15.999
   17216      ob       1    MUSC   O02rW       1     -1.05    15.999
   17217      ob       1    MUSC   O02rX       1     -1.05    15.999
   17218      ob       1    MUSC   O02rY       1     -1.05    15.999
   17219      ob       1    MUSC   O02rZ       1     -1.05    15.999
   17220      ob       1    MUSC   O02ra       1     -1.05    15.999
   17221      ob       1    MUSC   O02rb       1     -1.05    15.999
   17222      ob       1    MUSC   O02rc       1     -1.05    15.999
   17223      ob       1    MUSC   O02rd       1     -1.05    15.999
   17224      ob       1    MUSC   O02re       1     -1.05    15.999
   17225      ob       1    MUSC   O02rf       1     -1.05    15.999
   17226      ob       1    MUSC   O02rg       1     -1.05    15.999
   17227      ob       1    MUSC   O02rh       1     -1.05    15.999
   17228      ob       1    MUSC   O02ri       1     -1.05    15.999
   17229      ob       1    MUSC   O02rj       1     -1.05    15.999
   17230      ob       1    MUSC   O02rk       1     -1.05    15.999
   17231      oh       1    MUSC   O02rl       1     -0.95    15.999
   17232      oh       1    MUSC   O02rm       1     -0.95    15.999
   17233      oh       1    MUSC   O02rn       1     -0.95    15.999
   17234      oh       1    MUSC   O02ro       1     -0.95    15.999
   17235      ob       1    MUSC   O02rp       1     -1.05    15.999
   17236      ob       1    MUSC   O02rq       1     -1.05    15.999
   17237      ob       1    MUSC   O02rr       1     -1.05    15.999
   17238      ob       1    MUSC   O02rs       1     -1.05    15.999
   17239      ob       1    MUSC   O02rt       1     -1.05    15.999
   17240      ob       1    MUSC   O02ru       1     -1.05    15.999
   17241      ob       1    MUSC   O02rv       1     -1.05    15.999
   17242      ob       1    MUSC   O02rw       1     -1.05    15.999
   17243      ob       1    MUSC   O02rx       1     -1.05    15.999
   17244      ob       1    MUSC   O02ry       1     -1.05    15.999
   17245      ob       1    MUSC   O02rz       1     -1.05    15.999
   17246      ob       1    MUSC   O02s0       1     -1.05    15.999
   17247      ob       1    MUSC   O02s1       1     -1.05    15.999
   17248      ob       1    MUSC   O02s2       1     -1.05    15.999
   17249      ob       1    MUSC   O02s3       1     -1.05    15.999
   17250      ob       1    MUSC   O02s4       1     -1.05    15.999
   17251       K       1    MUSC   K00B9       1       1.0    39.098
   17252       K       1    MUSC   K00BA       1       1.0    39.098
   17253      ao       1    MUSC   Al0Th       1     1.575    26.982
   17254      ao       1    MUSC   Al0Ti       1     1.575    26.982
   17255      ao       1    MUSC   Al0Tj       1     1.575    26.982
   17256      ao       1    MUSC   Al0Tk       1     1.575    26.982
   17257      ao       1    MUSC   Al0Tl       1     1.575    26.982
   17258      ao       1    MUSC   Al0Tm       1     1.575    26.982
   17259      ao       1    MUSC   Al0Tn       1     1.575    26.982
   17260      ao       1    MUSC   Al0To       1     1.575    26.982
   17261      st       1    MUSC   Si0xN       1       2.1    28.086
   17262      st       1    MUSC   Si0xO       1       2.1    28.086
   17263      st       1    MUSC   Si0xP       1       2.1    28.086
   17264      st       1    MUSC   Si0xQ       1       2.1    28.086
   17265      st       1    MUSC   Si0xR       1       2.1    28.086
   17266      st       1    MUSC   Si0xS       1       2.1    28.086
   17267      st       1    MUSC   Si0xT       1       2.1    28.086
   17268      st       1    MUSC   Si0xU       1       2.1    28.086
   17269      st       1    MUSC   Si0xV       1       2.1    28.086
   17270      st       1    MUSC   Si0xW       1       2.1    28.086
   17271      st       1    MUSC   Si0xX       1       2.1    28.086
   17272      st       1    MUSC   Si0xY       1       2.1    28.086
   17273      st       1    MUSC   Si0xZ       1       2.1    28.086
   17274      st       1    MUSC   Si0xa       1       2.1    28.086
   17275      st       1    MUSC   Si0xb       1       2.1    28.086
   17276      st       1    MUSC   Si0xc       1       2.1    28.086
   17277      ob       1    MUSC   O02s5       1     -1.05    15.999
   17278      ob       1    MUSC   O02s6       1     -1.05    15.999
   17279      ob       1    MUSC   O02s7       1     -1.05    15.999
   17280      ob       1    MUSC   O02s8       1     -1.05    15.999
   17281      oh       1    MUSC   O02s9       1     -0.95    15.999
   17282      oh       1    MUSC   O02sA       1     -0.95    15.999
   17283      oh       1    MUSC   O02sB       1     -0.95    15.999
   17284      oh       1    MUSC   O02sC       1     -0.95    15.999
   17285      ob       1    MUSC   O02sD       1     -1.05    15.999
   17286      ob       1    MUSC   O02sE       1     -1.05    15.999
   17287      ob       1    MUSC   O02sF       1     -1.05    15.999
   17288      ob       1    MUSC   O02sG       1     -1.05    15.999
   17289      ob       1    MUSC   O02sH       1     -1.05    15.999
   17290      ob       1    MUSC   O02sI       1     -1.05    15.999
   17291      ob       1    MUSC   O02sJ       1     -1.05    15.999
   17292      ob       1    MUSC   O02sK       1     -1.05    15.999
   17293      ob       1    MUSC   O02sL       1     -1.05    15.999
   17294      ob       1    MUSC   O02sM       1     -1.05    15.999
   17295      ob       1    MUSC   O02sN       1     -1.05    15.999
   17296      ob       1    MUSC   O02sO       1     -1.05    15.999
   17297      ob       1    MUSC   O02sP       1     -1.05    15.999
   17298      ob       1    MUSC   O02sQ       1     -1.05    15.999
   17299      ob       1    MUSC   O02sR       1     -1.05    15.999
   17300      ob       1    MUSC   O02sS       1     -1.05    15.999
   17301      ob       1    MUSC   O02sT       1     -1.05    15.999
   17302      ob       1    MUSC   O02sU       1     -1.05    15.999
   17303      ob       1    MUSC   O02sV       1     -1.05    15.999
   17304      ob       1    MUSC   O02sW       1     -1.05    15.999
   17305      oh       1    MUSC   O02sX       1     -0.95    15.999
   17306      oh       1    MUSC   O02sY       1     -0.95    15.999
   17307      oh       1    MUSC   O02sZ       1     -0.95    15.999
   17308      oh       1    MUSC   O02sa       1     -0.95    15.999
   17309      ob       1    MUSC   O02sb       1     -1.05    15.999
   17310      ob       1    MUSC   O02sc       1     -1.05    15.999
   17311      ob       1    MUSC   O02sd       1     -1.05    15.999
   17312      ob       1    MUSC   O02se       1     -1.05    15.999
   17313      ob       1    MUSC   O02sf       1     -1.05    15.999
   17314      ob       1    MUSC   O02sg       1     -1.05    15.999
   17315      ob       1    MUSC   O02sh       1     -1.05    15.999
   17316      ob       1    MUSC   O02si       1     -1.05    15.999
   17317      ob       1    MUSC   O02sj       1     -1.05    15.999
   17318      ob       1    MUSC   O02sk       1     -1.05    15.999
   17319      ob       1    MUSC   O02sl       1     -1.05    15.999
   17320      ob       1    MUSC   O02sm       1     -1.05    15.999
   17321      ob       1    MUSC   O02sn       1     -1.05    15.999
   17322      ob       1    MUSC   O02so       1     -1.05    15.999
   17323      ob       1    MUSC   O02sp       1     -1.05    15.999
   17324      ob       1    MUSC   O02sq       1     -1.05    15.999
   17325       K       1    MUSC   K00BB       1       1.0    39.098
   17326       K       1    MUSC   K00BC       1       1.0    39.098
   17327       K       1    MUSC   K00BD       1       1.0    39.098
   17328       K       1    MUSC   K00BE       1       1.0    39.098
   17329      ao       1    MUSC   Al0Tp       1     1.575    26.982
   17330      ao       1    MUSC   Al0Tq       1     1.575    26.982
   17331      ao       1    MUSC   Al0Tr       1     1.575    26.982
   17332      ao       1    MUSC   Al0Ts       1     1.575    26.982
   17333      ao       1    MUSC   Al0Tt       1     1.575    26.982
   17334      ao       1    MUSC   Al0Tu       1     1.575    26.982
   17335      ao       1    MUSC   Al0Tv       1     1.575    26.982
   17336      ao       1    MUSC   Al0Tw       1     1.575    26.982
   17337      st       1    MUSC   Si0xd       1       2.1    28.086
   17338      st       1    MUSC   Si0xe       1       2.1    28.086
   17339      st       1    MUSC   Si0xf       1       2.1    28.086
   17340      st       1    MUSC   Si0xg       1       2.1    28.086
   17341      st       1    MUSC   Si0xh       1       2.1    28.086
   17342      st       1    MUSC   Si0xi       1       2.1    28.086
   17343      st       1    MUSC   Si0xj       1       2.1    28.086
   17344      st       1    MUSC   Si0xk       1       2.1    28.086
   17345      st       1    MUSC   Si0xl       1       2.1    28.086
   17346      st       1    MUSC   Si0xm       1       2.1    28.086
   17347      st       1    MUSC   Si0xn       1       2.1    28.086
   17348      st       1    MUSC   Si0xo       1       2.1    28.086
   17349      st       1    MUSC   Si0xp       1       2.1    28.086
   17350      st       1    MUSC   Si0xq       1       2.1    28.086
   17351      st       1    MUSC   Si0xr       1       2.1    28.086
   17352      st       1    MUSC   Si0xs       1       2.1    28.086
   17353      ob       1    MUSC   O02sr       1     -1.05    15.999
   17354      ob       1    MUSC   O02ss       1     -1.05    15.999
   17355      ob       1    MUSC   O02st       1     -1.05    15.999
   17356      ob       1    MUSC   O02su       1     -1.05    15.999
   17357      oh       1    MUSC   O02sv       1     -0.95    15.999
   17358      oh       1    MUSC   O02sw       1     -0.95    15.999
   17359      oh       1    MUSC   O02sx       1     -0.95    15.999
   17360      oh       1    MUSC   O02sy       1     -0.95    15.999
   17361      ob       1    MUSC   O02sz       1     -1.05    15.999
   17362      ob       1    MUSC   O02t0       1     -1.05    15.999
   17363      ob       1    MUSC   O02t1       1     -1.05    15.999
   17364      ob       1    MUSC   O02t2       1     -1.05    15.999
   17365      ob       1    MUSC   O02t3       1     -1.05    15.999
   17366      ob       1    MUSC   O02t4       1     -1.05    15.999
   17367      ob       1    MUSC   O02t5       1     -1.05    15.999
   17368      ob       1    MUSC   O02t6       1     -1.05    15.999
   17369      ob       1    MUSC   O02t7       1     -1.05    15.999
   17370      ob       1    MUSC   O02t8       1     -1.05    15.999
   17371      ob       1    MUSC   O02t9       1     -1.05    15.999
   17372      ob       1    MUSC   O02tA       1     -1.05    15.999
   17373      ob       1    MUSC   O02tB       1     -1.05    15.999
   17374      ob       1    MUSC   O02tC       1     -1.05    15.999
   17375      ob       1    MUSC   O02tD       1     -1.05    15.999
   17376      ob       1    MUSC   O02tE       1     -1.05    15.999
   17377      ob       1    MUSC   O02tF       1     -1.05    15.999
   17378      ob       1    MUSC   O02tG       1     -1.05    15.999
   17379      ob       1    MUSC   O02tH       1     -1.05    15.999
   17380      ob       1    MUSC   O02tI       1     -1.05    15.999
   17381      oh       1    MUSC   O02tJ       1     -0.95    15.999
   17382      oh       1    MUSC   O02tK       1     -0.95    15.999
   17383      oh       1    MUSC   O02tL       1     -0.95    15.999
   17384      oh       1    MUSC   O02tM       1     -0.95    15.999
   17385      ob       1    MUSC   O02tN       1     -1.05    15.999
   17386      ob       1    MUSC   O02tO       1     -1.05    15.999
   17387      ob       1    MUSC   O02tP       1     -1.05    15.999
   17388      ob       1    MUSC   O02tQ       1     -1.05    15.999
   17389      ob       1    MUSC   O02tR       1     -1.05    15.999
   17390      ob       1    MUSC   O02tS       1     -1.05    15.999
   17391      ob       1    MUSC   O02tT       1     -1.05    15.999
   17392      ob       1    MUSC   O02tU       1     -1.05    15.999
   17393      ob       1    MUSC   O02tV       1     -1.05    15.999
   17394      ob       1    MUSC   O02tW       1     -1.05    15.999
   17395      ob       1    MUSC   O02tX       1     -1.05    15.999
   17396      ob       1    MUSC   O02tY       1     -1.05    15.999
   17397      ob       1    MUSC   O02tZ       1     -1.05    15.999
   17398      ob       1    MUSC   O02ta       1     -1.05    15.999
   17399      ob       1    MUSC   O02tb       1     -1.05    15.999
   17400      ob       1    MUSC   O02tc       1     -1.05    15.999
   17401       K       1    MUSC   K00BF       1       1.0    39.098
   17402       K       1    MUSC   K00BG       1       1.0    39.098
   17403      ao       1    MUSC   Al0Tx       1     1.575    26.982
   17404      ao       1    MUSC   Al0Ty       1     1.575    26.982
   17405      ao       1    MUSC   Al0Tz       1     1.575    26.982
   17406      ao       1    MUSC   Al0U0       1     1.575    26.982
   17407      ao       1    MUSC   Al0U1       1     1.575    26.982
   17408      ao       1    MUSC   Al0U2       1     1.575    26.982
   17409      ao       1    MUSC   Al0U3       1     1.575    26.982
   17410      ao       1    MUSC   Al0U4       1     1.575    26.982
   17411      st       1    MUSC   Si0xt       1       2.1    28.086
   17412      st       1    MUSC   Si0xu       1       2.1    28.086
   17413      st       1    MUSC   Si0xv       1       2.1    28.086
   17414      st       1    MUSC   Si0xw       1       2.1    28.086
   17415      st       1    MUSC   Si0xx       1       2.1    28.086
   17416      st       1    MUSC   Si0xy       1       2.1    28.086
   17417      st       1    MUSC   Si0xz       1       2.1    28.086
   17418      st       1    MUSC   Si0y0       1       2.1    28.086
   17419      st       1    MUSC   Si0y1       1       2.1    28.086
   17420      st       1    MUSC   Si0y2       1       2.1    28.086
   17421      st       1    MUSC   Si0y3       1       2.1    28.086
   17422      st       1    MUSC   Si0y4       1       2.1    28.086
   17423      st       1    MUSC   Si0y5       1       2.1    28.086
   17424      st       1    MUSC   Si0y6       1       2.1    28.086
   17425      st       1    MUSC   Si0y7       1       2.1    28.086
   17426      st       1    MUSC   Si0y8       1       2.1    28.086
   17427      ob       1    MUSC   O02td       1     -1.05    15.999
   17428      ob       1    MUSC   O02te       1     -1.05    15.999
   17429      ob       1    MUSC   O02tf       1     -1.05    15.999
   17430      ob       1    MUSC   O02tg       1     -1.05    15.999
   17431      oh       1    MUSC   O02th       1     -0.95    15.999
   17432      oh       1    MUSC   O02ti       1     -0.95    15.999
   17433      oh       1    MUSC   O02tj       1     -0.95    15.999
   17434      oh       1    MUSC   O02tk       1     -0.95    15.999
   17435      ob       1    MUSC   O02tl       1     -1.05    15.999
   17436      ob       1    MUSC   O02tm       1     -1.05    15.999
   17437      ob       1    MUSC   O02tn       1     -1.05    15.999
   17438      ob       1    MUSC   O02to       1     -1.05    15.999
   17439      ob       1    MUSC   O02tp       1     -1.05    15.999
   17440      ob       1    MUSC   O02tq       1     -1.05    15.999
   17441      ob       1    MUSC   O02tr       1     -1.05    15.999
   17442      ob       1    MUSC   O02ts       1     -1.05    15.999
   17443      ob       1    MUSC   O02tt       1     -1.05    15.999
   17444      ob       1    MUSC   O02tu       1     -1.05    15.999
   17445      ob       1    MUSC   O02tv       1     -1.05    15.999
   17446      ob       1    MUSC   O02tw       1     -1.05    15.999
   17447      ob       1    MUSC   O02tx       1     -1.05    15.999
   17448      ob       1    MUSC   O02ty       1     -1.05    15.999
   17449      ob       1    MUSC   O02tz       1     -1.05    15.999
   17450      ob       1    MUSC   O02u0       1     -1.05    15.999
   17451      ob       1    MUSC   O02u1       1     -1.05    15.999
   17452      ob       1    MUSC   O02u2       1     -1.05    15.999
   17453      ob       1    MUSC   O02u3       1     -1.05    15.999
   17454      ob       1    MUSC   O02u4       1     -1.05    15.999
   17455      oh       1    MUSC   O02u5       1     -0.95    15.999
   17456      oh       1    MUSC   O02u6       1     -0.95    15.999
   17457      oh       1    MUSC   O02u7       1     -0.95    15.999
   17458      oh       1    MUSC   O02u8       1     -0.95    15.999
   17459      ob       1    MUSC   O02u9       1     -1.05    15.999
   17460      ob       1    MUSC   O02uA       1     -1.05    15.999
   17461      ob       1    MUSC   O02uB       1     -1.05    15.999
   17462      ob       1    MUSC   O02uC       1     -1.05    15.999
   17463      ob       1    MUSC   O02uD       1     -1.05    15.999
   17464      ob       1    MUSC   O02uE       1     -1.05    15.999
   17465      ob       1    MUSC   O02uF       1     -1.05    15.999
   17466      ob       1    MUSC   O02uG       1     -1.05    15.999
   17467      ob       1    MUSC   O02uH       1     -1.05    15.999
   17468      ob       1    MUSC   O02uI       1     -1.05    15.999
   17469      ob       1    MUSC   O02uJ       1     -1.05    15.999
   17470      ob       1    MUSC   O02uK       1     -1.05    15.999
   17471      ob       1    MUSC   O02uL       1     -1.05    15.999
   17472      ob       1    MUSC   O02uM       1     -1.05    15.999
   17473      ob       1    MUSC   O02uN       1     -1.05    15.999
   17474      ob       1    MUSC   O02uO       1     -1.05    15.999
   17475       K       1    MUSC   K00BH       1       1.0    39.098
   17476       K       1    MUSC   K00BI       1       1.0    39.098
   17477       K       1    MUSC   K00BJ       1       1.0    39.098
   17478       K       1    MUSC   K00BK       1       1.0    39.098
   17479      ao       1    MUSC   Al0U5       1     1.575    26.982
   17480      ao       1    MUSC   Al0U6       1     1.575    26.982
   17481      ao       1    MUSC   Al0U7       1     1.575    26.982
   17482      ao       1    MUSC   Al0U8       1     1.575    26.982
   17483      ao       1    MUSC   Al0U9       1     1.575    26.982
   17484      ao       1    MUSC   Al0UA       1     1.575    26.982
   17485      ao       1    MUSC   Al0UB       1     1.575    26.982
   17486      ao       1    MUSC   Al0UC       1     1.575    26.982
   17487      st       1    MUSC   Si0y9       1       2.1    28.086
   17488      st       1    MUSC   Si0yA       1       2.1    28.086
   17489      st       1    MUSC   Si0yB       1       2.1    28.086
   17490      st       1    MUSC   Si0yC       1       2.1    28.086
   17491      st       1    MUSC   Si0yD       1       2.1    28.086
   17492      st       1    MUSC   Si0yE       1       2.1    28.086
   17493      st       1    MUSC   Si0yF       1       2.1    28.086
   17494      st       1    MUSC   Si0yG       1       2.1    28.086
   17495      st       1    MUSC   Si0yH       1       2.1    28.086
   17496      st       1    MUSC   Si0yI       1       2.1    28.086
   17497      st       1    MUSC   Si0yJ       1       2.1    28.086
   17498      st       1    MUSC   Si0yK       1       2.1    28.086
   17499      st       1    MUSC   Si0yL       1       2.1    28.086
   17500      st       1    MUSC   Si0yM       1       2.1    28.086
   17501      st       1    MUSC   Si0yN       1       2.1    28.086
   17502      st       1    MUSC   Si0yO       1       2.1    28.086
   17503      ob       1    MUSC   O02uP       1     -1.05    15.999
   17504      ob       1    MUSC   O02uQ       1     -1.05    15.999
   17505      ob       1    MUSC   O02uR       1     -1.05    15.999
   17506      ob       1    MUSC   O02uS       1     -1.05    15.999
   17507      oh       1    MUSC   O02uT       1     -0.95    15.999
   17508      oh       1    MUSC   O02uU       1     -0.95    15.999
   17509      oh       1    MUSC   O02uV       1     -0.95    15.999
   17510      oh       1    MUSC   O02uW       1     -0.95    15.999
   17511      ob       1    MUSC   O02uX       1     -1.05    15.999
   17512      ob       1    MUSC   O02uY       1     -1.05    15.999
   17513      ob       1    MUSC   O02uZ       1     -1.05    15.999
   17514      ob       1    MUSC   O02ua       1     -1.05    15.999
   17515      ob       1    MUSC   O02ub       1     -1.05    15.999
   17516      ob       1    MUSC   O02uc       1     -1.05    15.999
   17517      ob       1    MUSC   O02ud       1     -1.05    15.999
   17518      ob       1    MUSC   O02ue       1     -1.05    15.999
   17519      ob       1    MUSC   O02uf       1     -1.05    15.999
   17520      ob       1    MUSC   O02ug       1     -1.05    15.999
   17521      ob       1    MUSC   O02uh       1     -1.05    15.999
   17522      ob       1    MUSC   O02ui       1     -1.05    15.999
   17523      ob       1    MUSC   O02uj       1     -1.05    15.999
   17524      ob       1    MUSC   O02uk       1     -1.05    15.999
   17525      ob       1    MUSC   O02ul       1     -1.05    15.999
   17526      ob       1    MUSC   O02um       1     -1.05    15.999
   17527      ob       1    MUSC   O02un       1     -1.05    15.999
   17528      ob       1    MUSC   O02uo       1     -1.05    15.999
   17529      ob       1    MUSC   O02up       1     -1.05    15.999
   17530      ob       1    MUSC   O02uq       1     -1.05    15.999
   17531      oh       1    MUSC   O02ur       1     -0.95    15.999
   17532      oh       1    MUSC   O02us       1     -0.95    15.999
   17533      oh       1    MUSC   O02ut       1     -0.95    15.999
   17534      oh       1    MUSC   O02uu       1     -0.95    15.999
   17535      ob       1    MUSC   O02uv       1     -1.05    15.999
   17536      ob       1    MUSC   O02uw       1     -1.05    15.999
   17537      ob       1    MUSC   O02ux       1     -1.05    15.999
   17538      ob       1    MUSC   O02uy       1     -1.05    15.999
   17539      ob       1    MUSC   O02uz       1     -1.05    15.999
   17540      ob       1    MUSC   O02v0       1     -1.05    15.999
   17541      ob       1    MUSC   O02v1       1     -1.05    15.999
   17542      ob       1    MUSC   O02v2       1     -1.05    15.999
   17543      ob       1    MUSC   O02v3       1     -1.05    15.999
   17544      ob       1    MUSC   O02v4       1     -1.05    15.999
   17545      ob       1    MUSC   O02v5       1     -1.05    15.999
   17546      ob       1    MUSC   O02v6       1     -1.05    15.999
   17547      ob       1    MUSC   O02v7       1     -1.05    15.999
   17548      ob       1    MUSC   O02v8       1     -1.05    15.999
   17549      ob       1    MUSC   O02v9       1     -1.05    15.999
   17550      ob       1    MUSC   O02vA       1     -1.05    15.999
   17551       K       1    MUSC   K00BL       1       1.0    39.098
   17552       K       1    MUSC   K00BM       1       1.0    39.098
   17553      ao       1    MUSC   Al0UD       1     1.575    26.982
   17554      ao       1    MUSC   Al0UE       1     1.575    26.982
   17555      ao       1    MUSC   Al0UF       1     1.575    26.982
   17556      ao       1    MUSC   Al0UG       1     1.575    26.982
   17557      ao       1    MUSC   Al0UH       1     1.575    26.982
   17558      ao       1    MUSC   Al0UI       1     1.575    26.982
   17559      ao       1    MUSC   Al0UJ       1     1.575    26.982
   17560      ao       1    MUSC   Al0UK       1     1.575    26.982
   17561      st       1    MUSC   Si0yP       1       2.1    28.086
   17562      st       1    MUSC   Si0yQ       1       2.1    28.086
   17563      st       1    MUSC   Si0yR       1       2.1    28.086
   17564      st       1    MUSC   Si0yS       1       2.1    28.086
   17565      st       1    MUSC   Si0yT       1       2.1    28.086
   17566      st       1    MUSC   Si0yU       1       2.1    28.086
   17567      st       1    MUSC   Si0yV       1       2.1    28.086
   17568      st       1    MUSC   Si0yW       1       2.1    28.086
   17569      st       1    MUSC   Si0yX       1       2.1    28.086
   17570      st       1    MUSC   Si0yY       1       2.1    28.086
   17571      st       1    MUSC   Si0yZ       1       2.1    28.086
   17572      st       1    MUSC   Si0ya       1       2.1    28.086
   17573      st       1    MUSC   Si0yb       1       2.1    28.086
   17574      st       1    MUSC   Si0yc       1       2.1    28.086
   17575      st       1    MUSC   Si0yd       1       2.1    28.086
   17576      st       1    MUSC   Si0ye       1       2.1    28.086
   17577      ob       1    MUSC   O02vB       1     -1.05    15.999
   17578      ob       1    MUSC   O02vC       1     -1.05    15.999
   17579      ob       1    MUSC   O02vD       1     -1.05    15.999
   17580      ob       1    MUSC   O02vE       1     -1.05    15.999
   17581      oh       1    MUSC   O02vF       1     -0.95    15.999
   17582      oh       1    MUSC   O02vG       1     -0.95    15.999
   17583      oh       1    MUSC   O02vH       1     -0.95    15.999
   17584      oh       1    MUSC   O02vI       1     -0.95    15.999
   17585      ob       1    MUSC   O02vJ       1     -1.05    15.999
   17586      ob       1    MUSC   O02vK       1     -1.05    15.999
   17587      ob       1    MUSC   O02vL       1     -1.05    15.999
   17588      ob       1    MUSC   O02vM       1     -1.05    15.999
   17589      ob       1    MUSC   O02vN       1     -1.05    15.999
   17590      ob       1    MUSC   O02vO       1     -1.05    15.999
   17591      ob       1    MUSC   O02vP       1     -1.05    15.999
   17592      ob       1    MUSC   O02vQ       1     -1.05    15.999
   17593      ob       1    MUSC   O02vR       1     -1.05    15.999
   17594      ob       1    MUSC   O02vS       1     -1.05    15.999
   17595      ob       1    MUSC   O02vT       1     -1.05    15.999
   17596      ob       1    MUSC   O02vU       1     -1.05    15.999
   17597      ob       1    MUSC   O02vV       1     -1.05    15.999
   17598      ob       1    MUSC   O02vW       1     -1.05    15.999
   17599      ob       1    MUSC   O02vX       1     -1.05    15.999
   17600      ob       1    MUSC   O02vY       1     -1.05    15.999
   17601      ob       1    MUSC   O02vZ       1     -1.05    15.999
   17602      ob       1    MUSC   O02va       1     -1.05    15.999
   17603      ob       1    MUSC   O02vb       1     -1.05    15.999
   17604      ob       1    MUSC   O02vc       1     -1.05    15.999
   17605      oh       1    MUSC   O02vd       1     -0.95    15.999
   17606      oh       1    MUSC   O02ve       1     -0.95    15.999
   17607      oh       1    MUSC   O02vf       1     -0.95    15.999
   17608      oh       1    MUSC   O02vg       1     -0.95    15.999
   17609      ob       1    MUSC   O02vh       1     -1.05    15.999
   17610      ob       1    MUSC   O02vi       1     -1.05    15.999
   17611      ob       1    MUSC   O02vj       1     -1.05    15.999
   17612      ob       1    MUSC   O02vk       1     -1.05    15.999
   17613      ob       1    MUSC   O02vl       1     -1.05    15.999
   17614      ob       1    MUSC   O02vm       1     -1.05    15.999
   17615      ob       1    MUSC   O02vn       1     -1.05    15.999
   17616      ob       1    MUSC   O02vo       1     -1.05    15.999
   17617      ob       1    MUSC   O02vp       1     -1.05    15.999
   17618      ob       1    MUSC   O02vq       1     -1.05    15.999
   17619      ob       1    MUSC   O02vr       1     -1.05    15.999
   17620      ob       1    MUSC   O02vs       1     -1.05    15.999
   17621      ob       1    MUSC   O02vt       1     -1.05    15.999
   17622      ob       1    MUSC   O02vu       1     -1.05    15.999
   17623      ob       1    MUSC   O02vv       1     -1.05    15.999
   17624      ob       1    MUSC   O02vw       1     -1.05    15.999
   17625       K       1    MUSC   K00BN       1       1.0    39.098
   17626       K       1    MUSC   K00BO       1       1.0    39.098
   17627       K       1    MUSC   K00BP       1       1.0    39.098
   17628       K       1    MUSC   K00BQ       1       1.0    39.098
   17629      ao       1    MUSC   Al0UL       1     1.575    26.982
   17630      ao       1    MUSC   Al0UM       1     1.575    26.982
   17631      ao       1    MUSC   Al0UN       1     1.575    26.982
   17632      ao       1    MUSC   Al0UO       1     1.575    26.982
   17633      ao       1    MUSC   Al0UP       1     1.575    26.982
   17634      ao       1    MUSC   Al0UQ       1     1.575    26.982
   17635      ao       1    MUSC   Al0UR       1     1.575    26.982
   17636      ao       1    MUSC   Al0US       1     1.575    26.982
   17637      st       1    MUSC   Si0yf       1       2.1    28.086
   17638      st       1    MUSC   Si0yg       1       2.1    28.086
   17639      st       1    MUSC   Si0yh       1       2.1    28.086
   17640      st       1    MUSC   Si0yi       1       2.1    28.086
   17641      st       1    MUSC   Si0yj       1       2.1    28.086
   17642      st       1    MUSC   Si0yk       1       2.1    28.086
   17643      st       1    MUSC   Si0yl       1       2.1    28.086
   17644      st       1    MUSC   Si0ym       1       2.1    28.086
   17645      st       1    MUSC   Si0yn       1       2.1    28.086
   17646      st       1    MUSC   Si0yo       1       2.1    28.086
   17647      st       1    MUSC   Si0yp       1       2.1    28.086
   17648      st       1    MUSC   Si0yq       1       2.1    28.086
   17649      st       1    MUSC   Si0yr       1       2.1    28.086
   17650      st       1    MUSC   Si0ys       1       2.1    28.086
   17651      st       1    MUSC   Si0yt       1       2.1    28.086
   17652      st       1    MUSC   Si0yu       1       2.1    28.086
   17653      ob       1    MUSC   O02vx       1     -1.05    15.999
   17654      ob       1    MUSC   O02vy       1     -1.05    15.999
   17655      ob       1    MUSC   O02vz       1     -1.05    15.999
   17656      ob       1    MUSC   O02w0       1     -1.05    15.999
   17657      oh       1    MUSC   O02w1       1     -0.95    15.999
   17658      oh       1    MUSC   O02w2       1     -0.95    15.999
   17659      oh       1    MUSC   O02w3       1     -0.95    15.999
   17660      oh       1    MUSC   O02w4       1     -0.95    15.999
   17661      ob       1    MUSC   O02w5       1     -1.05    15.999
   17662      ob       1    MUSC   O02w6       1     -1.05    15.999
   17663      ob       1    MUSC   O02w7       1     -1.05    15.999
   17664      ob       1    MUSC   O02w8       1     -1.05    15.999
   17665      ob       1    MUSC   O02w9       1     -1.05    15.999
   17666      ob       1    MUSC   O02wA       1     -1.05    15.999
   17667      ob       1    MUSC   O02wB       1     -1.05    15.999
   17668      ob       1    MUSC   O02wC       1     -1.05    15.999
   17669      ob       1    MUSC   O02wD       1     -1.05    15.999
   17670      ob       1    MUSC   O02wE       1     -1.05    15.999
   17671      ob       1    MUSC   O02wF       1     -1.05    15.999
   17672      ob       1    MUSC   O02wG       1     -1.05    15.999
   17673      ob       1    MUSC   O02wH       1     -1.05    15.999
   17674      ob       1    MUSC   O02wI       1     -1.05    15.999
   17675      ob       1    MUSC   O02wJ       1     -1.05    15.999
   17676      ob       1    MUSC   O02wK       1     -1.05    15.999
   17677      ob       1    MUSC   O02wL       1     -1.05    15.999
   17678      ob       1    MUSC   O02wM       1     -1.05    15.999
   17679      ob       1    MUSC   O02wN       1     -1.05    15.999
   17680      ob       1    MUSC   O02wO       1     -1.05    15.999
   17681      oh       1    MUSC   O02wP       1     -0.95    15.999
   17682      oh       1    MUSC   O02wQ       1     -0.95    15.999
   17683      oh       1    MUSC   O02wR       1     -0.95    15.999
   17684      oh       1    MUSC   O02wS       1     -0.95    15.999
   17685      ob       1    MUSC   O02wT       1     -1.05    15.999
   17686      ob       1    MUSC   O02wU       1     -1.05    15.999
   17687      ob       1    MUSC   O02wV       1     -1.05    15.999
   17688      ob       1    MUSC   O02wW       1     -1.05    15.999
   17689      ob       1    MUSC   O02wX       1     -1.05    15.999
   17690      ob       1    MUSC   O02wY       1     -1.05    15.999
   17691      ob       1    MUSC   O02wZ       1     -1.05    15.999
   17692      ob       1    MUSC   O02wa       1     -1.05    15.999
   17693      ob       1    MUSC   O02wb       1     -1.05    15.999
   17694      ob       1    MUSC   O02wc       1     -1.05    15.999
   17695      ob       1    MUSC   O02wd       1     -1.05    15.999
   17696      ob       1    MUSC   O02we       1     -1.05    15.999
   17697      ob       1    MUSC   O02wf       1     -1.05    15.999
   17698      ob       1    MUSC   O02wg       1     -1.05    15.999
   17699      ob       1    MUSC   O02wh       1     -1.05    15.999
   17700      ob       1    MUSC   O02wi       1     -1.05    15.999
   17701       K       1    MUSC   K00BR       1       1.0    39.098
   17702       K       1    MUSC   K00BS       1       1.0    39.098
   17703      ao       1    MUSC   Al0UT       1     1.575    26.982
   17704      ao       1    MUSC   Al0UU       1     1.575    26.982
   17705      ao       1    MUSC   Al0UV       1     1.575    26.982
   17706      ao       1    MUSC   Al0UW       1     1.575    26.982
   17707      ao       1    MUSC   Al0UX       1     1.575    26.982
   17708      ao       1    MUSC   Al0UY       1     1.575    26.982
   17709      ao       1    MUSC   Al0UZ       1     1.575    26.982
   17710      ao       1    MUSC   Al0Ua       1     1.575    26.982
   17711      st       1    MUSC   Si0yv       1       2.1    28.086
   17712      st       1    MUSC   Si0yw       1       2.1    28.086
   17713      st       1    MUSC   Si0yx       1       2.1    28.086
   17714      st       1    MUSC   Si0yy       1       2.1    28.086
   17715      st       1    MUSC   Si0yz       1       2.1    28.086
   17716      st       1    MUSC   Si0z0       1       2.1    28.086
   17717      st       1    MUSC   Si0z1       1       2.1    28.086
   17718      st       1    MUSC   Si0z2       1       2.1    28.086
   17719      st       1    MUSC   Si0z3       1       2.1    28.086
   17720      st       1    MUSC   Si0z4       1       2.1    28.086
   17721      st       1    MUSC   Si0z5       1       2.1    28.086
   17722      st       1    MUSC   Si0z6       1       2.1    28.086
   17723      st       1    MUSC   Si0z7       1       2.1    28.086
   17724      st       1    MUSC   Si0z8       1       2.1    28.086
   17725      st       1    MUSC   Si0z9       1       2.1    28.086
   17726      st       1    MUSC   Si0zA       1       2.1    28.086
   17727      ob       1    MUSC   O02wj       1     -1.05    15.999
   17728      ob       1    MUSC   O02wk       1     -1.05    15.999
   17729      ob       1    MUSC   O02wl       1     -1.05    15.999
   17730      ob       1    MUSC   O02wm       1     -1.05    15.999
   17731      oh       1    MUSC   O02wn       1     -0.95    15.999
   17732      oh       1    MUSC   O02wo       1     -0.95    15.999
   17733      oh       1    MUSC   O02wp       1     -0.95    15.999
   17734      oh       1    MUSC   O02wq       1     -0.95    15.999
   17735      ob       1    MUSC   O02wr       1     -1.05    15.999
   17736      ob       1    MUSC   O02ws       1     -1.05    15.999
   17737      ob       1    MUSC   O02wt       1     -1.05    15.999
   17738      ob       1    MUSC   O02wu       1     -1.05    15.999
   17739      ob       1    MUSC   O02wv       1     -1.05    15.999
   17740      ob       1    MUSC   O02ww       1     -1.05    15.999
   17741      ob       1    MUSC   O02wx       1     -1.05    15.999
   17742      ob       1    MUSC   O02wy       1     -1.05    15.999
   17743      ob       1    MUSC   O02wz       1     -1.05    15.999
   17744      ob       1    MUSC   O02x0       1     -1.05    15.999
   17745      ob       1    MUSC   O02x1       1     -1.05    15.999
   17746      ob       1    MUSC   O02x2       1     -1.05    15.999
   17747      ob       1    MUSC   O02x3       1     -1.05    15.999
   17748      ob       1    MUSC   O02x4       1     -1.05    15.999
   17749      ob       1    MUSC   O02x5       1     -1.05    15.999
   17750      ob       1    MUSC   O02x6       1     -1.05    15.999
   17751      ob       1    MUSC   O02x7       1     -1.05    15.999
   17752      ob       1    MUSC   O02x8       1     -1.05    15.999
   17753      ob       1    MUSC   O02x9       1     -1.05    15.999
   17754      ob       1    MUSC   O02xA       1     -1.05    15.999
   17755      oh       1    MUSC   O02xB       1     -0.95    15.999
   17756      oh       1    MUSC   O02xC       1     -0.95    15.999
   17757      oh       1    MUSC   O02xD       1     -0.95    15.999
   17758      oh       1    MUSC   O02xE       1     -0.95    15.999
   17759      ob       1    MUSC   O02xF       1     -1.05    15.999
   17760      ob       1    MUSC   O02xG       1     -1.05    15.999
   17761      ob       1    MUSC   O02xH       1     -1.05    15.999
   17762      ob       1    MUSC   O02xI       1     -1.05    15.999
   17763      ob       1    MUSC   O02xJ       1     -1.05    15.999
   17764      ob       1    MUSC   O02xK       1     -1.05    15.999
   17765      ob       1    MUSC   O02xL       1     -1.05    15.999
   17766      ob       1    MUSC   O02xM       1     -1.05    15.999
   17767      ob       1    MUSC   O02xN       1     -1.05    15.999
   17768      ob       1    MUSC   O02xO       1     -1.05    15.999
   17769      ob       1    MUSC   O02xP       1     -1.05    15.999
   17770      ob       1    MUSC   O02xQ       1     -1.05    15.999
   17771      ob       1    MUSC   O02xR       1     -1.05    15.999
   17772      ob       1    MUSC   O02xS       1     -1.05    15.999
   17773      ob       1    MUSC   O02xT       1     -1.05    15.999
   17774      ob       1    MUSC   O02xU       1     -1.05    15.999
   17775       K       1    MUSC   K00BT       1       1.0    39.098
   17776       K       1    MUSC   K00BU       1       1.0    39.098
   17777       K       1    MUSC   K00BV       1       1.0    39.098
   17778       K       1    MUSC   K00BW       1       1.0    39.098
   17779      ao       1    MUSC   Al0Ub       1     1.575    26.982
   17780      ao       1    MUSC   Al0Uc       1     1.575    26.982
   17781      ao       1    MUSC   Al0Ud       1     1.575    26.982
   17782      ao       1    MUSC   Al0Ue       1     1.575    26.982
   17783      ao       1    MUSC   Al0Uf       1     1.575    26.982
   17784      ao       1    MUSC   Al0Ug       1     1.575    26.982
   17785      ao       1    MUSC   Al0Uh       1     1.575    26.982
   17786      ao       1    MUSC   Al0Ui       1     1.575    26.982
   17787      st       1    MUSC   Si0zB       1       2.1    28.086
   17788      st       1    MUSC   Si0zC       1       2.1    28.086
   17789      st       1    MUSC   Si0zD       1       2.1    28.086
   17790      st       1    MUSC   Si0zE       1       2.1    28.086
   17791      st       1    MUSC   Si0zF       1       2.1    28.086
   17792      st       1    MUSC   Si0zG       1       2.1    28.086
   17793      st       1    MUSC   Si0zH       1       2.1    28.086
   17794      st       1    MUSC   Si0zI       1       2.1    28.086
   17795      st       1    MUSC   Si0zJ       1       2.1    28.086
   17796      st       1    MUSC   Si0zK       1       2.1    28.086
   17797      st       1    MUSC   Si0zL       1       2.1    28.086
   17798      st       1    MUSC   Si0zM       1       2.1    28.086
   17799      st       1    MUSC   Si0zN       1       2.1    28.086
   17800      st       1    MUSC   Si0zO       1       2.1    28.086
   17801      st       1    MUSC   Si0zP       1       2.1    28.086
   17802      st       1    MUSC   Si0zQ       1       2.1    28.086
   17803      ob       1    MUSC   O02xV       1     -1.05    15.999
   17804      ob       1    MUSC   O02xW       1     -1.05    15.999
   17805      ob       1    MUSC   O02xX       1     -1.05    15.999
   17806      ob       1    MUSC   O02xY       1     -1.05    15.999
   17807      oh       1    MUSC   O02xZ       1     -0.95    15.999
   17808      oh       1    MUSC   O02xa       1     -0.95    15.999
   17809      oh       1    MUSC   O02xb       1     -0.95    15.999
   17810      oh       1    MUSC   O02xc       1     -0.95    15.999
   17811      ob       1    MUSC   O02xd       1     -1.05    15.999
   17812      ob       1    MUSC   O02xe       1     -1.05    15.999
   17813      ob       1    MUSC   O02xf       1     -1.05    15.999
   17814      ob       1    MUSC   O02xg       1     -1.05    15.999
   17815      ob       1    MUSC   O02xh       1     -1.05    15.999
   17816      ob       1    MUSC   O02xi       1     -1.05    15.999
   17817      ob       1    MUSC   O02xj       1     -1.05    15.999
   17818      ob       1    MUSC   O02xk       1     -1.05    15.999
   17819      ob       1    MUSC   O02xl       1     -1.05    15.999
   17820      ob       1    MUSC   O02xm       1     -1.05    15.999
   17821      ob       1    MUSC   O02xn       1     -1.05    15.999
   17822      ob       1    MUSC   O02xo       1     -1.05    15.999
   17823      ob       1    MUSC   O02xp       1     -1.05    15.999
   17824      ob       1    MUSC   O02xq       1     -1.05    15.999
   17825      ob       1    MUSC   O02xr       1     -1.05    15.999
   17826      ob       1    MUSC   O02xs       1     -1.05    15.999
   17827      ob       1    MUSC   O02xt       1     -1.05    15.999
   17828      ob       1    MUSC   O02xu       1     -1.05    15.999
   17829      ob       1    MUSC   O02xv       1     -1.05    15.999
   17830      ob       1    MUSC   O02xw       1     -1.05    15.999
   17831      oh       1    MUSC   O02xx       1     -0.95    15.999
   17832      oh       1    MUSC   O02xy       1     -0.95    15.999
   17833      oh       1    MUSC   O02xz       1     -0.95    15.999
   17834      oh       1    MUSC   O02y0       1     -0.95    15.999
   17835      ob       1    MUSC   O02y1       1     -1.05    15.999
   17836      ob       1    MUSC   O02y2       1     -1.05    15.999
   17837      ob       1    MUSC   O02y3       1     -1.05    15.999
   17838      ob       1    MUSC   O02y4       1     -1.05    15.999
   17839      ob       1    MUSC   O02y5       1     -1.05    15.999
   17840      ob       1    MUSC   O02y6       1     -1.05    15.999
   17841      ob       1    MUSC   O02y7       1     -1.05    15.999
   17842      ob       1    MUSC   O02y8       1     -1.05    15.999
   17843      ob       1    MUSC   O02y9       1     -1.05    15.999
   17844      ob       1    MUSC   O02yA       1     -1.05    15.999
   17845      ob       1    MUSC   O02yB       1     -1.05    15.999
   17846      ob       1    MUSC   O02yC       1     -1.05    15.999
   17847      ob       1    MUSC   O02yD       1     -1.05    15.999
   17848      ob       1    MUSC   O02yE       1     -1.05    15.999
   17849      ob       1    MUSC   O02yF       1     -1.05    15.999
   17850      ob       1    MUSC   O02yG       1     -1.05    15.999
   17851       K       1    MUSC   K00BX       1       1.0    39.098
   17852       K       1    MUSC   K00BY       1       1.0    39.098
   17853      ao       1    MUSC   Al0Uj       1     1.575    26.982
   17854      ao       1    MUSC   Al0Uk       1     1.575    26.982
   17855      ao       1    MUSC   Al0Ul       1     1.575    26.982
   17856      ao       1    MUSC   Al0Um       1     1.575    26.982
   17857      ao       1    MUSC   Al0Un       1     1.575    26.982
   17858      ao       1    MUSC   Al0Uo       1     1.575    26.982
   17859      ao       1    MUSC   Al0Up       1     1.575    26.982
   17860      ao       1    MUSC   Al0Uq       1     1.575    26.982
   17861      st       1    MUSC   Si0zR       1       2.1    28.086
   17862      st       1    MUSC   Si0zS       1       2.1    28.086
   17863      st       1    MUSC   Si0zT       1       2.1    28.086
   17864      st       1    MUSC   Si0zU       1       2.1    28.086
   17865      st       1    MUSC   Si0zV       1       2.1    28.086
   17866      st       1    MUSC   Si0zW       1       2.1    28.086
   17867      st       1    MUSC   Si0zX       1       2.1    28.086
   17868      st       1    MUSC   Si0zY       1       2.1    28.086
   17869      st       1    MUSC   Si0zZ       1       2.1    28.086
   17870      st       1    MUSC   Si0za       1       2.1    28.086
   17871      st       1    MUSC   Si0zb       1       2.1    28.086
   17872      st       1    MUSC   Si0zc       1       2.1    28.086
   17873      st       1    MUSC   Si0zd       1       2.1    28.086
   17874      st       1    MUSC   Si0ze       1       2.1    28.086
   17875      st       1    MUSC   Si0zf       1       2.1    28.086
   17876      st       1    MUSC   Si0zg       1       2.1    28.086
   17877      ob       1    MUSC   O02yH       1     -1.05    15.999
   17878      ob       1    MUSC   O02yI       1     -1.05    15.999
   17879      ob       1    MUSC   O02yJ       1     -1.05    15.999
   17880      ob       1    MUSC   O02yK       1     -1.05    15.999
   17881      oh       1    MUSC   O02yL       1     -0.95    15.999
   17882      oh       1    MUSC   O02yM       1     -0.95    15.999
   17883      oh       1    MUSC   O02yN       1     -0.95    15.999
   17884      oh       1    MUSC   O02yO       1     -0.95    15.999
   17885      ob       1    MUSC   O02yP       1     -1.05    15.999
   17886      ob       1    MUSC   O02yQ       1     -1.05    15.999
   17887      ob       1    MUSC   O02yR       1     -1.05    15.999
   17888      ob       1    MUSC   O02yS       1     -1.05    15.999
   17889      ob       1    MUSC   O02yT       1     -1.05    15.999
   17890      ob       1    MUSC   O02yU       1     -1.05    15.999
   17891      ob       1    MUSC   O02yV       1     -1.05    15.999
   17892      ob       1    MUSC   O02yW       1     -1.05    15.999
   17893      ob       1    MUSC   O02yX       1     -1.05    15.999
   17894      ob       1    MUSC   O02yY       1     -1.05    15.999
   17895      ob       1    MUSC   O02yZ       1     -1.05    15.999
   17896      ob       1    MUSC   O02ya       1     -1.05    15.999
   17897      ob       1    MUSC   O02yb       1     -1.05    15.999
   17898      ob       1    MUSC   O02yc       1     -1.05    15.999
   17899      ob       1    MUSC   O02yd       1     -1.05    15.999
   17900      ob       1    MUSC   O02ye       1     -1.05    15.999
   17901      ob       1    MUSC   O02yf       1     -1.05    15.999
   17902      ob       1    MUSC   O02yg       1     -1.05    15.999
   17903      ob       1    MUSC   O02yh       1     -1.05    15.999
   17904      ob       1    MUSC   O02yi       1     -1.05    15.999
   17905      oh       1    MUSC   O02yj       1     -0.95    15.999
   17906      oh       1    MUSC   O02yk       1     -0.95    15.999
   17907      oh       1    MUSC   O02yl       1     -0.95    15.999
   17908      oh       1    MUSC   O02ym       1     -0.95    15.999
   17909      ob       1    MUSC   O02yn       1     -1.05    15.999
   17910      ob       1    MUSC   O02yo       1     -1.05    15.999
   17911      ob       1    MUSC   O02yp       1     -1.05    15.999
   17912      ob       1    MUSC   O02yq       1     -1.05    15.999
   17913      ob       1    MUSC   O02yr       1     -1.05    15.999
   17914      ob       1    MUSC   O02ys       1     -1.05    15.999
   17915      ob       1    MUSC   O02yt       1     -1.05    15.999
   17916      ob       1    MUSC   O02yu       1     -1.05    15.999
   17917      ob       1    MUSC   O02yv       1     -1.05    15.999
   17918      ob       1    MUSC   O02yw       1     -1.05    15.999
   17919      ob       1    MUSC   O02yx       1     -1.05    15.999
   17920      ob       1    MUSC   O02yy       1     -1.05    15.999
   17921      ob       1    MUSC   O02yz       1     -1.05    15.999
   17922      ob       1    MUSC   O02z0       1     -1.05    15.999
   17923      ob       1    MUSC   O02z1       1     -1.05    15.999
   17924      ob       1    MUSC   O02z2       1     -1.05    15.999
   17925       K       1    MUSC   K00BZ       1       1.0    39.098
   17926       K       1    MUSC   K00Ba       1       1.0    39.098
   17927       K       1    MUSC   K00Bb       1       1.0    39.098
   17928       K       1    MUSC   K00Bc       1       1.0    39.098
   17929      ao       1    MUSC   Al0Ur       1     1.575    26.982
   17930      ao       1    MUSC   Al0Us       1     1.575    26.982
   17931      ao       1    MUSC   Al0Ut       1     1.575    26.982
   17932      ao       1    MUSC   Al0Uu       1     1.575    26.982
   17933      ao       1    MUSC   Al0Uv       1     1.575    26.982
   17934      ao       1    MUSC   Al0Uw       1     1.575    26.982
   17935      ao       1    MUSC   Al0Ux       1     1.575    26.982
   17936      ao       1    MUSC   Al0Uy       1     1.575    26.982
   17937      st       1    MUSC   Si0zh       1       2.1    28.086
   17938      st       1    MUSC   Si0zi       1       2.1    28.086
   17939      st       1    MUSC   Si0zj       1       2.1    28.086
   17940      st       1    MUSC   Si0zk       1       2.1    28.086
   17941      st       1    MUSC   Si0zl       1       2.1    28.086
   17942      st       1    MUSC   Si0zm       1       2.1    28.086
   17943      st       1    MUSC   Si0zn       1       2.1    28.086
   17944      st       1    MUSC   Si0zo       1       2.1    28.086
   17945      st       1    MUSC   Si0zp       1       2.1    28.086
   17946      st       1    MUSC   Si0zq       1       2.1    28.086
   17947      st       1    MUSC   Si0zr       1       2.1    28.086
   17948      st       1    MUSC   Si0zs       1       2.1    28.086
   17949      st       1    MUSC   Si0zt       1       2.1    28.086
   17950      st       1    MUSC   Si0zu       1       2.1    28.086
   17951      st       1    MUSC   Si0zv       1       2.1    28.086
   17952      st       1    MUSC   Si0zw       1       2.1    28.086
   17953      ob       1    MUSC   O02z3       1     -1.05    15.999
   17954      ob       1    MUSC   O02z4       1     -1.05    15.999
   17955      ob       1    MUSC   O02z5       1     -1.05    15.999
   17956      ob       1    MUSC   O02z6       1     -1.05    15.999
   17957      oh       1    MUSC   O02z7       1     -0.95    15.999
   17958      oh       1    MUSC   O02z8       1     -0.95    15.999
   17959      oh       1    MUSC   O02z9       1     -0.95    15.999
   17960      oh       1    MUSC   O02zA       1     -0.95    15.999
   17961      ob       1    MUSC   O02zB       1     -1.05    15.999
   17962      ob       1    MUSC   O02zC       1     -1.05    15.999
   17963      ob       1    MUSC   O02zD       1     -1.05    15.999
   17964      ob       1    MUSC   O02zE       1     -1.05    15.999
   17965      ob       1    MUSC   O02zF       1     -1.05    15.999
   17966      ob       1    MUSC   O02zG       1     -1.05    15.999
   17967      ob       1    MUSC   O02zH       1     -1.05    15.999
   17968      ob       1    MUSC   O02zI       1     -1.05    15.999
   17969      ob       1    MUSC   O02zJ       1     -1.05    15.999
   17970      ob       1    MUSC   O02zK       1     -1.05    15.999
   17971      ob       1    MUSC   O02zL       1     -1.05    15.999
   17972      ob       1    MUSC   O02zM       1     -1.05    15.999
   17973      ob       1    MUSC   O02zN       1     -1.05    15.999
   17974      ob       1    MUSC   O02zO       1     -1.05    15.999
   17975      ob       1    MUSC   O02zP       1     -1.05    15.999
   17976      ob       1    MUSC   O02zQ       1     -1.05    15.999
   17977      ob       1    MUSC   O02zR       1     -1.05    15.999
   17978      ob       1    MUSC   O02zS       1     -1.05    15.999
   17979      ob       1    MUSC   O02zT       1     -1.05    15.999
   17980      ob       1    MUSC   O02zU       1     -1.05    15.999
   17981      oh       1    MUSC   O02zV       1     -0.95    15.999
   17982      oh       1    MUSC   O02zW       1     -0.95    15.999
   17983      oh       1    MUSC   O02zX       1     -0.95    15.999
   17984      oh       1    MUSC   O02zY       1     -0.95    15.999
   17985      ob       1    MUSC   O02zZ       1     -1.05    15.999
   17986      ob       1    MUSC   O02za       1     -1.05    15.999
   17987      ob       1    MUSC   O02zb       1     -1.05    15.999
   17988      ob       1    MUSC   O02zc       1     -1.05    15.999
   17989      ob       1    MUSC   O02zd       1     -1.05    15.999
   17990      ob       1    MUSC   O02ze       1     -1.05    15.999
   17991      ob       1    MUSC   O02zf       1     -1.05    15.999
   17992      ob       1    MUSC   O02zg       1     -1.05    15.999
   17993      ob       1    MUSC   O02zh       1     -1.05    15.999
   17994      ob       1    MUSC   O02zi       1     -1.05    15.999
   17995      ob       1    MUSC   O02zj       1     -1.05    15.999
   17996      ob       1    MUSC   O02zk       1     -1.05    15.999
   17997      ob       1    MUSC   O02zl       1     -1.05    15.999
   17998      ob       1    MUSC   O02zm       1     -1.05    15.999
   17999      ob       1    MUSC   O02zn       1     -1.05    15.999
   18000      ob       1    MUSC   O02zo       1     -1.05    15.999
   18001       K       1    MUSC   K00Bd       1       1.0    39.098
   18002       K       1    MUSC   K00Be       1       1.0    39.098
   18003      ao       1    MUSC   Al0Uz       1     1.575    26.982
   18004      ao       1    MUSC   Al0V0       1     1.575    26.982
   18005      ao       1    MUSC   Al0V1       1     1.575    26.982
   18006      ao       1    MUSC   Al0V2       1     1.575    26.982
   18007      ao       1    MUSC   Al0V3       1     1.575    26.982
   18008      ao       1    MUSC   Al0V4       1     1.575    26.982
   18009      ao       1    MUSC   Al0V5       1     1.575    26.982
   18010      ao       1    MUSC   Al0V6       1     1.575    26.982
   18011      st       1    MUSC   Si0zx       1       2.1    28.086
   18012      st       1    MUSC   Si0zy       1       2.1    28.086
   18013      st       1    MUSC   Si0zz       1       2.1    28.086
   18014      st       1    MUSC   Si100       1       2.1    28.086
   18015      st       1    MUSC   Si101       1       2.1    28.086
   18016      st       1    MUSC   Si102       1       2.1    28.086
   18017      st       1    MUSC   Si103       1       2.1    28.086
   18018      st       1    MUSC   Si104       1       2.1    28.086
   18019      st       1    MUSC   Si105       1       2.1    28.086
   18020      st       1    MUSC   Si106       1       2.1    28.086
   18021      st       1    MUSC   Si107       1       2.1    28.086
   18022      st       1    MUSC   Si108       1       2.1    28.086
   18023      st       1    MUSC   Si109       1       2.1    28.086
   18024      st       1    MUSC   Si10A       1       2.1    28.086
   18025      st       1    MUSC   Si10B       1       2.1    28.086
   18026      st       1    MUSC   Si10C       1       2.1    28.086
   18027      ob       1    MUSC   O02zp       1     -1.05    15.999
   18028      ob       1    MUSC   O02zq       1     -1.05    15.999
   18029      ob       1    MUSC   O02zr       1     -1.05    15.999
   18030      ob       1    MUSC   O02zs       1     -1.05    15.999
   18031      oh       1    MUSC   O02zt       1     -0.95    15.999
   18032      oh       1    MUSC   O02zu       1     -0.95    15.999
   18033      oh       1    MUSC   O02zv       1     -0.95    15.999
   18034      oh       1    MUSC   O02zw       1     -0.95    15.999
   18035      ob       1    MUSC   O02zx       1     -1.05    15.999
   18036      ob       1    MUSC   O02zy       1     -1.05    15.999
   18037      ob       1    MUSC   O02zz       1     -1.05    15.999
   18038      ob       1    MUSC   O0300       1     -1.05    15.999
   18039      ob       1    MUSC   O0301       1     -1.05    15.999
   18040      ob       1    MUSC   O0302       1     -1.05    15.999
   18041      ob       1    MUSC   O0303       1     -1.05    15.999
   18042      ob       1    MUSC   O0304       1     -1.05    15.999
   18043      ob       1    MUSC   O0305       1     -1.05    15.999
   18044      ob       1    MUSC   O0306       1     -1.05    15.999
   18045      ob       1    MUSC   O0307       1     -1.05    15.999
   18046      ob       1    MUSC   O0308       1     -1.05    15.999
   18047      ob       1    MUSC   O0309       1     -1.05    15.999
   18048      ob       1    MUSC   O030A       1     -1.05    15.999
   18049      ob       1    MUSC   O030B       1     -1.05    15.999
   18050      ob       1    MUSC   O030C       1     -1.05    15.999
   18051      ob       1    MUSC   O030D       1     -1.05    15.999
   18052      ob       1    MUSC   O030E       1     -1.05    15.999
   18053      ob       1    MUSC   O030F       1     -1.05    15.999
   18054      ob       1    MUSC   O030G       1     -1.05    15.999
   18055      oh       1    MUSC   O030H       1     -0.95    15.999
   18056      oh       1    MUSC   O030I       1     -0.95    15.999
   18057      oh       1    MUSC   O030J       1     -0.95    15.999
   18058      oh       1    MUSC   O030K       1     -0.95    15.999
   18059      ob       1    MUSC   O030L       1     -1.05    15.999
   18060      ob       1    MUSC   O030M       1     -1.05    15.999
   18061      ob       1    MUSC   O030N       1     -1.05    15.999
   18062      ob       1    MUSC   O030O       1     -1.05    15.999
   18063      ob       1    MUSC   O030P       1     -1.05    15.999
   18064      ob       1    MUSC   O030Q       1     -1.05    15.999
   18065      ob       1    MUSC   O030R       1     -1.05    15.999
   18066      ob       1    MUSC   O030S       1     -1.05    15.999
   18067      ob       1    MUSC   O030T       1     -1.05    15.999
   18068      ob       1    MUSC   O030U       1     -1.05    15.999
   18069      ob       1    MUSC   O030V       1     -1.05    15.999
   18070      ob       1    MUSC   O030W       1     -1.05    15.999
   18071      ob       1    MUSC   O030X       1     -1.05    15.999
   18072      ob       1    MUSC   O030Y       1     -1.05    15.999
   18073      ob       1    MUSC   O030Z       1     -1.05    15.999
   18074      ob       1    MUSC   O030a       1     -1.05    15.999
   18075       K       1    MUSC   K00Bf       1       1.0    39.098
   18076       K       1    MUSC   K00Bg       1       1.0    39.098
   18077       K       1    MUSC   K00Bh       1       1.0    39.098
   18078       K       1    MUSC   K00Bi       1       1.0    39.098
   18079      ao       1    MUSC   Al0V7       1     1.575    26.982
   18080      ao       1    MUSC   Al0V8       1     1.575    26.982
   18081      ao       1    MUSC   Al0V9       1     1.575    26.982
   18082      ao       1    MUSC   Al0VA       1     1.575    26.982
   18083      ao       1    MUSC   Al0VB       1     1.575    26.982
   18084      ao       1    MUSC   Al0VC       1     1.575    26.982
   18085      ao       1    MUSC   Al0VD       1     1.575    26.982
   18086      ao       1    MUSC   Al0VE       1     1.575    26.982
   18087      st       1    MUSC   Si10D       1       2.1    28.086
   18088      st       1    MUSC   Si10E       1       2.1    28.086
   18089      st       1    MUSC   Si10F       1       2.1    28.086
   18090      st       1    MUSC   Si10G       1       2.1    28.086
   18091      st       1    MUSC   Si10H       1       2.1    28.086
   18092      st       1    MUSC   Si10I       1       2.1    28.086
   18093      st       1    MUSC   Si10J       1       2.1    28.086
   18094      st       1    MUSC   Si10K       1       2.1    28.086
   18095      st       1    MUSC   Si10L       1       2.1    28.086
   18096      st       1    MUSC   Si10M       1       2.1    28.086
   18097      st       1    MUSC   Si10N       1       2.1    28.086
   18098      st       1    MUSC   Si10O       1       2.1    28.086
   18099      st       1    MUSC   Si10P       1       2.1    28.086
   18100      st       1    MUSC   Si10Q       1       2.1    28.086
   18101      st       1    MUSC   Si10R       1       2.1    28.086
   18102      st       1    MUSC   Si10S       1       2.1    28.086
   18103      ob       1    MUSC   O030b       1     -1.05    15.999
   18104      ob       1    MUSC   O030c       1     -1.05    15.999
   18105      ob       1    MUSC   O030d       1     -1.05    15.999
   18106      ob       1    MUSC   O030e       1     -1.05    15.999
   18107      oh       1    MUSC   O030f       1     -0.95    15.999
   18108      oh       1    MUSC   O030g       1     -0.95    15.999
   18109      oh       1    MUSC   O030h       1     -0.95    15.999
   18110      oh       1    MUSC   O030i       1     -0.95    15.999
   18111      ob       1    MUSC   O030j       1     -1.05    15.999
   18112      ob       1    MUSC   O030k       1     -1.05    15.999
   18113      ob       1    MUSC   O030l       1     -1.05    15.999
   18114      ob       1    MUSC   O030m       1     -1.05    15.999
   18115      ob       1    MUSC   O030n       1     -1.05    15.999
   18116      ob       1    MUSC   O030o       1     -1.05    15.999
   18117      ob       1    MUSC   O030p       1     -1.05    15.999
   18118      ob       1    MUSC   O030q       1     -1.05    15.999
   18119      ob       1    MUSC   O030r       1     -1.05    15.999
   18120      ob       1    MUSC   O030s       1     -1.05    15.999
   18121      ob       1    MUSC   O030t       1     -1.05    15.999
   18122      ob       1    MUSC   O030u       1     -1.05    15.999
   18123      ob       1    MUSC   O030v       1     -1.05    15.999
   18124      ob       1    MUSC   O030w       1     -1.05    15.999
   18125      ob       1    MUSC   O030x       1     -1.05    15.999
   18126      ob       1    MUSC   O030y       1     -1.05    15.999
   18127      ob       1    MUSC   O030z       1     -1.05    15.999
   18128      ob       1    MUSC   O0310       1     -1.05    15.999
   18129      ob       1    MUSC   O0311       1     -1.05    15.999
   18130      ob       1    MUSC   O0312       1     -1.05    15.999
   18131      oh       1    MUSC   O0313       1     -0.95    15.999
   18132      oh       1    MUSC   O0314       1     -0.95    15.999
   18133      oh       1    MUSC   O0315       1     -0.95    15.999
   18134      oh       1    MUSC   O0316       1     -0.95    15.999
   18135      ob       1    MUSC   O0317       1     -1.05    15.999
   18136      ob       1    MUSC   O0318       1     -1.05    15.999
   18137      ob       1    MUSC   O0319       1     -1.05    15.999
   18138      ob       1    MUSC   O031A       1     -1.05    15.999
   18139      ob       1    MUSC   O031B       1     -1.05    15.999
   18140      ob       1    MUSC   O031C       1     -1.05    15.999
   18141      ob       1    MUSC   O031D       1     -1.05    15.999
   18142      ob       1    MUSC   O031E       1     -1.05    15.999
   18143      ob       1    MUSC   O031F       1     -1.05    15.999
   18144      ob       1    MUSC   O031G       1     -1.05    15.999
   18145      ob       1    MUSC   O031H       1     -1.05    15.999
   18146      ob       1    MUSC   O031I       1     -1.05    15.999
   18147      ob       1    MUSC   O031J       1     -1.05    15.999
   18148      ob       1    MUSC   O031K       1     -1.05    15.999
   18149      ob       1    MUSC   O031L       1     -1.05    15.999
   18150      ob       1    MUSC   O031M       1     -1.05    15.999
   18151       K       1    MUSC   K00Bj       1       1.0    39.098
   18152       K       1    MUSC   K00Bk       1       1.0    39.098
   18153      ao       1    MUSC   Al0VF       1     1.575    26.982
   18154      ao       1    MUSC   Al0VG       1     1.575    26.982
   18155      ao       1    MUSC   Al0VH       1     1.575    26.982
   18156      ao       1    MUSC   Al0VI       1     1.575    26.982
   18157      ao       1    MUSC   Al0VJ       1     1.575    26.982
   18158      ao       1    MUSC   Al0VK       1     1.575    26.982
   18159      ao       1    MUSC   Al0VL       1     1.575    26.982
   18160      ao       1    MUSC   Al0VM       1     1.575    26.982
   18161      st       1    MUSC   Si10T       1       2.1    28.086
   18162      st       1    MUSC   Si10U       1       2.1    28.086
   18163      st       1    MUSC   Si10V       1       2.1    28.086
   18164      st       1    MUSC   Si10W       1       2.1    28.086
   18165      st       1    MUSC   Si10X       1       2.1    28.086
   18166      st       1    MUSC   Si10Y       1       2.1    28.086
   18167      st       1    MUSC   Si10Z       1       2.1    28.086
   18168      st       1    MUSC   Si10a       1       2.1    28.086
   18169      st       1    MUSC   Si10b       1       2.1    28.086
   18170      st       1    MUSC   Si10c       1       2.1    28.086
   18171      st       1    MUSC   Si10d       1       2.1    28.086
   18172      st       1    MUSC   Si10e       1       2.1    28.086
   18173      st       1    MUSC   Si10f       1       2.1    28.086
   18174      st       1    MUSC   Si10g       1       2.1    28.086
   18175      st       1    MUSC   Si10h       1       2.1    28.086
   18176      st       1    MUSC   Si10i       1       2.1    28.086
   18177      ob       1    MUSC   O031N       1     -1.05    15.999
   18178      ob       1    MUSC   O031O       1     -1.05    15.999
   18179      ob       1    MUSC   O031P       1     -1.05    15.999
   18180      ob       1    MUSC   O031Q       1     -1.05    15.999
   18181      oh       1    MUSC   O031R       1     -0.95    15.999
   18182      oh       1    MUSC   O031S       1     -0.95    15.999
   18183      oh       1    MUSC   O031T       1     -0.95    15.999
   18184      oh       1    MUSC   O031U       1     -0.95    15.999
   18185      ob       1    MUSC   O031V       1     -1.05    15.999
   18186      ob       1    MUSC   O031W       1     -1.05    15.999
   18187      ob       1    MUSC   O031X       1     -1.05    15.999
   18188      ob       1    MUSC   O031Y       1     -1.05    15.999
   18189      ob       1    MUSC   O031Z       1     -1.05    15.999
   18190      ob       1    MUSC   O031a       1     -1.05    15.999
   18191      ob       1    MUSC   O031b       1     -1.05    15.999
   18192      ob       1    MUSC   O031c       1     -1.05    15.999
   18193      ob       1    MUSC   O031d       1     -1.05    15.999
   18194      ob       1    MUSC   O031e       1     -1.05    15.999
   18195      ob       1    MUSC   O031f       1     -1.05    15.999
   18196      ob       1    MUSC   O031g       1     -1.05    15.999
   18197      ob       1    MUSC   O031h       1     -1.05    15.999
   18198      ob       1    MUSC   O031i       1     -1.05    15.999
   18199      ob       1    MUSC   O031j       1     -1.05    15.999
   18200      ob       1    MUSC   O031k       1     -1.05    15.999
   18201      ob       1    MUSC   O031l       1     -1.05    15.999
   18202      ob       1    MUSC   O031m       1     -1.05    15.999
   18203      ob       1    MUSC   O031n       1     -1.05    15.999
   18204      ob       1    MUSC   O031o       1     -1.05    15.999
   18205      oh       1    MUSC   O031p       1     -0.95    15.999
   18206      oh       1    MUSC   O031q       1     -0.95    15.999
   18207      oh       1    MUSC   O031r       1     -0.95    15.999
   18208      oh       1    MUSC   O031s       1     -0.95    15.999
   18209      ob       1    MUSC   O031t       1     -1.05    15.999
   18210      ob       1    MUSC   O031u       1     -1.05    15.999
   18211      ob       1    MUSC   O031v       1     -1.05    15.999
   18212      ob       1    MUSC   O031w       1     -1.05    15.999
   18213      ob       1    MUSC   O031x       1     -1.05    15.999
   18214      ob       1    MUSC   O031y       1     -1.05    15.999
   18215      ob       1    MUSC   O031z       1     -1.05    15.999
   18216      ob       1    MUSC   O0320       1     -1.05    15.999
   18217      ob       1    MUSC   O0321       1     -1.05    15.999
   18218      ob       1    MUSC   O0322       1     -1.05    15.999
   18219      ob       1    MUSC   O0323       1     -1.05    15.999
   18220      ob       1    MUSC   O0324       1     -1.05    15.999
   18221      ob       1    MUSC   O0325       1     -1.05    15.999
   18222      ob       1    MUSC   O0326       1     -1.05    15.999
   18223      ob       1    MUSC   O0327       1     -1.05    15.999
   18224      ob       1    MUSC   O0328       1     -1.05    15.999
   18225       K       1    MUSC   K00Bl       1       1.0    39.098
   18226       K       1    MUSC   K00Bm       1       1.0    39.098
   18227       K       1    MUSC   K00Bn       1       1.0    39.098
   18228       K       1    MUSC   K00Bo       1       1.0    39.098
   18229      ao       1    MUSC   Al0VN       1     1.575    26.982
   18230      ao       1    MUSC   Al0VO       1     1.575    26.982
   18231      ao       1    MUSC   Al0VP       1     1.575    26.982
   18232      ao       1    MUSC   Al0VQ       1     1.575    26.982
   18233      ao       1    MUSC   Al0VR       1     1.575    26.982
   18234      ao       1    MUSC   Al0VS       1     1.575    26.982
   18235      ao       1    MUSC   Al0VT       1     1.575    26.982
   18236      ao       1    MUSC   Al0VU       1     1.575    26.982
   18237      st       1    MUSC   Si10j       1       2.1    28.086
   18238      st       1    MUSC   Si10k       1       2.1    28.086
   18239      st       1    MUSC   Si10l       1       2.1    28.086
   18240      st       1    MUSC   Si10m       1       2.1    28.086
   18241      st       1    MUSC   Si10n       1       2.1    28.086
   18242      st       1    MUSC   Si10o       1       2.1    28.086
   18243      st       1    MUSC   Si10p       1       2.1    28.086
   18244      st       1    MUSC   Si10q       1       2.1    28.086
   18245      st       1    MUSC   Si10r       1       2.1    28.086
   18246      st       1    MUSC   Si10s       1       2.1    28.086
   18247      st       1    MUSC   Si10t       1       2.1    28.086
   18248      st       1    MUSC   Si10u       1       2.1    28.086
   18249      st       1    MUSC   Si10v       1       2.1    28.086
   18250      st       1    MUSC   Si10w       1       2.1    28.086
   18251      st       1    MUSC   Si10x       1       2.1    28.086
   18252      st       1    MUSC   Si10y       1       2.1    28.086
   18253      ob       1    MUSC   O0329       1     -1.05    15.999
   18254      ob       1    MUSC   O032A       1     -1.05    15.999
   18255      ob       1    MUSC   O032B       1     -1.05    15.999
   18256      ob       1    MUSC   O032C       1     -1.05    15.999
   18257      oh       1    MUSC   O032D       1     -0.95    15.999
   18258      oh       1    MUSC   O032E       1     -0.95    15.999
   18259      oh       1    MUSC   O032F       1     -0.95    15.999
   18260      oh       1    MUSC   O032G       1     -0.95    15.999
   18261      ob       1    MUSC   O032H       1     -1.05    15.999
   18262      ob       1    MUSC   O032I       1     -1.05    15.999
   18263      ob       1    MUSC   O032J       1     -1.05    15.999
   18264      ob       1    MUSC   O032K       1     -1.05    15.999
   18265      ob       1    MUSC   O032L       1     -1.05    15.999
   18266      ob       1    MUSC   O032M       1     -1.05    15.999
   18267      ob       1    MUSC   O032N       1     -1.05    15.999
   18268      ob       1    MUSC   O032O       1     -1.05    15.999
   18269      ob       1    MUSC   O032P       1     -1.05    15.999
   18270      ob       1    MUSC   O032Q       1     -1.05    15.999
   18271      ob       1    MUSC   O032R       1     -1.05    15.999
   18272      ob       1    MUSC   O032S       1     -1.05    15.999
   18273      ob       1    MUSC   O032T       1     -1.05    15.999
   18274      ob       1    MUSC   O032U       1     -1.05    15.999
   18275      ob       1    MUSC   O032V       1     -1.05    15.999
   18276      ob       1    MUSC   O032W       1     -1.05    15.999
   18277      ob       1    MUSC   O032X       1     -1.05    15.999
   18278      ob       1    MUSC   O032Y       1     -1.05    15.999
   18279      ob       1    MUSC   O032Z       1     -1.05    15.999
   18280      ob       1    MUSC   O032a       1     -1.05    15.999
   18281      oh       1    MUSC   O032b       1     -0.95    15.999
   18282      oh       1    MUSC   O032c       1     -0.95    15.999
   18283      oh       1    MUSC   O032d       1     -0.95    15.999
   18284      oh       1    MUSC   O032e       1     -0.95    15.999
   18285      ob       1    MUSC   O032f       1     -1.05    15.999
   18286      ob       1    MUSC   O032g       1     -1.05    15.999
   18287      ob       1    MUSC   O032h       1     -1.05    15.999
   18288      ob       1    MUSC   O032i       1     -1.05    15.999
   18289      ob       1    MUSC   O032j       1     -1.05    15.999
   18290      ob       1    MUSC   O032k       1     -1.05    15.999
   18291      ob       1    MUSC   O032l       1     -1.05    15.999
   18292      ob       1    MUSC   O032m       1     -1.05    15.999
   18293      ob       1    MUSC   O032n       1     -1.05    15.999
   18294      ob       1    MUSC   O032o       1     -1.05    15.999
   18295      ob       1    MUSC   O032p       1     -1.05    15.999
   18296      ob       1    MUSC   O032q       1     -1.05    15.999
   18297      ob       1    MUSC   O032r       1     -1.05    15.999
   18298      ob       1    MUSC   O032s       1     -1.05    15.999
   18299      ob       1    MUSC   O032t       1     -1.05    15.999
   18300      ob       1    MUSC   O032u       1     -1.05    15.999
   18301       K       1    MUSC   K00Bp       1       1.0    39.098
   18302       K       1    MUSC   K00Bq       1       1.0    39.098
   18303      ao       1    MUSC   Al0VV       1     1.575    26.982
   18304      ao       1    MUSC   Al0VW       1     1.575    26.982
   18305      ao       1    MUSC   Al0VX       1     1.575    26.982
   18306      ao       1    MUSC   Al0VY       1     1.575    26.982
   18307      ao       1    MUSC   Al0VZ       1     1.575    26.982
   18308      ao       1    MUSC   Al0Va       1     1.575    26.982
   18309      ao       1    MUSC   Al0Vb       1     1.575    26.982
   18310      ao       1    MUSC   Al0Vc       1     1.575    26.982
   18311      st       1    MUSC   Si10z       1       2.1    28.086
   18312      st       1    MUSC   Si110       1       2.1    28.086
   18313      st       1    MUSC   Si111       1       2.1    28.086
   18314      st       1    MUSC   Si112       1       2.1    28.086
   18315      st       1    MUSC   Si113       1       2.1    28.086
   18316      st       1    MUSC   Si114       1       2.1    28.086
   18317      st       1    MUSC   Si115       1       2.1    28.086
   18318      st       1    MUSC   Si116       1       2.1    28.086
   18319      st       1    MUSC   Si117       1       2.1    28.086
   18320      st       1    MUSC   Si118       1       2.1    28.086
   18321      st       1    MUSC   Si119       1       2.1    28.086
   18322      st       1    MUSC   Si11A       1       2.1    28.086
   18323      st       1    MUSC   Si11B       1       2.1    28.086
   18324      st       1    MUSC   Si11C       1       2.1    28.086
   18325      st       1    MUSC   Si11D       1       2.1    28.086
   18326      st       1    MUSC   Si11E       1       2.1    28.086
   18327      ob       1    MUSC   O032v       1     -1.05    15.999
   18328      ob       1    MUSC   O032w       1     -1.05    15.999
   18329      ob       1    MUSC   O032x       1     -1.05    15.999
   18330      ob       1    MUSC   O032y       1     -1.05    15.999
   18331      oh       1    MUSC   O032z       1     -0.95    15.999
   18332      oh       1    MUSC   O0330       1     -0.95    15.999
   18333      oh       1    MUSC   O0331       1     -0.95    15.999
   18334      oh       1    MUSC   O0332       1     -0.95    15.999
   18335      ob       1    MUSC   O0333       1     -1.05    15.999
   18336      ob       1    MUSC   O0334       1     -1.05    15.999
   18337      ob       1    MUSC   O0335       1     -1.05    15.999
   18338      ob       1    MUSC   O0336       1     -1.05    15.999
   18339      ob       1    MUSC   O0337       1     -1.05    15.999
   18340      ob       1    MUSC   O0338       1     -1.05    15.999
   18341      ob       1    MUSC   O0339       1     -1.05    15.999
   18342      ob       1    MUSC   O033A       1     -1.05    15.999
   18343      ob       1    MUSC   O033B       1     -1.05    15.999
   18344      ob       1    MUSC   O033C       1     -1.05    15.999
   18345      ob       1    MUSC   O033D       1     -1.05    15.999
   18346      ob       1    MUSC   O033E       1     -1.05    15.999
   18347      ob       1    MUSC   O033F       1     -1.05    15.999
   18348      ob       1    MUSC   O033G       1     -1.05    15.999
   18349      ob       1    MUSC   O033H       1     -1.05    15.999
   18350      ob       1    MUSC   O033I       1     -1.05    15.999
   18351      ob       1    MUSC   O033J       1     -1.05    15.999
   18352      ob       1    MUSC   O033K       1     -1.05    15.999
   18353      ob       1    MUSC   O033L       1     -1.05    15.999
   18354      ob       1    MUSC   O033M       1     -1.05    15.999
   18355      oh       1    MUSC   O033N       1     -0.95    15.999
   18356      oh       1    MUSC   O033O       1     -0.95    15.999
   18357      oh       1    MUSC   O033P       1     -0.95    15.999
   18358      oh       1    MUSC   O033Q       1     -0.95    15.999
   18359      ob       1    MUSC   O033R       1     -1.05    15.999
   18360      ob       1    MUSC   O033S       1     -1.05    15.999
   18361      ob       1    MUSC   O033T       1     -1.05    15.999
   18362      ob       1    MUSC   O033U       1     -1.05    15.999
   18363      ob       1    MUSC   O033V       1     -1.05    15.999
   18364      ob       1    MUSC   O033W       1     -1.05    15.999
   18365      ob       1    MUSC   O033X       1     -1.05    15.999
   18366      ob       1    MUSC   O033Y       1     -1.05    15.999
   18367      ob       1    MUSC   O033Z       1     -1.05    15.999
   18368      ob       1    MUSC   O033a       1     -1.05    15.999
   18369      ob       1    MUSC   O033b       1     -1.05    15.999
   18370      ob       1    MUSC   O033c       1     -1.05    15.999
   18371      ob       1    MUSC   O033d       1     -1.05    15.999
   18372      ob       1    MUSC   O033e       1     -1.05    15.999
   18373      ob       1    MUSC   O033f       1     -1.05    15.999
   18374      ob       1    MUSC   O033g       1     -1.05    15.999
   18375       K       1    MUSC   K00Br       1       1.0    39.098
   18376       K       1    MUSC   K00Bs       1       1.0    39.098
   18377       K       1    MUSC   K00Bt       1       1.0    39.098
   18378       K       1    MUSC   K00Bu       1       1.0    39.098
   18379      ao       1    MUSC   Al0Vd       1     1.575    26.982
   18380      ao       1    MUSC   Al0Ve       1     1.575    26.982
   18381      ao       1    MUSC   Al0Vf       1     1.575    26.982
   18382      ao       1    MUSC   Al0Vg       1     1.575    26.982
   18383      ao       1    MUSC   Al0Vh       1     1.575    26.982
   18384      ao       1    MUSC   Al0Vi       1     1.575    26.982
   18385      ao       1    MUSC   Al0Vj       1     1.575    26.982
   18386      ao       1    MUSC   Al0Vk       1     1.575    26.982
   18387      st       1    MUSC   Si11F       1       2.1    28.086
   18388      st       1    MUSC   Si11G       1       2.1    28.086
   18389      st       1    MUSC   Si11H       1       2.1    28.086
   18390      st       1    MUSC   Si11I       1       2.1    28.086
   18391      st       1    MUSC   Si11J       1       2.1    28.086
   18392      st       1    MUSC   Si11K       1       2.1    28.086
   18393      st       1    MUSC   Si11L       1       2.1    28.086
   18394      st       1    MUSC   Si11M       1       2.1    28.086
   18395      st       1    MUSC   Si11N       1       2.1    28.086
   18396      st       1    MUSC   Si11O       1       2.1    28.086
   18397      st       1    MUSC   Si11P       1       2.1    28.086
   18398      st       1    MUSC   Si11Q       1       2.1    28.086
   18399      st       1    MUSC   Si11R       1       2.1    28.086
   18400      st       1    MUSC   Si11S       1       2.1    28.086
   18401      st       1    MUSC   Si11T       1       2.1    28.086
   18402      st       1    MUSC   Si11U       1       2.1    28.086
   18403      ob       1    MUSC   O033h       1     -1.05    15.999
   18404      ob       1    MUSC   O033i       1     -1.05    15.999
   18405      ob       1    MUSC   O033j       1     -1.05    15.999
   18406      ob       1    MUSC   O033k       1     -1.05    15.999
   18407      oh       1    MUSC   O033l       1     -0.95    15.999
   18408      oh       1    MUSC   O033m       1     -0.95    15.999
   18409      oh       1    MUSC   O033n       1     -0.95    15.999
   18410      oh       1    MUSC   O033o       1     -0.95    15.999
   18411      ob       1    MUSC   O033p       1     -1.05    15.999
   18412      ob       1    MUSC   O033q       1     -1.05    15.999
   18413      ob       1    MUSC   O033r       1     -1.05    15.999
   18414      ob       1    MUSC   O033s       1     -1.05    15.999
   18415      ob       1    MUSC   O033t       1     -1.05    15.999
   18416      ob       1    MUSC   O033u       1     -1.05    15.999
   18417      ob       1    MUSC   O033v       1     -1.05    15.999
   18418      ob       1    MUSC   O033w       1     -1.05    15.999
   18419      ob       1    MUSC   O033x       1     -1.05    15.999
   18420      ob       1    MUSC   O033y       1     -1.05    15.999
   18421      ob       1    MUSC   O033z       1     -1.05    15.999
   18422      ob       1    MUSC   O0340       1     -1.05    15.999
   18423      ob       1    MUSC   O0341       1     -1.05    15.999
   18424      ob       1    MUSC   O0342       1     -1.05    15.999
   18425      ob       1    MUSC   O0343       1     -1.05    15.999
   18426      ob       1    MUSC   O0344       1     -1.05    15.999
   18427      ob       1    MUSC   O0345       1     -1.05    15.999
   18428      ob       1    MUSC   O0346       1     -1.05    15.999
   18429      ob       1    MUSC   O0347       1     -1.05    15.999
   18430      ob       1    MUSC   O0348       1     -1.05    15.999
   18431      oh       1    MUSC   O0349       1     -0.95    15.999
   18432      oh       1    MUSC   O034A       1     -0.95    15.999
   18433      oh       1    MUSC   O034B       1     -0.95    15.999
   18434      oh       1    MUSC   O034C       1     -0.95    15.999
   18435      ob       1    MUSC   O034D       1     -1.05    15.999
   18436      ob       1    MUSC   O034E       1     -1.05    15.999
   18437      ob       1    MUSC   O034F       1     -1.05    15.999
   18438      ob       1    MUSC   O034G       1     -1.05    15.999
   18439      ob       1    MUSC   O034H       1     -1.05    15.999
   18440      ob       1    MUSC   O034I       1     -1.05    15.999
   18441      ob       1    MUSC   O034J       1     -1.05    15.999
   18442      ob       1    MUSC   O034K       1     -1.05    15.999
   18443      ob       1    MUSC   O034L       1     -1.05    15.999
   18444      ob       1    MUSC   O034M       1     -1.05    15.999
   18445      ob       1    MUSC   O034N       1     -1.05    15.999
   18446      ob       1    MUSC   O034O       1     -1.05    15.999
   18447      ob       1    MUSC   O034P       1     -1.05    15.999
   18448      ob       1    MUSC   O034Q       1     -1.05    15.999
   18449      ob       1    MUSC   O034R       1     -1.05    15.999
   18450      ob       1    MUSC   O034S       1     -1.05    15.999
   18451       K       1    MUSC   K00Bv       1       1.0    39.098
   18452       K       1    MUSC   K00Bw       1       1.0    39.098
   18453      ao       1    MUSC   Al0Vl       1     1.575    26.982
   18454      ao       1    MUSC   Al0Vm       1     1.575    26.982
   18455      ao       1    MUSC   Al0Vn       1     1.575    26.982
   18456      ao       1    MUSC   Al0Vo       1     1.575    26.982
   18457      ao       1    MUSC   Al0Vp       1     1.575    26.982
   18458      ao       1    MUSC   Al0Vq       1     1.575    26.982
   18459      ao       1    MUSC   Al0Vr       1     1.575    26.982
   18460      ao       1    MUSC   Al0Vs       1     1.575    26.982
   18461      st       1    MUSC   Si11V       1       2.1    28.086
   18462      st       1    MUSC   Si11W       1       2.1    28.086
   18463      st       1    MUSC   Si11X       1       2.1    28.086
   18464      st       1    MUSC   Si11Y       1       2.1    28.086
   18465      st       1    MUSC   Si11Z       1       2.1    28.086
   18466      st       1    MUSC   Si11a       1       2.1    28.086
   18467      st       1    MUSC   Si11b       1       2.1    28.086
   18468      st       1    MUSC   Si11c       1       2.1    28.086
   18469      st       1    MUSC   Si11d       1       2.1    28.086
   18470      st       1    MUSC   Si11e       1       2.1    28.086
   18471      st       1    MUSC   Si11f       1       2.1    28.086
   18472      st       1    MUSC   Si11g       1       2.1    28.086
   18473      st       1    MUSC   Si11h       1       2.1    28.086
   18474      st       1    MUSC   Si11i       1       2.1    28.086
   18475      st       1    MUSC   Si11j       1       2.1    28.086
   18476      st       1    MUSC   Si11k       1       2.1    28.086
   18477      ob       1    MUSC   O034T       1     -1.05    15.999
   18478      ob       1    MUSC   O034U       1     -1.05    15.999
   18479      ob       1    MUSC   O034V       1     -1.05    15.999
   18480      ob       1    MUSC   O034W       1     -1.05    15.999
   18481      oh       1    MUSC   O034X       1     -0.95    15.999
   18482      oh       1    MUSC   O034Y       1     -0.95    15.999
   18483      oh       1    MUSC   O034Z       1     -0.95    15.999
   18484      oh       1    MUSC   O034a       1     -0.95    15.999
   18485      ob       1    MUSC   O034b       1     -1.05    15.999
   18486      ob       1    MUSC   O034c       1     -1.05    15.999
   18487      ob       1    MUSC   O034d       1     -1.05    15.999
   18488      ob       1    MUSC   O034e       1     -1.05    15.999
   18489      ob       1    MUSC   O034f       1     -1.05    15.999
   18490      ob       1    MUSC   O034g       1     -1.05    15.999
   18491      ob       1    MUSC   O034h       1     -1.05    15.999
   18492      ob       1    MUSC   O034i       1     -1.05    15.999
   18493      ob       1    MUSC   O034j       1     -1.05    15.999
   18494      ob       1    MUSC   O034k       1     -1.05    15.999
   18495      ob       1    MUSC   O034l       1     -1.05    15.999
   18496      ob       1    MUSC   O034m       1     -1.05    15.999
   18497      ob       1    MUSC   O034n       1     -1.05    15.999
   18498      ob       1    MUSC   O034o       1     -1.05    15.999
   18499      ob       1    MUSC   O034p       1     -1.05    15.999
   18500      ob       1    MUSC   O034q       1     -1.05    15.999
   18501      ob       1    MUSC   O034r       1     -1.05    15.999
   18502      ob       1    MUSC   O034s       1     -1.05    15.999
   18503      ob       1    MUSC   O034t       1     -1.05    15.999
   18504      ob       1    MUSC   O034u       1     -1.05    15.999
   18505      oh       1    MUSC   O034v       1     -0.95    15.999
   18506      oh       1    MUSC   O034w       1     -0.95    15.999
   18507      oh       1    MUSC   O034x       1     -0.95    15.999
   18508      oh       1    MUSC   O034y       1     -0.95    15.999
   18509      ob       1    MUSC   O034z       1     -1.05    15.999
   18510      ob       1    MUSC   O0350       1     -1.05    15.999
   18511      ob       1    MUSC   O0351       1     -1.05    15.999
   18512      ob       1    MUSC   O0352       1     -1.05    15.999
   18513      ob       1    MUSC   O0353       1     -1.05    15.999
   18514      ob       1    MUSC   O0354       1     -1.05    15.999
   18515      ob       1    MUSC   O0355       1     -1.05    15.999
   18516      ob       1    MUSC   O0356       1     -1.05    15.999
   18517      ob       1    MUSC   O0357       1     -1.05    15.999
   18518      ob       1    MUSC   O0358       1     -1.05    15.999
   18519      ob       1    MUSC   O0359       1     -1.05    15.999
   18520      ob       1    MUSC   O035A       1     -1.05    15.999
   18521      ob       1    MUSC   O035B       1     -1.05    15.999
   18522      ob       1    MUSC   O035C       1     -1.05    15.999
   18523      ob       1    MUSC   O035D       1     -1.05    15.999
   18524      ob       1    MUSC   O035E       1     -1.05    15.999
   18525       K       1    MUSC   K00Bx       1       1.0    39.098
   18526       K       1    MUSC   K00By       1       1.0    39.098
   18527       K       1    MUSC   K00Bz       1       1.0    39.098
   18528       K       1    MUSC   K00C0       1       1.0    39.098
   18529      ao       1    MUSC   Al0Vt       1     1.575    26.982
   18530      ao       1    MUSC   Al0Vu       1     1.575    26.982
   18531      ao       1    MUSC   Al0Vv       1     1.575    26.982
   18532      ao       1    MUSC   Al0Vw       1     1.575    26.982
   18533      ao       1    MUSC   Al0Vx       1     1.575    26.982
   18534      ao       1    MUSC   Al0Vy       1     1.575    26.982
   18535      ao       1    MUSC   Al0Vz       1     1.575    26.982
   18536      ao       1    MUSC   Al0W0       1     1.575    26.982
   18537      st       1    MUSC   Si11l       1       2.1    28.086
   18538      st       1    MUSC   Si11m       1       2.1    28.086
   18539      st       1    MUSC   Si11n       1       2.1    28.086
   18540      st       1    MUSC   Si11o       1       2.1    28.086
   18541      st       1    MUSC   Si11p       1       2.1    28.086
   18542      st       1    MUSC   Si11q       1       2.1    28.086
   18543      st       1    MUSC   Si11r       1       2.1    28.086
   18544      st       1    MUSC   Si11s       1       2.1    28.086
   18545      st       1    MUSC   Si11t       1       2.1    28.086
   18546      st       1    MUSC   Si11u       1       2.1    28.086
   18547      st       1    MUSC   Si11v       1       2.1    28.086
   18548      st       1    MUSC   Si11w       1       2.1    28.086
   18549      st       1    MUSC   Si11x       1       2.1    28.086
   18550      st       1    MUSC   Si11y       1       2.1    28.086
   18551      st       1    MUSC   Si11z       1       2.1    28.086
   18552      st       1    MUSC   Si120       1       2.1    28.086
   18553      ob       1    MUSC   O035F       1     -1.05    15.999
   18554      ob       1    MUSC   O035G       1     -1.05    15.999
   18555      ob       1    MUSC   O035H       1     -1.05    15.999
   18556      ob       1    MUSC   O035I       1     -1.05    15.999
   18557      oh       1    MUSC   O035J       1     -0.95    15.999
   18558      oh       1    MUSC   O035K       1     -0.95    15.999
   18559      oh       1    MUSC   O035L       1     -0.95    15.999
   18560      oh       1    MUSC   O035M       1     -0.95    15.999
   18561      ob       1    MUSC   O035N       1     -1.05    15.999
   18562      ob       1    MUSC   O035O       1     -1.05    15.999
   18563      ob       1    MUSC   O035P       1     -1.05    15.999
   18564      ob       1    MUSC   O035Q       1     -1.05    15.999
   18565      ob       1    MUSC   O035R       1     -1.05    15.999
   18566      ob       1    MUSC   O035S       1     -1.05    15.999
   18567      ob       1    MUSC   O035T       1     -1.05    15.999
   18568      ob       1    MUSC   O035U       1     -1.05    15.999
   18569      ob       1    MUSC   O035V       1     -1.05    15.999
   18570      ob       1    MUSC   O035W       1     -1.05    15.999
   18571      ob       1    MUSC   O035X       1     -1.05    15.999
   18572      ob       1    MUSC   O035Y       1     -1.05    15.999
   18573      ob       1    MUSC   O035Z       1     -1.05    15.999
   18574      ob       1    MUSC   O035a       1     -1.05    15.999
   18575      ob       1    MUSC   O035b       1     -1.05    15.999
   18576      ob       1    MUSC   O035c       1     -1.05    15.999
   18577      ob       1    MUSC   O035d       1     -1.05    15.999
   18578      ob       1    MUSC   O035e       1     -1.05    15.999
   18579      ob       1    MUSC   O035f       1     -1.05    15.999
   18580      ob       1    MUSC   O035g       1     -1.05    15.999
   18581      oh       1    MUSC   O035h       1     -0.95    15.999
   18582      oh       1    MUSC   O035i       1     -0.95    15.999
   18583      oh       1    MUSC   O035j       1     -0.95    15.999
   18584      oh       1    MUSC   O035k       1     -0.95    15.999
   18585      ob       1    MUSC   O035l       1     -1.05    15.999
   18586      ob       1    MUSC   O035m       1     -1.05    15.999
   18587      ob       1    MUSC   O035n       1     -1.05    15.999
   18588      ob       1    MUSC   O035o       1     -1.05    15.999
   18589      ob       1    MUSC   O035p       1     -1.05    15.999
   18590      ob       1    MUSC   O035q       1     -1.05    15.999
   18591      ob       1    MUSC   O035r       1     -1.05    15.999
   18592      ob       1    MUSC   O035s       1     -1.05    15.999
   18593      ob       1    MUSC   O035t       1     -1.05    15.999
   18594      ob       1    MUSC   O035u       1     -1.05    15.999
   18595      ob       1    MUSC   O035v       1     -1.05    15.999
   18596      ob       1    MUSC   O035w       1     -1.05    15.999
   18597      ob       1    MUSC   O035x       1     -1.05    15.999
   18598      ob       1    MUSC   O035y       1     -1.05    15.999
   18599      ob       1    MUSC   O035z       1     -1.05    15.999
   18600      ob       1    MUSC   O0360       1     -1.05    15.999
   18601       K       1    MUSC   K00C1       1       1.0    39.098
   18602       K       1    MUSC   K00C2       1       1.0    39.098
   18603      ao       1    MUSC   Al0W1       1     1.575    26.982
   18604      ao       1    MUSC   Al0W2       1     1.575    26.982
   18605      ao       1    MUSC   Al0W3       1     1.575    26.982
   18606      ao       1    MUSC   Al0W4       1     1.575    26.982
   18607      ao       1    MUSC   Al0W5       1     1.575    26.982
   18608      ao       1    MUSC   Al0W6       1     1.575    26.982
   18609      ao       1    MUSC   Al0W7       1     1.575    26.982
   18610      ao       1    MUSC   Al0W8       1     1.575    26.982
   18611      st       1    MUSC   Si121       1       2.1    28.086
   18612      st       1    MUSC   Si122       1       2.1    28.086
   18613      st       1    MUSC   Si123       1       2.1    28.086
   18614      st       1    MUSC   Si124       1       2.1    28.086
   18615      st       1    MUSC   Si125       1       2.1    28.086
   18616      st       1    MUSC   Si126       1       2.1    28.086
   18617      st       1    MUSC   Si127       1       2.1    28.086
   18618      st       1    MUSC   Si128       1       2.1    28.086
   18619      st       1    MUSC   Si129       1       2.1    28.086
   18620      st       1    MUSC   Si12A       1       2.1    28.086
   18621      st       1    MUSC   Si12B       1       2.1    28.086
   18622      st       1    MUSC   Si12C       1       2.1    28.086
   18623      st       1    MUSC   Si12D       1       2.1    28.086
   18624      st       1    MUSC   Si12E       1       2.1    28.086
   18625      st       1    MUSC   Si12F       1       2.1    28.086
   18626      st       1    MUSC   Si12G       1       2.1    28.086
   18627      ob       1    MUSC   O0361       1     -1.05    15.999
   18628      ob       1    MUSC   O0362       1     -1.05    15.999
   18629      ob       1    MUSC   O0363       1     -1.05    15.999
   18630      ob       1    MUSC   O0364       1     -1.05    15.999
   18631      oh       1    MUSC   O0365       1     -0.95    15.999
   18632      oh       1    MUSC   O0366       1     -0.95    15.999
   18633      oh       1    MUSC   O0367       1     -0.95    15.999
   18634      oh       1    MUSC   O0368       1     -0.95    15.999
   18635      ob       1    MUSC   O0369       1     -1.05    15.999
   18636      ob       1    MUSC   O036A       1     -1.05    15.999
   18637      ob       1    MUSC   O036B       1     -1.05    15.999
   18638      ob       1    MUSC   O036C       1     -1.05    15.999
   18639      ob       1    MUSC   O036D       1     -1.05    15.999
   18640      ob       1    MUSC   O036E       1     -1.05    15.999
   18641      ob       1    MUSC   O036F       1     -1.05    15.999
   18642      ob       1    MUSC   O036G       1     -1.05    15.999
   18643      ob       1    MUSC   O036H       1     -1.05    15.999
   18644      ob       1    MUSC   O036I       1     -1.05    15.999
   18645      ob       1    MUSC   O036J       1     -1.05    15.999
   18646      ob       1    MUSC   O036K       1     -1.05    15.999
   18647      ob       1    MUSC   O036L       1     -1.05    15.999
   18648      ob       1    MUSC   O036M       1     -1.05    15.999
   18649      ob       1    MUSC   O036N       1     -1.05    15.999
   18650      ob       1    MUSC   O036O       1     -1.05    15.999
   18651      ob       1    MUSC   O036P       1     -1.05    15.999
   18652      ob       1    MUSC   O036Q       1     -1.05    15.999
   18653      ob       1    MUSC   O036R       1     -1.05    15.999
   18654      ob       1    MUSC   O036S       1     -1.05    15.999
   18655      oh       1    MUSC   O036T       1     -0.95    15.999
   18656      oh       1    MUSC   O036U       1     -0.95    15.999
   18657      oh       1    MUSC   O036V       1     -0.95    15.999
   18658      oh       1    MUSC   O036W       1     -0.95    15.999
   18659      ob       1    MUSC   O036X       1     -1.05    15.999
   18660      ob       1    MUSC   O036Y       1     -1.05    15.999
   18661      ob       1    MUSC   O036Z       1     -1.05    15.999
   18662      ob       1    MUSC   O036a       1     -1.05    15.999
   18663      ob       1    MUSC   O036b       1     -1.05    15.999
   18664      ob       1    MUSC   O036c       1     -1.05    15.999
   18665      ob       1    MUSC   O036d       1     -1.05    15.999
   18666      ob       1    MUSC   O036e       1     -1.05    15.999
   18667      ob       1    MUSC   O036f       1     -1.05    15.999
   18668      ob       1    MUSC   O036g       1     -1.05    15.999
   18669      ob       1    MUSC   O036h       1     -1.05    15.999
   18670      ob       1    MUSC   O036i       1     -1.05    15.999
   18671      ob       1    MUSC   O036j       1     -1.05    15.999
   18672      ob       1    MUSC   O036k       1     -1.05    15.999
   18673      ob       1    MUSC   O036l       1     -1.05    15.999
   18674      ob       1    MUSC   O036m       1     -1.05    15.999
   18675       K       1    MUSC   K00C3       1       1.0    39.098
   18676       K       1    MUSC   K00C4       1       1.0    39.098
   18677       K       1    MUSC   K00C5       1       1.0    39.098
   18678       K       1    MUSC   K00C6       1       1.0    39.098
   18679      ao       1    MUSC   Al0W9       1     1.575    26.982
   18680      ao       1    MUSC   Al0WA       1     1.575    26.982
   18681      ao       1    MUSC   Al0WB       1     1.575    26.982
   18682      ao       1    MUSC   Al0WC       1     1.575    26.982
   18683      ao       1    MUSC   Al0WD       1     1.575    26.982
   18684      ao       1    MUSC   Al0WE       1     1.575    26.982
   18685      ao       1    MUSC   Al0WF       1     1.575    26.982
   18686      ao       1    MUSC   Al0WG       1     1.575    26.982
   18687      st       1    MUSC   Si12H       1       2.1    28.086
   18688      st       1    MUSC   Si12I       1       2.1    28.086
   18689      st       1    MUSC   Si12J       1       2.1    28.086
   18690      st       1    MUSC   Si12K       1       2.1    28.086
   18691      st       1    MUSC   Si12L       1       2.1    28.086
   18692      st       1    MUSC   Si12M       1       2.1    28.086
   18693      st       1    MUSC   Si12N       1       2.1    28.086
   18694      st       1    MUSC   Si12O       1       2.1    28.086
   18695      st       1    MUSC   Si12P       1       2.1    28.086
   18696      st       1    MUSC   Si12Q       1       2.1    28.086
   18697      st       1    MUSC   Si12R       1       2.1    28.086
   18698      st       1    MUSC   Si12S       1       2.1    28.086
   18699      st       1    MUSC   Si12T       1       2.1    28.086
   18700      st       1    MUSC   Si12U       1       2.1    28.086
   18701      st       1    MUSC   Si12V       1       2.1    28.086
   18702      st       1    MUSC   Si12W       1       2.1    28.086
   18703      ob       1    MUSC   O036n       1     -1.05    15.999
   18704      ob       1    MUSC   O036o       1     -1.05    15.999
   18705      ob       1    MUSC   O036p       1     -1.05    15.999
   18706      ob       1    MUSC   O036q       1     -1.05    15.999
   18707      oh       1    MUSC   O036r       1     -0.95    15.999
   18708      oh       1    MUSC   O036s       1     -0.95    15.999
   18709      oh       1    MUSC   O036t       1     -0.95    15.999
   18710      oh       1    MUSC   O036u       1     -0.95    15.999
   18711      ob       1    MUSC   O036v       1     -1.05    15.999
   18712      ob       1    MUSC   O036w       1     -1.05    15.999
   18713      ob       1    MUSC   O036x       1     -1.05    15.999
   18714      ob       1    MUSC   O036y       1     -1.05    15.999
   18715      ob       1    MUSC   O036z       1     -1.05    15.999
   18716      ob       1    MUSC   O0370       1     -1.05    15.999
   18717      ob       1    MUSC   O0371       1     -1.05    15.999
   18718      ob       1    MUSC   O0372       1     -1.05    15.999
   18719      ob       1    MUSC   O0373       1     -1.05    15.999
   18720      ob       1    MUSC   O0374       1     -1.05    15.999
   18721      ob       1    MUSC   O0375       1     -1.05    15.999
   18722      ob       1    MUSC   O0376       1     -1.05    15.999
   18723      ob       1    MUSC   O0377       1     -1.05    15.999
   18724      ob       1    MUSC   O0378       1     -1.05    15.999
   18725      ob       1    MUSC   O0379       1     -1.05    15.999
   18726      ob       1    MUSC   O037A       1     -1.05    15.999
   18727      ob       1    MUSC   O037B       1     -1.05    15.999
   18728      ob       1    MUSC   O037C       1     -1.05    15.999
   18729      ob       1    MUSC   O037D       1     -1.05    15.999
   18730      ob       1    MUSC   O037E       1     -1.05    15.999
   18731      oh       1    MUSC   O037F       1     -0.95    15.999
   18732      oh       1    MUSC   O037G       1     -0.95    15.999
   18733      oh       1    MUSC   O037H       1     -0.95    15.999
   18734      oh       1    MUSC   O037I       1     -0.95    15.999
   18735      ob       1    MUSC   O037J       1     -1.05    15.999
   18736      ob       1    MUSC   O037K       1     -1.05    15.999
   18737      ob       1    MUSC   O037L       1     -1.05    15.999
   18738      ob       1    MUSC   O037M       1     -1.05    15.999
   18739      ob       1    MUSC   O037N       1     -1.05    15.999
   18740      ob       1    MUSC   O037O       1     -1.05    15.999
   18741      ob       1    MUSC   O037P       1     -1.05    15.999
   18742      ob       1    MUSC   O037Q       1     -1.05    15.999
   18743      ob       1    MUSC   O037R       1     -1.05    15.999
   18744      ob       1    MUSC   O037S       1     -1.05    15.999
   18745      ob       1    MUSC   O037T       1     -1.05    15.999
   18746      ob       1    MUSC   O037U       1     -1.05    15.999
   18747      ob       1    MUSC   O037V       1     -1.05    15.999
   18748      ob       1    MUSC   O037W       1     -1.05    15.999
   18749      ob       1    MUSC   O037X       1     -1.05    15.999
   18750      ob       1    MUSC   O037Y       1     -1.05    15.999
   18751       K       1    MUSC   K00C7       1       1.0    39.098
   18752       K       1    MUSC   K00C8       1       1.0    39.098
   18753      ao       1    MUSC   Al0WH       1     1.575    26.982
   18754      ao       1    MUSC   Al0WI       1     1.575    26.982
   18755      ao       1    MUSC   Al0WJ       1     1.575    26.982
   18756      ao       1    MUSC   Al0WK       1     1.575    26.982
   18757      ao       1    MUSC   Al0WL       1     1.575    26.982
   18758      ao       1    MUSC   Al0WM       1     1.575    26.982
   18759      ao       1    MUSC   Al0WN       1     1.575    26.982
   18760      ao       1    MUSC   Al0WO       1     1.575    26.982
   18761      st       1    MUSC   Si12X       1       2.1    28.086
   18762      st       1    MUSC   Si12Y       1       2.1    28.086
   18763      st       1    MUSC   Si12Z       1       2.1    28.086
   18764      st       1    MUSC   Si12a       1       2.1    28.086
   18765      st       1    MUSC   Si12b       1       2.1    28.086
   18766      st       1    MUSC   Si12c       1       2.1    28.086
   18767      st       1    MUSC   Si12d       1       2.1    28.086
   18768      st       1    MUSC   Si12e       1       2.1    28.086
   18769      st       1    MUSC   Si12f       1       2.1    28.086
   18770      st       1    MUSC   Si12g       1       2.1    28.086
   18771      st       1    MUSC   Si12h       1       2.1    28.086
   18772      st       1    MUSC   Si12i       1       2.1    28.086
   18773      st       1    MUSC   Si12j       1       2.1    28.086
   18774      st       1    MUSC   Si12k       1       2.1    28.086
   18775      st       1    MUSC   Si12l       1       2.1    28.086
   18776      st       1    MUSC   Si12m       1       2.1    28.086
   18777      ob       1    MUSC   O037Z       1     -1.05    15.999
   18778      ob       1    MUSC   O037a       1     -1.05    15.999
   18779      ob       1    MUSC   O037b       1     -1.05    15.999
   18780      ob       1    MUSC   O037c       1     -1.05    15.999
   18781      oh       1    MUSC   O037d       1     -0.95    15.999
   18782      oh       1    MUSC   O037e       1     -0.95    15.999
   18783      oh       1    MUSC   O037f       1     -0.95    15.999
   18784      oh       1    MUSC   O037g       1     -0.95    15.999
   18785      ob       1    MUSC   O037h       1     -1.05    15.999
   18786      ob       1    MUSC   O037i       1     -1.05    15.999
   18787      ob       1    MUSC   O037j       1     -1.05    15.999
   18788      ob       1    MUSC   O037k       1     -1.05    15.999
   18789      ob       1    MUSC   O037l       1     -1.05    15.999
   18790      ob       1    MUSC   O037m       1     -1.05    15.999
   18791      ob       1    MUSC   O037n       1     -1.05    15.999
   18792      ob       1    MUSC   O037o       1     -1.05    15.999
   18793      ob       1    MUSC   O037p       1     -1.05    15.999
   18794      ob       1    MUSC   O037q       1     -1.05    15.999
   18795      ob       1    MUSC   O037r       1     -1.05    15.999
   18796      ob       1    MUSC   O037s       1     -1.05    15.999
   18797      ob       1    MUSC   O037t       1     -1.05    15.999
   18798      ob       1    MUSC   O037u       1     -1.05    15.999
   18799      ob       1    MUSC   O037v       1     -1.05    15.999
   18800      ob       1    MUSC   O037w       1     -1.05    15.999
   18801      ob       1    MUSC   O037x       1     -1.05    15.999
   18802      ob       1    MUSC   O037y       1     -1.05    15.999
   18803      ob       1    MUSC   O037z       1     -1.05    15.999
   18804      ob       1    MUSC   O0380       1     -1.05    15.999
   18805      oh       1    MUSC   O0381       1     -0.95    15.999
   18806      oh       1    MUSC   O0382       1     -0.95    15.999
   18807      oh       1    MUSC   O0383       1     -0.95    15.999
   18808      oh       1    MUSC   O0384       1     -0.95    15.999
   18809      ob       1    MUSC   O0385       1     -1.05    15.999
   18810      ob       1    MUSC   O0386       1     -1.05    15.999
   18811      ob       1    MUSC   O0387       1     -1.05    15.999
   18812      ob       1    MUSC   O0388       1     -1.05    15.999
   18813      ob       1    MUSC   O0389       1     -1.05    15.999
   18814      ob       1    MUSC   O038A       1     -1.05    15.999
   18815      ob       1    MUSC   O038B       1     -1.05    15.999
   18816      ob       1    MUSC   O038C       1     -1.05    15.999
   18817      ob       1    MUSC   O038D       1     -1.05    15.999
   18818      ob       1    MUSC   O038E       1     -1.05    15.999
   18819      ob       1    MUSC   O038F       1     -1.05    15.999
   18820      ob       1    MUSC   O038G       1     -1.05    15.999
   18821      ob       1    MUSC   O038H       1     -1.05    15.999
   18822      ob       1    MUSC   O038I       1     -1.05    15.999
   18823      ob       1    MUSC   O038J       1     -1.05    15.999
   18824      ob       1    MUSC   O038K       1     -1.05    15.999
   18825       K       1    MUSC   K00C9       1       1.0    39.098
   18826       K       1    MUSC   K00CA       1       1.0    39.098
   18827       K       1    MUSC   K00CB       1       1.0    39.098
   18828       K       1    MUSC   K00CC       1       1.0    39.098
   18829      ao       1    MUSC   Al0WP       1     1.575    26.982
   18830      ao       1    MUSC   Al0WQ       1     1.575    26.982
   18831      ao       1    MUSC   Al0WR       1     1.575    26.982
   18832      ao       1    MUSC   Al0WS       1     1.575    26.982
   18833      ao       1    MUSC   Al0WT       1     1.575    26.982
   18834      ao       1    MUSC   Al0WU       1     1.575    26.982
   18835      ao       1    MUSC   Al0WV       1     1.575    26.982
   18836      ao       1    MUSC   Al0WW       1     1.575    26.982
   18837      st       1    MUSC   Si12n       1       2.1    28.086
   18838      st       1    MUSC   Si12o       1       2.1    28.086
   18839      st       1    MUSC   Si12p       1       2.1    28.086
   18840      st       1    MUSC   Si12q       1       2.1    28.086
   18841      st       1    MUSC   Si12r       1       2.1    28.086
   18842      st       1    MUSC   Si12s       1       2.1    28.086
   18843      st       1    MUSC   Si12t       1       2.1    28.086
   18844      st       1    MUSC   Si12u       1       2.1    28.086
   18845      st       1    MUSC   Si12v       1       2.1    28.086
   18846      st       1    MUSC   Si12w       1       2.1    28.086
   18847      st       1    MUSC   Si12x       1       2.1    28.086
   18848      st       1    MUSC   Si12y       1       2.1    28.086
   18849      st       1    MUSC   Si12z       1       2.1    28.086
   18850      st       1    MUSC   Si130       1       2.1    28.086
   18851      st       1    MUSC   Si131       1       2.1    28.086
   18852      st       1    MUSC   Si132       1       2.1    28.086
   18853      ob       1    MUSC   O038L       1     -1.05    15.999
   18854      ob       1    MUSC   O038M       1     -1.05    15.999
   18855      ob       1    MUSC   O038N       1     -1.05    15.999
   18856      ob       1    MUSC   O038O       1     -1.05    15.999
   18857      oh       1    MUSC   O038P       1     -0.95    15.999
   18858      oh       1    MUSC   O038Q       1     -0.95    15.999
   18859      oh       1    MUSC   O038R       1     -0.95    15.999
   18860      oh       1    MUSC   O038S       1     -0.95    15.999
   18861      ob       1    MUSC   O038T       1     -1.05    15.999
   18862      ob       1    MUSC   O038U       1     -1.05    15.999
   18863      ob       1    MUSC   O038V       1     -1.05    15.999
   18864      ob       1    MUSC   O038W       1     -1.05    15.999
   18865      ob       1    MUSC   O038X       1     -1.05    15.999
   18866      ob       1    MUSC   O038Y       1     -1.05    15.999
   18867      ob       1    MUSC   O038Z       1     -1.05    15.999
   18868      ob       1    MUSC   O038a       1     -1.05    15.999
   18869      ob       1    MUSC   O038b       1     -1.05    15.999
   18870      ob       1    MUSC   O038c       1     -1.05    15.999
   18871      ob       1    MUSC   O038d       1     -1.05    15.999
   18872      ob       1    MUSC   O038e       1     -1.05    15.999
   18873      ob       1    MUSC   O038f       1     -1.05    15.999
   18874      ob       1    MUSC   O038g       1     -1.05    15.999
   18875      ob       1    MUSC   O038h       1     -1.05    15.999
   18876      ob       1    MUSC   O038i       1     -1.05    15.999
   18877      ob       1    MUSC   O038j       1     -1.05    15.999
   18878      ob       1    MUSC   O038k       1     -1.05    15.999
   18879      ob       1    MUSC   O038l       1     -1.05    15.999
   18880      ob       1    MUSC   O038m       1     -1.05    15.999
   18881      oh       1    MUSC   O038n       1     -0.95    15.999
   18882      oh       1    MUSC   O038o       1     -0.95    15.999
   18883      oh       1    MUSC   O038p       1     -0.95    15.999
   18884      oh       1    MUSC   O038q       1     -0.95    15.999
   18885      ob       1    MUSC   O038r       1     -1.05    15.999
   18886      ob       1    MUSC   O038s       1     -1.05    15.999
   18887      ob       1    MUSC   O038t       1     -1.05    15.999
   18888      ob       1    MUSC   O038u       1     -1.05    15.999
   18889      ob       1    MUSC   O038v       1     -1.05    15.999
   18890      ob       1    MUSC   O038w       1     -1.05    15.999
   18891      ob       1    MUSC   O038x       1     -1.05    15.999
   18892      ob       1    MUSC   O038y       1     -1.05    15.999
   18893      ob       1    MUSC   O038z       1     -1.05    15.999
   18894      ob       1    MUSC   O0390       1     -1.05    15.999
   18895      ob       1    MUSC   O0391       1     -1.05    15.999
   18896      ob       1    MUSC   O0392       1     -1.05    15.999
   18897      ob       1    MUSC   O0393       1     -1.05    15.999
   18898      ob       1    MUSC   O0394       1     -1.05    15.999
   18899      ob       1    MUSC   O0395       1     -1.05    15.999
   18900      ob       1    MUSC   O0396       1     -1.05    15.999
   18901       K       1    MUSC   K00CD       1       1.0    39.098
   18902       K       1    MUSC   K00CE       1       1.0    39.098
   18903      ao       1    MUSC   Al0WX       1     1.575    26.982
   18904      ao       1    MUSC   Al0WY       1     1.575    26.982
   18905      ao       1    MUSC   Al0WZ       1     1.575    26.982
   18906      ao       1    MUSC   Al0Wa       1     1.575    26.982
   18907      ao       1    MUSC   Al0Wb       1     1.575    26.982
   18908      ao       1    MUSC   Al0Wc       1     1.575    26.982
   18909      ao       1    MUSC   Al0Wd       1     1.575    26.982
   18910      ao       1    MUSC   Al0We       1     1.575    26.982
   18911      st       1    MUSC   Si133       1       2.1    28.086
   18912      st       1    MUSC   Si134       1       2.1    28.086
   18913      st       1    MUSC   Si135       1       2.1    28.086
   18914      st       1    MUSC   Si136       1       2.1    28.086
   18915      st       1    MUSC   Si137       1       2.1    28.086
   18916      st       1    MUSC   Si138       1       2.1    28.086
   18917      st       1    MUSC   Si139       1       2.1    28.086
   18918      st       1    MUSC   Si13A       1       2.1    28.086
   18919      st       1    MUSC   Si13B       1       2.1    28.086
   18920      st       1    MUSC   Si13C       1       2.1    28.086
   18921      st       1    MUSC   Si13D       1       2.1    28.086
   18922      st       1    MUSC   Si13E       1       2.1    28.086
   18923      st       1    MUSC   Si13F       1       2.1    28.086
   18924      st       1    MUSC   Si13G       1       2.1    28.086
   18925      st       1    MUSC   Si13H       1       2.1    28.086
   18926      st       1    MUSC   Si13I       1       2.1    28.086
   18927      ob       1    MUSC   O0397       1     -1.05    15.999
   18928      ob       1    MUSC   O0398       1     -1.05    15.999
   18929      ob       1    MUSC   O0399       1     -1.05    15.999
   18930      ob       1    MUSC   O039A       1     -1.05    15.999
   18931      oh       1    MUSC   O039B       1     -0.95    15.999
   18932      oh       1    MUSC   O039C       1     -0.95    15.999
   18933      oh       1    MUSC   O039D       1     -0.95    15.999
   18934      oh       1    MUSC   O039E       1     -0.95    15.999
   18935      ob       1    MUSC   O039F       1     -1.05    15.999
   18936      ob       1    MUSC   O039G       1     -1.05    15.999
   18937      ob       1    MUSC   O039H       1     -1.05    15.999
   18938      ob       1    MUSC   O039I       1     -1.05    15.999
   18939      ob       1    MUSC   O039J       1     -1.05    15.999
   18940      ob       1    MUSC   O039K       1     -1.05    15.999
   18941      ob       1    MUSC   O039L       1     -1.05    15.999
   18942      ob       1    MUSC   O039M       1     -1.05    15.999
   18943      ob       1    MUSC   O039N       1     -1.05    15.999
   18944      ob       1    MUSC   O039O       1     -1.05    15.999
   18945      ob       1    MUSC   O039P       1     -1.05    15.999
   18946      ob       1    MUSC   O039Q       1     -1.05    15.999
   18947      ob       1    MUSC   O039R       1     -1.05    15.999
   18948      ob       1    MUSC   O039S       1     -1.05    15.999
   18949      ob       1    MUSC   O039T       1     -1.05    15.999
   18950      ob       1    MUSC   O039U       1     -1.05    15.999
   18951      ob       1    MUSC   O039V       1     -1.05    15.999
   18952      ob       1    MUSC   O039W       1     -1.05    15.999
   18953      ob       1    MUSC   O039X       1     -1.05    15.999
   18954      ob       1    MUSC   O039Y       1     -1.05    15.999
   18955      oh       1    MUSC   O039Z       1     -0.95    15.999
   18956      oh       1    MUSC   O039a       1     -0.95    15.999
   18957      oh       1    MUSC   O039b       1     -0.95    15.999
   18958      oh       1    MUSC   O039c       1     -0.95    15.999
   18959      ob       1    MUSC   O039d       1     -1.05    15.999
   18960      ob       1    MUSC   O039e       1     -1.05    15.999
   18961      ob       1    MUSC   O039f       1     -1.05    15.999
   18962      ob       1    MUSC   O039g       1     -1.05    15.999
   18963      ob       1    MUSC   O039h       1     -1.05    15.999
   18964      ob       1    MUSC   O039i       1     -1.05    15.999
   18965      ob       1    MUSC   O039j       1     -1.05    15.999
   18966      ob       1    MUSC   O039k       1     -1.05    15.999
   18967      ob       1    MUSC   O039l       1     -1.05    15.999
   18968      ob       1    MUSC   O039m       1     -1.05    15.999
   18969      ob       1    MUSC   O039n       1     -1.05    15.999
   18970      ob       1    MUSC   O039o       1     -1.05    15.999
   18971      ob       1    MUSC   O039p       1     -1.05    15.999
   18972      ob       1    MUSC   O039q       1     -1.05    15.999
   18973      ob       1    MUSC   O039r       1     -1.05    15.999
   18974      ob       1    MUSC   O039s       1     -1.05    15.999
   18975       K       1    MUSC   K00CF       1       1.0    39.098
   18976       K       1    MUSC   K00CG       1       1.0    39.098
   18977       K       1    MUSC   K00CH       1       1.0    39.098
   18978       K       1    MUSC   K00CI       1       1.0    39.098
   18979      ao       1    MUSC   Al0Wf       1     1.575    26.982
   18980      ao       1    MUSC   Al0Wg       1     1.575    26.982
   18981      ao       1    MUSC   Al0Wh       1     1.575    26.982
   18982      ao       1    MUSC   Al0Wi       1     1.575    26.982
   18983      ao       1    MUSC   Al0Wj       1     1.575    26.982
   18984      ao       1    MUSC   Al0Wk       1     1.575    26.982
   18985      ao       1    MUSC   Al0Wl       1     1.575    26.982
   18986      ao       1    MUSC   Al0Wm       1     1.575    26.982
   18987      st       1    MUSC   Si13J       1       2.1    28.086
   18988      st       1    MUSC   Si13K       1       2.1    28.086
   18989      st       1    MUSC   Si13L       1       2.1    28.086
   18990      st       1    MUSC   Si13M       1       2.1    28.086
   18991      st       1    MUSC   Si13N       1       2.1    28.086
   18992      st       1    MUSC   Si13O       1       2.1    28.086
   18993      st       1    MUSC   Si13P       1       2.1    28.086
   18994      st       1    MUSC   Si13Q       1       2.1    28.086
   18995      st       1    MUSC   Si13R       1       2.1    28.086
   18996      st       1    MUSC   Si13S       1       2.1    28.086
   18997      st       1    MUSC   Si13T       1       2.1    28.086
   18998      st       1    MUSC   Si13U       1       2.1    28.086
   18999      st       1    MUSC   Si13V       1       2.1    28.086
   19000      st       1    MUSC   Si13W       1       2.1    28.086
   19001      st       1    MUSC   Si13X       1       2.1    28.086
   19002      st       1    MUSC   Si13Y       1       2.1    28.086
   19003      ob       1    MUSC   O039t       1     -1.05    15.999
   19004      ob       1    MUSC   O039u       1     -1.05    15.999
   19005      ob       1    MUSC   O039v       1     -1.05    15.999
   19006      ob       1    MUSC   O039w       1     -1.05    15.999
   19007      oh       1    MUSC   O039x       1     -0.95    15.999
   19008      oh       1    MUSC   O039y       1     -0.95    15.999
   19009      oh       1    MUSC   O039z       1     -0.95    15.999
   19010      oh       1    MUSC   O03A0       1     -0.95    15.999
   19011      ob       1    MUSC   O03A1       1     -1.05    15.999
   19012      ob       1    MUSC   O03A2       1     -1.05    15.999
   19013      ob       1    MUSC   O03A3       1     -1.05    15.999
   19014      ob       1    MUSC   O03A4       1     -1.05    15.999
   19015      ob       1    MUSC   O03A5       1     -1.05    15.999
   19016      ob       1    MUSC   O03A6       1     -1.05    15.999
   19017      ob       1    MUSC   O03A7       1     -1.05    15.999
   19018      ob       1    MUSC   O03A8       1     -1.05    15.999
   19019      ob       1    MUSC   O03A9       1     -1.05    15.999
   19020      ob       1    MUSC   O03AA       1     -1.05    15.999
   19021      ob       1    MUSC   O03AB       1     -1.05    15.999
   19022      ob       1    MUSC   O03AC       1     -1.05    15.999
   19023      ob       1    MUSC   O03AD       1     -1.05    15.999
   19024      ob       1    MUSC   O03AE       1     -1.05    15.999
   19025      ob       1    MUSC   O03AF       1     -1.05    15.999
   19026      ob       1    MUSC   O03AG       1     -1.05    15.999
   19027      ob       1    MUSC   O03AH       1     -1.05    15.999
   19028      ob       1    MUSC   O03AI       1     -1.05    15.999
   19029      ob       1    MUSC   O03AJ       1     -1.05    15.999
   19030      ob       1    MUSC   O03AK       1     -1.05    15.999
   19031      oh       1    MUSC   O03AL       1     -0.95    15.999
   19032      oh       1    MUSC   O03AM       1     -0.95    15.999
   19033      oh       1    MUSC   O03AN       1     -0.95    15.999
   19034      oh       1    MUSC   O03AO       1     -0.95    15.999
   19035      ob       1    MUSC   O03AP       1     -1.05    15.999
   19036      ob       1    MUSC   O03AQ       1     -1.05    15.999
   19037      ob       1    MUSC   O03AR       1     -1.05    15.999
   19038      ob       1    MUSC   O03AS       1     -1.05    15.999
   19039      ob       1    MUSC   O03AT       1     -1.05    15.999
   19040      ob       1    MUSC   O03AU       1     -1.05    15.999
   19041      ob       1    MUSC   O03AV       1     -1.05    15.999
   19042      ob       1    MUSC   O03AW       1     -1.05    15.999
   19043      ob       1    MUSC   O03AX       1     -1.05    15.999
   19044      ob       1    MUSC   O03AY       1     -1.05    15.999
   19045      ob       1    MUSC   O03AZ       1     -1.05    15.999
   19046      ob       1    MUSC   O03Aa       1     -1.05    15.999
   19047      ob       1    MUSC   O03Ab       1     -1.05    15.999
   19048      ob       1    MUSC   O03Ac       1     -1.05    15.999
   19049      ob       1    MUSC   O03Ad       1     -1.05    15.999
   19050      ob       1    MUSC   O03Ae       1     -1.05    15.999
   19051       K       1    MUSC   K00CJ       1       1.0    39.098
   19052       K       1    MUSC   K00CK       1       1.0    39.098
   19053      ao       1    MUSC   Al0Wn       1     1.575    26.982
   19054      ao       1    MUSC   Al0Wo       1     1.575    26.982
   19055      ao       1    MUSC   Al0Wp       1     1.575    26.982
   19056      ao       1    MUSC   Al0Wq       1     1.575    26.982
   19057      ao       1    MUSC   Al0Wr       1     1.575    26.982
   19058      ao       1    MUSC   Al0Ws       1     1.575    26.982
   19059      ao       1    MUSC   Al0Wt       1     1.575    26.982
   19060      ao       1    MUSC   Al0Wu       1     1.575    26.982
   19061      st       1    MUSC   Si13Z       1       2.1    28.086
   19062      st       1    MUSC   Si13a       1       2.1    28.086
   19063      st       1    MUSC   Si13b       1       2.1    28.086
   19064      st       1    MUSC   Si13c       1       2.1    28.086
   19065      st       1    MUSC   Si13d       1       2.1    28.086
   19066      st       1    MUSC   Si13e       1       2.1    28.086
   19067      st       1    MUSC   Si13f       1       2.1    28.086
   19068      st       1    MUSC   Si13g       1       2.1    28.086
   19069      st       1    MUSC   Si13h       1       2.1    28.086
   19070      st       1    MUSC   Si13i       1       2.1    28.086
   19071      st       1    MUSC   Si13j       1       2.1    28.086
   19072      st       1    MUSC   Si13k       1       2.1    28.086
   19073      st       1    MUSC   Si13l       1       2.1    28.086
   19074      st       1    MUSC   Si13m       1       2.1    28.086
   19075      st       1    MUSC   Si13n       1       2.1    28.086
   19076      st       1    MUSC   Si13o       1       2.1    28.086
   19077      ob       1    MUSC   O03Af       1     -1.05    15.999
   19078      ob       1    MUSC   O03Ag       1     -1.05    15.999
   19079      ob       1    MUSC   O03Ah       1     -1.05    15.999
   19080      ob       1    MUSC   O03Ai       1     -1.05    15.999
   19081      oh       1    MUSC   O03Aj       1     -0.95    15.999
   19082      oh       1    MUSC   O03Ak       1     -0.95    15.999
   19083      oh       1    MUSC   O03Al       1     -0.95    15.999
   19084      oh       1    MUSC   O03Am       1     -0.95    15.999
   19085      ob       1    MUSC   O03An       1     -1.05    15.999
   19086      ob       1    MUSC   O03Ao       1     -1.05    15.999
   19087      ob       1    MUSC   O03Ap       1     -1.05    15.999
   19088      ob       1    MUSC   O03Aq       1     -1.05    15.999
   19089      ob       1    MUSC   O03Ar       1     -1.05    15.999
   19090      ob       1    MUSC   O03As       1     -1.05    15.999
   19091      ob       1    MUSC   O03At       1     -1.05    15.999
   19092      ob       1    MUSC   O03Au       1     -1.05    15.999
   19093      ob       1    MUSC   O03Av       1     -1.05    15.999
   19094      ob       1    MUSC   O03Aw       1     -1.05    15.999
   19095      ob       1    MUSC   O03Ax       1     -1.05    15.999
   19096      ob       1    MUSC   O03Ay       1     -1.05    15.999
   19097      ob       1    MUSC   O03Az       1     -1.05    15.999
   19098      ob       1    MUSC   O03B0       1     -1.05    15.999
   19099      ob       1    MUSC   O03B1       1     -1.05    15.999
   19100      ob       1    MUSC   O03B2       1     -1.05    15.999
   19101      ob       1    MUSC   O03B3       1     -1.05    15.999
   19102      ob       1    MUSC   O03B4       1     -1.05    15.999
   19103      ob       1    MUSC   O03B5       1     -1.05    15.999
   19104      ob       1    MUSC   O03B6       1     -1.05    15.999
   19105      oh       1    MUSC   O03B7       1     -0.95    15.999
   19106      oh       1    MUSC   O03B8       1     -0.95    15.999
   19107      oh       1    MUSC   O03B9       1     -0.95    15.999
   19108      oh       1    MUSC   O03BA       1     -0.95    15.999
   19109      ob       1    MUSC   O03BB       1     -1.05    15.999
   19110      ob       1    MUSC   O03BC       1     -1.05    15.999
   19111      ob       1    MUSC   O03BD       1     -1.05    15.999
   19112      ob       1    MUSC   O03BE       1     -1.05    15.999
   19113      ob       1    MUSC   O03BF       1     -1.05    15.999
   19114      ob       1    MUSC   O03BG       1     -1.05    15.999
   19115      ob       1    MUSC   O03BH       1     -1.05    15.999
   19116      ob       1    MUSC   O03BI       1     -1.05    15.999
   19117      ob       1    MUSC   O03BJ       1     -1.05    15.999
   19118      ob       1    MUSC   O03BK       1     -1.05    15.999
   19119      ob       1    MUSC   O03BL       1     -1.05    15.999
   19120      ob       1    MUSC   O03BM       1     -1.05    15.999
   19121      ob       1    MUSC   O03BN       1     -1.05    15.999
   19122      ob       1    MUSC   O03BO       1     -1.05    15.999
   19123      ob       1    MUSC   O03BP       1     -1.05    15.999
   19124      ob       1    MUSC   O03BQ       1     -1.05    15.999
   19125       K       1    MUSC   K00CL       1       1.0    39.098
   19126       K       1    MUSC   K00CM       1       1.0    39.098
   19127       K       1    MUSC   K00CN       1       1.0    39.098
   19128       K       1    MUSC   K00CO       1       1.0    39.098
   19129      ao       1    MUSC   Al0Wv       1     1.575    26.982
   19130      ao       1    MUSC   Al0Ww       1     1.575    26.982
   19131      ao       1    MUSC   Al0Wx       1     1.575    26.982
   19132      ao       1    MUSC   Al0Wy       1     1.575    26.982
   19133      ao       1    MUSC   Al0Wz       1     1.575    26.982
   19134      ao       1    MUSC   Al0X0       1     1.575    26.982
   19135      ao       1    MUSC   Al0X1       1     1.575    26.982
   19136      ao       1    MUSC   Al0X2       1     1.575    26.982
   19137      st       1    MUSC   Si13p       1       2.1    28.086
   19138      st       1    MUSC   Si13q       1       2.1    28.086
   19139      st       1    MUSC   Si13r       1       2.1    28.086
   19140      st       1    MUSC   Si13s       1       2.1    28.086
   19141      st       1    MUSC   Si13t       1       2.1    28.086
   19142      st       1    MUSC   Si13u       1       2.1    28.086
   19143      st       1    MUSC   Si13v       1       2.1    28.086
   19144      st       1    MUSC   Si13w       1       2.1    28.086
   19145      st       1    MUSC   Si13x       1       2.1    28.086
   19146      st       1    MUSC   Si13y       1       2.1    28.086
   19147      st       1    MUSC   Si13z       1       2.1    28.086
   19148      st       1    MUSC   Si140       1       2.1    28.086
   19149      st       1    MUSC   Si141       1       2.1    28.086
   19150      st       1    MUSC   Si142       1       2.1    28.086
   19151      st       1    MUSC   Si143       1       2.1    28.086
   19152      st       1    MUSC   Si144       1       2.1    28.086
   19153      ob       1    MUSC   O03BR       1     -1.05    15.999
   19154      ob       1    MUSC   O03BS       1     -1.05    15.999
   19155      ob       1    MUSC   O03BT       1     -1.05    15.999
   19156      ob       1    MUSC   O03BU       1     -1.05    15.999
   19157      oh       1    MUSC   O03BV       1     -0.95    15.999
   19158      oh       1    MUSC   O03BW       1     -0.95    15.999
   19159      oh       1    MUSC   O03BX       1     -0.95    15.999
   19160      oh       1    MUSC   O03BY       1     -0.95    15.999
   19161      ob       1    MUSC   O03BZ       1     -1.05    15.999
   19162      ob       1    MUSC   O03Ba       1     -1.05    15.999
   19163      ob       1    MUSC   O03Bb       1     -1.05    15.999
   19164      ob       1    MUSC   O03Bc       1     -1.05    15.999
   19165      ob       1    MUSC   O03Bd       1     -1.05    15.999
   19166      ob       1    MUSC   O03Be       1     -1.05    15.999
   19167      ob       1    MUSC   O03Bf       1     -1.05    15.999
   19168      ob       1    MUSC   O03Bg       1     -1.05    15.999
   19169      ob       1    MUSC   O03Bh       1     -1.05    15.999
   19170      ob       1    MUSC   O03Bi       1     -1.05    15.999
   19171      ob       1    MUSC   O03Bj       1     -1.05    15.999
   19172      ob       1    MUSC   O03Bk       1     -1.05    15.999
   19173      ob       1    MUSC   O03Bl       1     -1.05    15.999
   19174      ob       1    MUSC   O03Bm       1     -1.05    15.999
   19175      ob       1    MUSC   O03Bn       1     -1.05    15.999
   19176      ob       1    MUSC   O03Bo       1     -1.05    15.999
   19177      ob       1    MUSC   O03Bp       1     -1.05    15.999
   19178      ob       1    MUSC   O03Bq       1     -1.05    15.999
   19179      ob       1    MUSC   O03Br       1     -1.05    15.999
   19180      ob       1    MUSC   O03Bs       1     -1.05    15.999
   19181      oh       1    MUSC   O03Bt       1     -0.95    15.999
   19182      oh       1    MUSC   O03Bu       1     -0.95    15.999
   19183      oh       1    MUSC   O03Bv       1     -0.95    15.999
   19184      oh       1    MUSC   O03Bw       1     -0.95    15.999
   19185      ob       1    MUSC   O03Bx       1     -1.05    15.999
   19186      ob       1    MUSC   O03By       1     -1.05    15.999
   19187      ob       1    MUSC   O03Bz       1     -1.05    15.999
   19188      ob       1    MUSC   O03C0       1     -1.05    15.999
   19189      ob       1    MUSC   O03C1       1     -1.05    15.999
   19190      ob       1    MUSC   O03C2       1     -1.05    15.999
   19191      ob       1    MUSC   O03C3       1     -1.05    15.999
   19192      ob       1    MUSC   O03C4       1     -1.05    15.999
   19193      ob       1    MUSC   O03C5       1     -1.05    15.999
   19194      ob       1    MUSC   O03C6       1     -1.05    15.999
   19195      ob       1    MUSC   O03C7       1     -1.05    15.999
   19196      ob       1    MUSC   O03C8       1     -1.05    15.999
   19197      ob       1    MUSC   O03C9       1     -1.05    15.999
   19198      ob       1    MUSC   O03CA       1     -1.05    15.999
   19199      ob       1    MUSC   O03CB       1     -1.05    15.999
   19200      ob       1    MUSC   O03CC       1     -1.05    15.999
   19201       K       1    MUSC   K00CP       1       1.0    39.098
   19202       K       1    MUSC   K00CQ       1       1.0    39.098
   19203      ao       1    MUSC   Al0X3       1     1.575    26.982
   19204      ao       1    MUSC   Al0X4       1     1.575    26.982
   19205      ao       1    MUSC   Al0X5       1     1.575    26.982
   19206      ao       1    MUSC   Al0X6       1     1.575    26.982
   19207      ao       1    MUSC   Al0X7       1     1.575    26.982
   19208      ao       1    MUSC   Al0X8       1     1.575    26.982
   19209      ao       1    MUSC   Al0X9       1     1.575    26.982
   19210      ao       1    MUSC   Al0XA       1     1.575    26.982
   19211      st       1    MUSC   Si145       1       2.1    28.086
   19212      st       1    MUSC   Si146       1       2.1    28.086
   19213      st       1    MUSC   Si147       1       2.1    28.086
   19214      st       1    MUSC   Si148       1       2.1    28.086
   19215      st       1    MUSC   Si149       1       2.1    28.086
   19216      st       1    MUSC   Si14A       1       2.1    28.086
   19217      st       1    MUSC   Si14B       1       2.1    28.086
   19218      st       1    MUSC   Si14C       1       2.1    28.086
   19219      st       1    MUSC   Si14D       1       2.1    28.086
   19220      st       1    MUSC   Si14E       1       2.1    28.086
   19221      st       1    MUSC   Si14F       1       2.1    28.086
   19222      st       1    MUSC   Si14G       1       2.1    28.086
   19223      st       1    MUSC   Si14H       1       2.1    28.086
   19224      st       1    MUSC   Si14I       1       2.1    28.086
   19225      st       1    MUSC   Si14J       1       2.1    28.086
   19226      st       1    MUSC   Si14K       1       2.1    28.086
   19227      ob       1    MUSC   O03CD       1     -1.05    15.999
   19228      ob       1    MUSC   O03CE       1     -1.05    15.999
   19229      ob       1    MUSC   O03CF       1     -1.05    15.999
   19230      ob       1    MUSC   O03CG       1     -1.05    15.999
   19231      oh       1    MUSC   O03CH       1     -0.95    15.999
   19232      oh       1    MUSC   O03CI       1     -0.95    15.999
   19233      oh       1    MUSC   O03CJ       1     -0.95    15.999
   19234      oh       1    MUSC   O03CK       1     -0.95    15.999
   19235      ob       1    MUSC   O03CL       1     -1.05    15.999
   19236      ob       1    MUSC   O03CM       1     -1.05    15.999
   19237      ob       1    MUSC   O03CN       1     -1.05    15.999
   19238      ob       1    MUSC   O03CO       1     -1.05    15.999
   19239      ob       1    MUSC   O03CP       1     -1.05    15.999
   19240      ob       1    MUSC   O03CQ       1     -1.05    15.999
   19241      ob       1    MUSC   O03CR       1     -1.05    15.999
   19242      ob       1    MUSC   O03CS       1     -1.05    15.999
   19243      ob       1    MUSC   O03CT       1     -1.05    15.999
   19244      ob       1    MUSC   O03CU       1     -1.05    15.999
   19245      ob       1    MUSC   O03CV       1     -1.05    15.999
   19246      ob       1    MUSC   O03CW       1     -1.05    15.999
   19247      ob       1    MUSC   O03CX       1     -1.05    15.999
   19248      ob       1    MUSC   O03CY       1     -1.05    15.999
   19249      ob       1    MUSC   O03CZ       1     -1.05    15.999
   19250      ob       1    MUSC   O03Ca       1     -1.05    15.999
   19251      ob       1    MUSC   O03Cb       1     -1.05    15.999
   19252      ob       1    MUSC   O03Cc       1     -1.05    15.999
   19253      ob       1    MUSC   O03Cd       1     -1.05    15.999
   19254      ob       1    MUSC   O03Ce       1     -1.05    15.999
   19255      oh       1    MUSC   O03Cf       1     -0.95    15.999
   19256      oh       1    MUSC   O03Cg       1     -0.95    15.999
   19257      oh       1    MUSC   O03Ch       1     -0.95    15.999
   19258      oh       1    MUSC   O03Ci       1     -0.95    15.999
   19259      ob       1    MUSC   O03Cj       1     -1.05    15.999
   19260      ob       1    MUSC   O03Ck       1     -1.05    15.999
   19261      ob       1    MUSC   O03Cl       1     -1.05    15.999
   19262      ob       1    MUSC   O03Cm       1     -1.05    15.999
   19263      ob       1    MUSC   O03Cn       1     -1.05    15.999
   19264      ob       1    MUSC   O03Co       1     -1.05    15.999
   19265      ob       1    MUSC   O03Cp       1     -1.05    15.999
   19266      ob       1    MUSC   O03Cq       1     -1.05    15.999
   19267      ob       1    MUSC   O03Cr       1     -1.05    15.999
   19268      ob       1    MUSC   O03Cs       1     -1.05    15.999
   19269      ob       1    MUSC   O03Ct       1     -1.05    15.999
   19270      ob       1    MUSC   O03Cu       1     -1.05    15.999
   19271      ob       1    MUSC   O03Cv       1     -1.05    15.999
   19272      ob       1    MUSC   O03Cw       1     -1.05    15.999
   19273      ob       1    MUSC   O03Cx       1     -1.05    15.999
   19274      ob       1    MUSC   O03Cy       1     -1.05    15.999
   19275       K       1    MUSC   K00CR       1       1.0    39.098
   19276       K       1    MUSC   K00CS       1       1.0    39.098
   19277       K       1    MUSC   K00CT       1       1.0    39.098
   19278       K       1    MUSC   K00CU       1       1.0    39.098
   19279      ao       1    MUSC   Al0XB       1     1.575    26.982
   19280      ao       1    MUSC   Al0XC       1     1.575    26.982
   19281      ao       1    MUSC   Al0XD       1     1.575    26.982
   19282      ao       1    MUSC   Al0XE       1     1.575    26.982
   19283      ao       1    MUSC   Al0XF       1     1.575    26.982
   19284      ao       1    MUSC   Al0XG       1     1.575    26.982
   19285      ao       1    MUSC   Al0XH       1     1.575    26.982
   19286      ao       1    MUSC   Al0XI       1     1.575    26.982
   19287      st       1    MUSC   Si14L       1       2.1    28.086
   19288      st       1    MUSC   Si14M       1       2.1    28.086
   19289      st       1    MUSC   Si14N       1       2.1    28.086
   19290      st       1    MUSC   Si14O       1       2.1    28.086
   19291      st       1    MUSC   Si14P       1       2.1    28.086
   19292      st       1    MUSC   Si14Q       1       2.1    28.086
   19293      st       1    MUSC   Si14R       1       2.1    28.086
   19294      st       1    MUSC   Si14S       1       2.1    28.086
   19295      st       1    MUSC   Si14T       1       2.1    28.086
   19296      st       1    MUSC   Si14U       1       2.1    28.086
   19297      st       1    MUSC   Si14V       1       2.1    28.086
   19298      st       1    MUSC   Si14W       1       2.1    28.086
   19299      st       1    MUSC   Si14X       1       2.1    28.086
   19300      st       1    MUSC   Si14Y       1       2.1    28.086
   19301      st       1    MUSC   Si14Z       1       2.1    28.086
   19302      st       1    MUSC   Si14a       1       2.1    28.086
   19303      ob       1    MUSC   O03Cz       1     -1.05    15.999
   19304      ob       1    MUSC   O03D0       1     -1.05    15.999
   19305      ob       1    MUSC   O03D1       1     -1.05    15.999
   19306      ob       1    MUSC   O03D2       1     -1.05    15.999
   19307      oh       1    MUSC   O03D3       1     -0.95    15.999
   19308      oh       1    MUSC   O03D4       1     -0.95    15.999
   19309      oh       1    MUSC   O03D5       1     -0.95    15.999
   19310      oh       1    MUSC   O03D6       1     -0.95    15.999
   19311      ob       1    MUSC   O03D7       1     -1.05    15.999
   19312      ob       1    MUSC   O03D8       1     -1.05    15.999
   19313      ob       1    MUSC   O03D9       1     -1.05    15.999
   19314      ob       1    MUSC   O03DA       1     -1.05    15.999
   19315      ob       1    MUSC   O03DB       1     -1.05    15.999
   19316      ob       1    MUSC   O03DC       1     -1.05    15.999
   19317      ob       1    MUSC   O03DD       1     -1.05    15.999
   19318      ob       1    MUSC   O03DE       1     -1.05    15.999
   19319      ob       1    MUSC   O03DF       1     -1.05    15.999
   19320      ob       1    MUSC   O03DG       1     -1.05    15.999
   19321      ob       1    MUSC   O03DH       1     -1.05    15.999
   19322      ob       1    MUSC   O03DI       1     -1.05    15.999
   19323      ob       1    MUSC   O03DJ       1     -1.05    15.999
   19324      ob       1    MUSC   O03DK       1     -1.05    15.999
   19325      ob       1    MUSC   O03DL       1     -1.05    15.999
   19326      ob       1    MUSC   O03DM       1     -1.05    15.999
   19327      ob       1    MUSC   O03DN       1     -1.05    15.999
   19328      ob       1    MUSC   O03DO       1     -1.05    15.999
   19329      ob       1    MUSC   O03DP       1     -1.05    15.999
   19330      ob       1    MUSC   O03DQ       1     -1.05    15.999
   19331      oh       1    MUSC   O03DR       1     -0.95    15.999
   19332      oh       1    MUSC   O03DS       1     -0.95    15.999
   19333      oh       1    MUSC   O03DT       1     -0.95    15.999
   19334      oh       1    MUSC   O03DU       1     -0.95    15.999
   19335      ob       1    MUSC   O03DV       1     -1.05    15.999
   19336      ob       1    MUSC   O03DW       1     -1.05    15.999
   19337      ob       1    MUSC   O03DX       1     -1.05    15.999
   19338      ob       1    MUSC   O03DY       1     -1.05    15.999
   19339      ob       1    MUSC   O03DZ       1     -1.05    15.999
   19340      ob       1    MUSC   O03Da       1     -1.05    15.999
   19341      ob       1    MUSC   O03Db       1     -1.05    15.999
   19342      ob       1    MUSC   O03Dc       1     -1.05    15.999
   19343      ob       1    MUSC   O03Dd       1     -1.05    15.999
   19344      ob       1    MUSC   O03De       1     -1.05    15.999
   19345      ob       1    MUSC   O03Df       1     -1.05    15.999
   19346      ob       1    MUSC   O03Dg       1     -1.05    15.999
   19347      ob       1    MUSC   O03Dh       1     -1.05    15.999
   19348      ob       1    MUSC   O03Di       1     -1.05    15.999
   19349      ob       1    MUSC   O03Dj       1     -1.05    15.999
   19350      ob       1    MUSC   O03Dk       1     -1.05    15.999
   19351       K       1    MUSC   K00CV       1       1.0    39.098
   19352       K       1    MUSC   K00CW       1       1.0    39.098
   19353      ao       1    MUSC   Al0XJ       1     1.575    26.982
   19354      ao       1    MUSC   Al0XK       1     1.575    26.982
   19355      ao       1    MUSC   Al0XL       1     1.575    26.982
   19356      ao       1    MUSC   Al0XM       1     1.575    26.982
   19357      ao       1    MUSC   Al0XN       1     1.575    26.982
   19358      ao       1    MUSC   Al0XO       1     1.575    26.982
   19359      ao       1    MUSC   Al0XP       1     1.575    26.982
   19360      ao       1    MUSC   Al0XQ       1     1.575    26.982
   19361      st       1    MUSC   Si14b       1       2.1    28.086
   19362      st       1    MUSC   Si14c       1       2.1    28.086
   19363      st       1    MUSC   Si14d       1       2.1    28.086
   19364      st       1    MUSC   Si14e       1       2.1    28.086
   19365      st       1    MUSC   Si14f       1       2.1    28.086
   19366      st       1    MUSC   Si14g       1       2.1    28.086
   19367      st       1    MUSC   Si14h       1       2.1    28.086
   19368      st       1    MUSC   Si14i       1       2.1    28.086
   19369      st       1    MUSC   Si14j       1       2.1    28.086
   19370      st       1    MUSC   Si14k       1       2.1    28.086
   19371      st       1    MUSC   Si14l       1       2.1    28.086
   19372      st       1    MUSC   Si14m       1       2.1    28.086
   19373      st       1    MUSC   Si14n       1       2.1    28.086
   19374      st       1    MUSC   Si14o       1       2.1    28.086
   19375      st       1    MUSC   Si14p       1       2.1    28.086
   19376      st       1    MUSC   Si14q       1       2.1    28.086
   19377      ob       1    MUSC   O03Dl       1     -1.05    15.999
   19378      ob       1    MUSC   O03Dm       1     -1.05    15.999
   19379      ob       1    MUSC   O03Dn       1     -1.05    15.999
   19380      ob       1    MUSC   O03Do       1     -1.05    15.999
   19381      oh       1    MUSC   O03Dp       1     -0.95    15.999
   19382      oh       1    MUSC   O03Dq       1     -0.95    15.999
   19383      oh       1    MUSC   O03Dr       1     -0.95    15.999
   19384      oh       1    MUSC   O03Ds       1     -0.95    15.999
   19385      ob       1    MUSC   O03Dt       1     -1.05    15.999
   19386      ob       1    MUSC   O03Du       1     -1.05    15.999
   19387      ob       1    MUSC   O03Dv       1     -1.05    15.999
   19388      ob       1    MUSC   O03Dw       1     -1.05    15.999
   19389      ob       1    MUSC   O03Dx       1     -1.05    15.999
   19390      ob       1    MUSC   O03Dy       1     -1.05    15.999
   19391      ob       1    MUSC   O03Dz       1     -1.05    15.999
   19392      ob       1    MUSC   O03E0       1     -1.05    15.999
   19393      ob       1    MUSC   O03E1       1     -1.05    15.999
   19394      ob       1    MUSC   O03E2       1     -1.05    15.999
   19395      ob       1    MUSC   O03E3       1     -1.05    15.999
   19396      ob       1    MUSC   O03E4       1     -1.05    15.999
   19397      ob       1    MUSC   O03E5       1     -1.05    15.999
   19398      ob       1    MUSC   O03E6       1     -1.05    15.999
   19399      ob       1    MUSC   O03E7       1     -1.05    15.999
   19400      ob       1    MUSC   O03E8       1     -1.05    15.999
   19401      ob       1    MUSC   O03E9       1     -1.05    15.999
   19402      ob       1    MUSC   O03EA       1     -1.05    15.999
   19403      ob       1    MUSC   O03EB       1     -1.05    15.999
   19404      ob       1    MUSC   O03EC       1     -1.05    15.999
   19405      oh       1    MUSC   O03ED       1     -0.95    15.999
   19406      oh       1    MUSC   O03EE       1     -0.95    15.999
   19407      oh       1    MUSC   O03EF       1     -0.95    15.999
   19408      oh       1    MUSC   O03EG       1     -0.95    15.999
   19409      ob       1    MUSC   O03EH       1     -1.05    15.999
   19410      ob       1    MUSC   O03EI       1     -1.05    15.999
   19411      ob       1    MUSC   O03EJ       1     -1.05    15.999
   19412      ob       1    MUSC   O03EK       1     -1.05    15.999
   19413      ob       1    MUSC   O03EL       1     -1.05    15.999
   19414      ob       1    MUSC   O03EM       1     -1.05    15.999
   19415      ob       1    MUSC   O03EN       1     -1.05    15.999
   19416      ob       1    MUSC   O03EO       1     -1.05    15.999
   19417      ob       1    MUSC   O03EP       1     -1.05    15.999
   19418      ob       1    MUSC   O03EQ       1     -1.05    15.999
   19419      ob       1    MUSC   O03ER       1     -1.05    15.999
   19420      ob       1    MUSC   O03ES       1     -1.05    15.999
   19421      ob       1    MUSC   O03ET       1     -1.05    15.999
   19422      ob       1    MUSC   O03EU       1     -1.05    15.999
   19423      ob       1    MUSC   O03EV       1     -1.05    15.999
   19424      ob       1    MUSC   O03EW       1     -1.05    15.999
   19425       K       1    MUSC   K00CX       1       1.0    39.098
   19426       K       1    MUSC   K00CY       1       1.0    39.098
   19427       K       1    MUSC   K00CZ       1       1.0    39.098
   19428       K       1    MUSC   K00Ca       1       1.0    39.098
   19429      ao       1    MUSC   Al0XR       1     1.575    26.982
   19430      ao       1    MUSC   Al0XS       1     1.575    26.982
   19431      ao       1    MUSC   Al0XT       1     1.575    26.982
   19432      ao       1    MUSC   Al0XU       1     1.575    26.982
   19433      ao       1    MUSC   Al0XV       1     1.575    26.982
   19434      ao       1    MUSC   Al0XW       1     1.575    26.982
   19435      ao       1    MUSC   Al0XX       1     1.575    26.982
   19436      ao       1    MUSC   Al0XY       1     1.575    26.982
   19437      st       1    MUSC   Si14r       1       2.1    28.086
   19438      st       1    MUSC   Si14s       1       2.1    28.086
   19439      st       1    MUSC   Si14t       1       2.1    28.086
   19440      st       1    MUSC   Si14u       1       2.1    28.086
   19441      st       1    MUSC   Si14v       1       2.1    28.086
   19442      st       1    MUSC   Si14w       1       2.1    28.086
   19443      st       1    MUSC   Si14x       1       2.1    28.086
   19444      st       1    MUSC   Si14y       1       2.1    28.086
   19445      st       1    MUSC   Si14z       1       2.1    28.086
   19446      st       1    MUSC   Si150       1       2.1    28.086
   19447      st       1    MUSC   Si151       1       2.1    28.086
   19448      st       1    MUSC   Si152       1       2.1    28.086
   19449      st       1    MUSC   Si153       1       2.1    28.086
   19450      st       1    MUSC   Si154       1       2.1    28.086
   19451      st       1    MUSC   Si155       1       2.1    28.086
   19452      st       1    MUSC   Si156       1       2.1    28.086
   19453      ob       1    MUSC   O03EX       1     -1.05    15.999
   19454      ob       1    MUSC   O03EY       1     -1.05    15.999
   19455      ob       1    MUSC   O03EZ       1     -1.05    15.999
   19456      ob       1    MUSC   O03Ea       1     -1.05    15.999
   19457      oh       1    MUSC   O03Eb       1     -0.95    15.999
   19458      oh       1    MUSC   O03Ec       1     -0.95    15.999
   19459      oh       1    MUSC   O03Ed       1     -0.95    15.999
   19460      oh       1    MUSC   O03Ee       1     -0.95    15.999
   19461      ob       1    MUSC   O03Ef       1     -1.05    15.999
   19462      ob       1    MUSC   O03Eg       1     -1.05    15.999
   19463      ob       1    MUSC   O03Eh       1     -1.05    15.999
   19464      ob       1    MUSC   O03Ei       1     -1.05    15.999
   19465      ob       1    MUSC   O03Ej       1     -1.05    15.999
   19466      ob       1    MUSC   O03Ek       1     -1.05    15.999
   19467      ob       1    MUSC   O03El       1     -1.05    15.999
   19468      ob       1    MUSC   O03Em       1     -1.05    15.999
   19469      ob       1    MUSC   O03En       1     -1.05    15.999
   19470      ob       1    MUSC   O03Eo       1     -1.05    15.999
   19471      ob       1    MUSC   O03Ep       1     -1.05    15.999
   19472      ob       1    MUSC   O03Eq       1     -1.05    15.999
   19473      ob       1    MUSC   O03Er       1     -1.05    15.999
   19474      ob       1    MUSC   O03Es       1     -1.05    15.999
   19475      ob       1    MUSC   O03Et       1     -1.05    15.999
   19476      ob       1    MUSC   O03Eu       1     -1.05    15.999
   19477      ob       1    MUSC   O03Ev       1     -1.05    15.999
   19478      ob       1    MUSC   O03Ew       1     -1.05    15.999
   19479      ob       1    MUSC   O03Ex       1     -1.05    15.999
   19480      ob       1    MUSC   O03Ey       1     -1.05    15.999
   19481      oh       1    MUSC   O03Ez       1     -0.95    15.999
   19482      oh       1    MUSC   O03F0       1     -0.95    15.999
   19483      oh       1    MUSC   O03F1       1     -0.95    15.999
   19484      oh       1    MUSC   O03F2       1     -0.95    15.999
   19485      ob       1    MUSC   O03F3       1     -1.05    15.999
   19486      ob       1    MUSC   O03F4       1     -1.05    15.999
   19487      ob       1    MUSC   O03F5       1     -1.05    15.999
   19488      ob       1    MUSC   O03F6       1     -1.05    15.999
   19489      ob       1    MUSC   O03F7       1     -1.05    15.999
   19490      ob       1    MUSC   O03F8       1     -1.05    15.999
   19491      ob       1    MUSC   O03F9       1     -1.05    15.999
   19492      ob       1    MUSC   O03FA       1     -1.05    15.999
   19493      ob       1    MUSC   O03FB       1     -1.05    15.999
   19494      ob       1    MUSC   O03FC       1     -1.05    15.999
   19495      ob       1    MUSC   O03FD       1     -1.05    15.999
   19496      ob       1    MUSC   O03FE       1     -1.05    15.999
   19497      ob       1    MUSC   O03FF       1     -1.05    15.999
   19498      ob       1    MUSC   O03FG       1     -1.05    15.999
   19499      ob       1    MUSC   O03FH       1     -1.05    15.999
   19500      ob       1    MUSC   O03FI       1     -1.05    15.999
   19501       K       1    MUSC   K00Cb       1       1.0    39.098
   19502       K       1    MUSC   K00Cc       1       1.0    39.098
   19503      ao       1    MUSC   Al0XZ       1     1.575    26.982
   19504      ao       1    MUSC   Al0Xa       1     1.575    26.982
   19505      ao       1    MUSC   Al0Xb       1     1.575    26.982
   19506      ao       1    MUSC   Al0Xc       1     1.575    26.982
   19507      ao       1    MUSC   Al0Xd       1     1.575    26.982
   19508      ao       1    MUSC   Al0Xe       1     1.575    26.982
   19509      ao       1    MUSC   Al0Xf       1     1.575    26.982
   19510      ao       1    MUSC   Al0Xg       1     1.575    26.982
   19511      st       1    MUSC   Si157       1       2.1    28.086
   19512      st       1    MUSC   Si158       1       2.1    28.086
   19513      st       1    MUSC   Si159       1       2.1    28.086
   19514      st       1    MUSC   Si15A       1       2.1    28.086
   19515      st       1    MUSC   Si15B       1       2.1    28.086
   19516      st       1    MUSC   Si15C       1       2.1    28.086
   19517      st       1    MUSC   Si15D       1       2.1    28.086
   19518      st       1    MUSC   Si15E       1       2.1    28.086
   19519      st       1    MUSC   Si15F       1       2.1    28.086
   19520      st       1    MUSC   Si15G       1       2.1    28.086
   19521      st       1    MUSC   Si15H       1       2.1    28.086
   19522      st       1    MUSC   Si15I       1       2.1    28.086
   19523      st       1    MUSC   Si15J       1       2.1    28.086
   19524      st       1    MUSC   Si15K       1       2.1    28.086
   19525      st       1    MUSC   Si15L       1       2.1    28.086
   19526      st       1    MUSC   Si15M       1       2.1    28.086
   19527      ob       1    MUSC   O03FJ       1     -1.05    15.999
   19528      ob       1    MUSC   O03FK       1     -1.05    15.999
   19529      ob       1    MUSC   O03FL       1     -1.05    15.999
   19530      ob       1    MUSC   O03FM       1     -1.05    15.999
   19531      oh       1    MUSC   O03FN       1     -0.95    15.999
   19532      oh       1    MUSC   O03FO       1     -0.95    15.999
   19533      oh       1    MUSC   O03FP       1     -0.95    15.999
   19534      oh       1    MUSC   O03FQ       1     -0.95    15.999
   19535      ob       1    MUSC   O03FR       1     -1.05    15.999
   19536      ob       1    MUSC   O03FS       1     -1.05    15.999
   19537      ob       1    MUSC   O03FT       1     -1.05    15.999
   19538      ob       1    MUSC   O03FU       1     -1.05    15.999
   19539      ob       1    MUSC   O03FV       1     -1.05    15.999
   19540      ob       1    MUSC   O03FW       1     -1.05    15.999
   19541      ob       1    MUSC   O03FX       1     -1.05    15.999
   19542      ob       1    MUSC   O03FY       1     -1.05    15.999
   19543      ob       1    MUSC   O03FZ       1     -1.05    15.999
   19544      ob       1    MUSC   O03Fa       1     -1.05    15.999
   19545      ob       1    MUSC   O03Fb       1     -1.05    15.999
   19546      ob       1    MUSC   O03Fc       1     -1.05    15.999
   19547      ob       1    MUSC   O03Fd       1     -1.05    15.999
   19548      ob       1    MUSC   O03Fe       1     -1.05    15.999
   19549      ob       1    MUSC   O03Ff       1     -1.05    15.999
   19550      ob       1    MUSC   O03Fg       1     -1.05    15.999
   19551      ob       1    MUSC   O03Fh       1     -1.05    15.999
   19552      ob       1    MUSC   O03Fi       1     -1.05    15.999
   19553      ob       1    MUSC   O03Fj       1     -1.05    15.999
   19554      ob       1    MUSC   O03Fk       1     -1.05    15.999
   19555      oh       1    MUSC   O03Fl       1     -0.95    15.999
   19556      oh       1    MUSC   O03Fm       1     -0.95    15.999
   19557      oh       1    MUSC   O03Fn       1     -0.95    15.999
   19558      oh       1    MUSC   O03Fo       1     -0.95    15.999
   19559      ob       1    MUSC   O03Fp       1     -1.05    15.999
   19560      ob       1    MUSC   O03Fq       1     -1.05    15.999
   19561      ob       1    MUSC   O03Fr       1     -1.05    15.999
   19562      ob       1    MUSC   O03Fs       1     -1.05    15.999
   19563      ob       1    MUSC   O03Ft       1     -1.05    15.999
   19564      ob       1    MUSC   O03Fu       1     -1.05    15.999
   19565      ob       1    MUSC   O03Fv       1     -1.05    15.999
   19566      ob       1    MUSC   O03Fw       1     -1.05    15.999
   19567      ob       1    MUSC   O03Fx       1     -1.05    15.999
   19568      ob       1    MUSC   O03Fy       1     -1.05    15.999
   19569      ob       1    MUSC   O03Fz       1     -1.05    15.999
   19570      ob       1    MUSC   O03G0       1     -1.05    15.999
   19571      ob       1    MUSC   O03G1       1     -1.05    15.999
   19572      ob       1    MUSC   O03G2       1     -1.05    15.999
   19573      ob       1    MUSC   O03G3       1     -1.05    15.999
   19574      ob       1    MUSC   O03G4       1     -1.05    15.999
   19575       K       1    MUSC   K00Cd       1       1.0    39.098
   19576       K       1    MUSC   K00Ce       1       1.0    39.098
   19577       K       1    MUSC   K00Cf       1       1.0    39.098
   19578       K       1    MUSC   K00Cg       1       1.0    39.098
   19579      ao       1    MUSC   Al0Xh       1     1.575    26.982
   19580      ao       1    MUSC   Al0Xi       1     1.575    26.982
   19581      ao       1    MUSC   Al0Xj       1     1.575    26.982
   19582      ao       1    MUSC   Al0Xk       1     1.575    26.982
   19583      ao       1    MUSC   Al0Xl       1     1.575    26.982
   19584      ao       1    MUSC   Al0Xm       1     1.575    26.982
   19585      ao       1    MUSC   Al0Xn       1     1.575    26.982
   19586      ao       1    MUSC   Al0Xo       1     1.575    26.982
   19587      st       1    MUSC   Si15N       1       2.1    28.086
   19588      st       1    MUSC   Si15O       1       2.1    28.086
   19589      st       1    MUSC   Si15P       1       2.1    28.086
   19590      st       1    MUSC   Si15Q       1       2.1    28.086
   19591      st       1    MUSC   Si15R       1       2.1    28.086
   19592      st       1    MUSC   Si15S       1       2.1    28.086
   19593      st       1    MUSC   Si15T       1       2.1    28.086
   19594      st       1    MUSC   Si15U       1       2.1    28.086
   19595      st       1    MUSC   Si15V       1       2.1    28.086
   19596      st       1    MUSC   Si15W       1       2.1    28.086
   19597      st       1    MUSC   Si15X       1       2.1    28.086
   19598      st       1    MUSC   Si15Y       1       2.1    28.086
   19599      st       1    MUSC   Si15Z       1       2.1    28.086
   19600      st       1    MUSC   Si15a       1       2.1    28.086
   19601      st       1    MUSC   Si15b       1       2.1    28.086
   19602      st       1    MUSC   Si15c       1       2.1    28.086
   19603      ob       1    MUSC   O03G5       1     -1.05    15.999
   19604      ob       1    MUSC   O03G6       1     -1.05    15.999
   19605      ob       1    MUSC   O03G7       1     -1.05    15.999
   19606      ob       1    MUSC   O03G8       1     -1.05    15.999
   19607      oh       1    MUSC   O03G9       1     -0.95    15.999
   19608      oh       1    MUSC   O03GA       1     -0.95    15.999
   19609      oh       1    MUSC   O03GB       1     -0.95    15.999
   19610      oh       1    MUSC   O03GC       1     -0.95    15.999
   19611      ob       1    MUSC   O03GD       1     -1.05    15.999
   19612      ob       1    MUSC   O03GE       1     -1.05    15.999
   19613      ob       1    MUSC   O03GF       1     -1.05    15.999
   19614      ob       1    MUSC   O03GG       1     -1.05    15.999
   19615      ob       1    MUSC   O03GH       1     -1.05    15.999
   19616      ob       1    MUSC   O03GI       1     -1.05    15.999
   19617      ob       1    MUSC   O03GJ       1     -1.05    15.999
   19618      ob       1    MUSC   O03GK       1     -1.05    15.999
   19619      ob       1    MUSC   O03GL       1     -1.05    15.999
   19620      ob       1    MUSC   O03GM       1     -1.05    15.999
   19621      ob       1    MUSC   O03GN       1     -1.05    15.999
   19622      ob       1    MUSC   O03GO       1     -1.05    15.999
   19623      ob       1    MUSC   O03GP       1     -1.05    15.999
   19624      ob       1    MUSC   O03GQ       1     -1.05    15.999
   19625      ob       1    MUSC   O03GR       1     -1.05    15.999
   19626      ob       1    MUSC   O03GS       1     -1.05    15.999
   19627      ob       1    MUSC   O03GT       1     -1.05    15.999
   19628      ob       1    MUSC   O03GU       1     -1.05    15.999
   19629      ob       1    MUSC   O03GV       1     -1.05    15.999
   19630      ob       1    MUSC   O03GW       1     -1.05    15.999
   19631      oh       1    MUSC   O03GX       1     -0.95    15.999
   19632      oh       1    MUSC   O03GY       1     -0.95    15.999
   19633      oh       1    MUSC   O03GZ       1     -0.95    15.999
   19634      oh       1    MUSC   O03Ga       1     -0.95    15.999
   19635      ob       1    MUSC   O03Gb       1     -1.05    15.999
   19636      ob       1    MUSC   O03Gc       1     -1.05    15.999
   19637      ob       1    MUSC   O03Gd       1     -1.05    15.999
   19638      ob       1    MUSC   O03Ge       1     -1.05    15.999
   19639      ob       1    MUSC   O03Gf       1     -1.05    15.999
   19640      ob       1    MUSC   O03Gg       1     -1.05    15.999
   19641      ob       1    MUSC   O03Gh       1     -1.05    15.999
   19642      ob       1    MUSC   O03Gi       1     -1.05    15.999
   19643      ob       1    MUSC   O03Gj       1     -1.05    15.999
   19644      ob       1    MUSC   O03Gk       1     -1.05    15.999
   19645      ob       1    MUSC   O03Gl       1     -1.05    15.999
   19646      ob       1    MUSC   O03Gm       1     -1.05    15.999
   19647      ob       1    MUSC   O03Gn       1     -1.05    15.999
   19648      ob       1    MUSC   O03Go       1     -1.05    15.999
   19649      ob       1    MUSC   O03Gp       1     -1.05    15.999
   19650      ob       1    MUSC   O03Gq       1     -1.05    15.999
   19651       K       1    MUSC   K00Ch       1       1.0    39.098
   19652       K       1    MUSC   K00Ci       1       1.0    39.098
   19653      ao       1    MUSC   Al0Xp       1     1.575    26.982
   19654      ao       1    MUSC   Al0Xq       1     1.575    26.982
   19655      ao       1    MUSC   Al0Xr       1     1.575    26.982
   19656      ao       1    MUSC   Al0Xs       1     1.575    26.982
   19657      ao       1    MUSC   Al0Xt       1     1.575    26.982
   19658      ao       1    MUSC   Al0Xu       1     1.575    26.982
   19659      ao       1    MUSC   Al0Xv       1     1.575    26.982
   19660      ao       1    MUSC   Al0Xw       1     1.575    26.982
   19661      st       1    MUSC   Si15d       1       2.1    28.086
   19662      st       1    MUSC   Si15e       1       2.1    28.086
   19663      st       1    MUSC   Si15f       1       2.1    28.086
   19664      st       1    MUSC   Si15g       1       2.1    28.086
   19665      st       1    MUSC   Si15h       1       2.1    28.086
   19666      st       1    MUSC   Si15i       1       2.1    28.086
   19667      st       1    MUSC   Si15j       1       2.1    28.086
   19668      st       1    MUSC   Si15k       1       2.1    28.086
   19669      st       1    MUSC   Si15l       1       2.1    28.086
   19670      st       1    MUSC   Si15m       1       2.1    28.086
   19671      st       1    MUSC   Si15n       1       2.1    28.086
   19672      st       1    MUSC   Si15o       1       2.1    28.086
   19673      st       1    MUSC   Si15p       1       2.1    28.086
   19674      st       1    MUSC   Si15q       1       2.1    28.086
   19675      st       1    MUSC   Si15r       1       2.1    28.086
   19676      st       1    MUSC   Si15s       1       2.1    28.086
   19677      ob       1    MUSC   O03Gr       1     -1.05    15.999
   19678      ob       1    MUSC   O03Gs       1     -1.05    15.999
   19679      ob       1    MUSC   O03Gt       1     -1.05    15.999
   19680      ob       1    MUSC   O03Gu       1     -1.05    15.999
   19681      oh       1    MUSC   O03Gv       1     -0.95    15.999
   19682      oh       1    MUSC   O03Gw       1     -0.95    15.999
   19683      oh       1    MUSC   O03Gx       1     -0.95    15.999
   19684      oh       1    MUSC   O03Gy       1     -0.95    15.999
   19685      ob       1    MUSC   O03Gz       1     -1.05    15.999
   19686      ob       1    MUSC   O03H0       1     -1.05    15.999
   19687      ob       1    MUSC   O03H1       1     -1.05    15.999
   19688      ob       1    MUSC   O03H2       1     -1.05    15.999
   19689      ob       1    MUSC   O03H3       1     -1.05    15.999
   19690      ob       1    MUSC   O03H4       1     -1.05    15.999
   19691      ob       1    MUSC   O03H5       1     -1.05    15.999
   19692      ob       1    MUSC   O03H6       1     -1.05    15.999
   19693      ob       1    MUSC   O03H7       1     -1.05    15.999
   19694      ob       1    MUSC   O03H8       1     -1.05    15.999
   19695      ob       1    MUSC   O03H9       1     -1.05    15.999
   19696      ob       1    MUSC   O03HA       1     -1.05    15.999
   19697      ob       1    MUSC   O03HB       1     -1.05    15.999
   19698      ob       1    MUSC   O03HC       1     -1.05    15.999
   19699      ob       1    MUSC   O03HD       1     -1.05    15.999
   19700      ob       1    MUSC   O03HE       1     -1.05    15.999
   19701      ob       1    MUSC   O03HF       1     -1.05    15.999
   19702      ob       1    MUSC   O03HG       1     -1.05    15.999
   19703      ob       1    MUSC   O03HH       1     -1.05    15.999
   19704      ob       1    MUSC   O03HI       1     -1.05    15.999
   19705      oh       1    MUSC   O03HJ       1     -0.95    15.999
   19706      oh       1    MUSC   O03HK       1     -0.95    15.999
   19707      oh       1    MUSC   O03HL       1     -0.95    15.999
   19708      oh       1    MUSC   O03HM       1     -0.95    15.999
   19709      ob       1    MUSC   O03HN       1     -1.05    15.999
   19710      ob       1    MUSC   O03HO       1     -1.05    15.999
   19711      ob       1    MUSC   O03HP       1     -1.05    15.999
   19712      ob       1    MUSC   O03HQ       1     -1.05    15.999
   19713      ob       1    MUSC   O03HR       1     -1.05    15.999
   19714      ob       1    MUSC   O03HS       1     -1.05    15.999
   19715      ob       1    MUSC   O03HT       1     -1.05    15.999
   19716      ob       1    MUSC   O03HU       1     -1.05    15.999
   19717      ob       1    MUSC   O03HV       1     -1.05    15.999
   19718      ob       1    MUSC   O03HW       1     -1.05    15.999
   19719      ob       1    MUSC   O03HX       1     -1.05    15.999
   19720      ob       1    MUSC   O03HY       1     -1.05    15.999
   19721      ob       1    MUSC   O03HZ       1     -1.05    15.999
   19722      ob       1    MUSC   O03Ha       1     -1.05    15.999
   19723      ob       1    MUSC   O03Hb       1     -1.05    15.999
   19724      ob       1    MUSC   O03Hc       1     -1.05    15.999
   19725       K       1    MUSC   K00Cj       1       1.0    39.098
   19726       K       1    MUSC   K00Ck       1       1.0    39.098
   19727       K       1    MUSC   K00Cl       1       1.0    39.098
   19728       K       1    MUSC   K00Cm       1       1.0    39.098
   19729      ao       1    MUSC   Al0Xx       1     1.575    26.982
   19730      ao       1    MUSC   Al0Xy       1     1.575    26.982
   19731      ao       1    MUSC   Al0Xz       1     1.575    26.982
   19732      ao       1    MUSC   Al0Y0       1     1.575    26.982
   19733      ao       1    MUSC   Al0Y1       1     1.575    26.982
   19734      ao       1    MUSC   Al0Y2       1     1.575    26.982
   19735      ao       1    MUSC   Al0Y3       1     1.575    26.982
   19736      ao       1    MUSC   Al0Y4       1     1.575    26.982
   19737      st       1    MUSC   Si15t       1       2.1    28.086
   19738      st       1    MUSC   Si15u       1       2.1    28.086
   19739      st       1    MUSC   Si15v       1       2.1    28.086
   19740      st       1    MUSC   Si15w       1       2.1    28.086
   19741      st       1    MUSC   Si15x       1       2.1    28.086
   19742      st       1    MUSC   Si15y       1       2.1    28.086
   19743      st       1    MUSC   Si15z       1       2.1    28.086
   19744      st       1    MUSC   Si160       1       2.1    28.086
   19745      st       1    MUSC   Si161       1       2.1    28.086
   19746      st       1    MUSC   Si162       1       2.1    28.086
   19747      st       1    MUSC   Si163       1       2.1    28.086
   19748      st       1    MUSC   Si164       1       2.1    28.086
   19749      st       1    MUSC   Si165       1       2.1    28.086
   19750      st       1    MUSC   Si166       1       2.1    28.086
   19751      st       1    MUSC   Si167       1       2.1    28.086
   19752      st       1    MUSC   Si168       1       2.1    28.086
   19753      ob       1    MUSC   O03Hd       1     -1.05    15.999
   19754      ob       1    MUSC   O03He       1     -1.05    15.999
   19755      ob       1    MUSC   O03Hf       1     -1.05    15.999
   19756      ob       1    MUSC   O03Hg       1     -1.05    15.999
   19757      oh       1    MUSC   O03Hh       1     -0.95    15.999
   19758      oh       1    MUSC   O03Hi       1     -0.95    15.999
   19759      oh       1    MUSC   O03Hj       1     -0.95    15.999
   19760      oh       1    MUSC   O03Hk       1     -0.95    15.999
   19761      ob       1    MUSC   O03Hl       1     -1.05    15.999
   19762      ob       1    MUSC   O03Hm       1     -1.05    15.999
   19763      ob       1    MUSC   O03Hn       1     -1.05    15.999
   19764      ob       1    MUSC   O03Ho       1     -1.05    15.999
   19765      ob       1    MUSC   O03Hp       1     -1.05    15.999
   19766      ob       1    MUSC   O03Hq       1     -1.05    15.999
   19767      ob       1    MUSC   O03Hr       1     -1.05    15.999
   19768      ob       1    MUSC   O03Hs       1     -1.05    15.999
   19769      ob       1    MUSC   O03Ht       1     -1.05    15.999
   19770      ob       1    MUSC   O03Hu       1     -1.05    15.999
   19771      ob       1    MUSC   O03Hv       1     -1.05    15.999
   19772      ob       1    MUSC   O03Hw       1     -1.05    15.999
   19773      ob       1    MUSC   O03Hx       1     -1.05    15.999
   19774      ob       1    MUSC   O03Hy       1     -1.05    15.999
   19775      ob       1    MUSC   O03Hz       1     -1.05    15.999
   19776      ob       1    MUSC   O03I0       1     -1.05    15.999
   19777      ob       1    MUSC   O03I1       1     -1.05    15.999
   19778      ob       1    MUSC   O03I2       1     -1.05    15.999
   19779      ob       1    MUSC   O03I3       1     -1.05    15.999
   19780      ob       1    MUSC   O03I4       1     -1.05    15.999
   19781      oh       1    MUSC   O03I5       1     -0.95    15.999
   19782      oh       1    MUSC   O03I6       1     -0.95    15.999
   19783      oh       1    MUSC   O03I7       1     -0.95    15.999
   19784      oh       1    MUSC   O03I8       1     -0.95    15.999
   19785      ob       1    MUSC   O03I9       1     -1.05    15.999
   19786      ob       1    MUSC   O03IA       1     -1.05    15.999
   19787      ob       1    MUSC   O03IB       1     -1.05    15.999
   19788      ob       1    MUSC   O03IC       1     -1.05    15.999
   19789      ob       1    MUSC   O03ID       1     -1.05    15.999
   19790      ob       1    MUSC   O03IE       1     -1.05    15.999
   19791      ob       1    MUSC   O03IF       1     -1.05    15.999
   19792      ob       1    MUSC   O03IG       1     -1.05    15.999
   19793      ob       1    MUSC   O03IH       1     -1.05    15.999
   19794      ob       1    MUSC   O03II       1     -1.05    15.999
   19795      ob       1    MUSC   O03IJ       1     -1.05    15.999
   19796      ob       1    MUSC   O03IK       1     -1.05    15.999
   19797      ob       1    MUSC   O03IL       1     -1.05    15.999
   19798      ob       1    MUSC   O03IM       1     -1.05    15.999
   19799      ob       1    MUSC   O03IN       1     -1.05    15.999
   19800      ob       1    MUSC   O03IO       1     -1.05    15.999
   19801       K       1    MUSC   K00Cn       1       1.0    39.098
   19802       K       1    MUSC   K00Co       1       1.0    39.098
   19803      ao       1    MUSC   Al0Y5       1     1.575    26.982
   19804      ao       1    MUSC   Al0Y6       1     1.575    26.982
   19805      ao       1    MUSC   Al0Y7       1     1.575    26.982
   19806      ao       1    MUSC   Al0Y8       1     1.575    26.982
   19807      ao       1    MUSC   Al0Y9       1     1.575    26.982
   19808      ao       1    MUSC   Al0YA       1     1.575    26.982
   19809      ao       1    MUSC   Al0YB       1     1.575    26.982
   19810      ao       1    MUSC   Al0YC       1     1.575    26.982
   19811      st       1    MUSC   Si169       1       2.1    28.086
   19812      st       1    MUSC   Si16A       1       2.1    28.086
   19813      st       1    MUSC   Si16B       1       2.1    28.086
   19814      st       1    MUSC   Si16C       1       2.1    28.086
   19815      st       1    MUSC   Si16D       1       2.1    28.086
   19816      st       1    MUSC   Si16E       1       2.1    28.086
   19817      st       1    MUSC   Si16F       1       2.1    28.086
   19818      st       1    MUSC   Si16G       1       2.1    28.086
   19819      st       1    MUSC   Si16H       1       2.1    28.086
   19820      st       1    MUSC   Si16I       1       2.1    28.086
   19821      st       1    MUSC   Si16J       1       2.1    28.086
   19822      st       1    MUSC   Si16K       1       2.1    28.086
   19823      st       1    MUSC   Si16L       1       2.1    28.086
   19824      st       1    MUSC   Si16M       1       2.1    28.086
   19825      st       1    MUSC   Si16N       1       2.1    28.086
   19826      st       1    MUSC   Si16O       1       2.1    28.086
   19827      ob       1    MUSC   O03IP       1     -1.05    15.999
   19828      ob       1    MUSC   O03IQ       1     -1.05    15.999
   19829      ob       1    MUSC   O03IR       1     -1.05    15.999
   19830      ob       1    MUSC   O03IS       1     -1.05    15.999
   19831      oh       1    MUSC   O03IT       1     -0.95    15.999
   19832      oh       1    MUSC   O03IU       1     -0.95    15.999
   19833      oh       1    MUSC   O03IV       1     -0.95    15.999
   19834      oh       1    MUSC   O03IW       1     -0.95    15.999
   19835      ob       1    MUSC   O03IX       1     -1.05    15.999
   19836      ob       1    MUSC   O03IY       1     -1.05    15.999
   19837      ob       1    MUSC   O03IZ       1     -1.05    15.999
   19838      ob       1    MUSC   O03Ia       1     -1.05    15.999
   19839      ob       1    MUSC   O03Ib       1     -1.05    15.999
   19840      ob       1    MUSC   O03Ic       1     -1.05    15.999
   19841      ob       1    MUSC   O03Id       1     -1.05    15.999
   19842      ob       1    MUSC   O03Ie       1     -1.05    15.999
   19843      ob       1    MUSC   O03If       1     -1.05    15.999
   19844      ob       1    MUSC   O03Ig       1     -1.05    15.999
   19845      ob       1    MUSC   O03Ih       1     -1.05    15.999
   19846      ob       1    MUSC   O03Ii       1     -1.05    15.999
   19847      ob       1    MUSC   O03Ij       1     -1.05    15.999
   19848      ob       1    MUSC   O03Ik       1     -1.05    15.999
   19849      ob       1    MUSC   O03Il       1     -1.05    15.999
   19850      ob       1    MUSC   O03Im       1     -1.05    15.999
   19851      ob       1    MUSC   O03In       1     -1.05    15.999
   19852      ob       1    MUSC   O03Io       1     -1.05    15.999
   19853      ob       1    MUSC   O03Ip       1     -1.05    15.999
   19854      ob       1    MUSC   O03Iq       1     -1.05    15.999
   19855      oh       1    MUSC   O03Ir       1     -0.95    15.999
   19856      oh       1    MUSC   O03Is       1     -0.95    15.999
   19857      oh       1    MUSC   O03It       1     -0.95    15.999
   19858      oh       1    MUSC   O03Iu       1     -0.95    15.999
   19859      ob       1    MUSC   O03Iv       1     -1.05    15.999
   19860      ob       1    MUSC   O03Iw       1     -1.05    15.999
   19861      ob       1    MUSC   O03Ix       1     -1.05    15.999
   19862      ob       1    MUSC   O03Iy       1     -1.05    15.999
   19863      ob       1    MUSC   O03Iz       1     -1.05    15.999
   19864      ob       1    MUSC   O03J0       1     -1.05    15.999
   19865      ob       1    MUSC   O03J1       1     -1.05    15.999
   19866      ob       1    MUSC   O03J2       1     -1.05    15.999
   19867      ob       1    MUSC   O03J3       1     -1.05    15.999
   19868      ob       1    MUSC   O03J4       1     -1.05    15.999
   19869      ob       1    MUSC   O03J5       1     -1.05    15.999
   19870      ob       1    MUSC   O03J6       1     -1.05    15.999
   19871      ob       1    MUSC   O03J7       1     -1.05    15.999
   19872      ob       1    MUSC   O03J8       1     -1.05    15.999
   19873      ob       1    MUSC   O03J9       1     -1.05    15.999
   19874      ob       1    MUSC   O03JA       1     -1.05    15.999
   19875       K       1    MUSC   K00Cp       1       1.0    39.098
   19876       K       1    MUSC   K00Cq       1       1.0    39.098
   19877       K       1    MUSC   K00Cr       1       1.0    39.098
   19878       K       1    MUSC   K00Cs       1       1.0    39.098
   19879      ao       1    MUSC   Al0YD       1     1.575    26.982
   19880      ao       1    MUSC   Al0YE       1     1.575    26.982
   19881      ao       1    MUSC   Al0YF       1     1.575    26.982
   19882      ao       1    MUSC   Al0YG       1     1.575    26.982
   19883      ao       1    MUSC   Al0YH       1     1.575    26.982
   19884      ao       1    MUSC   Al0YI       1     1.575    26.982
   19885      ao       1    MUSC   Al0YJ       1     1.575    26.982
   19886      ao       1    MUSC   Al0YK       1     1.575    26.982
   19887      st       1    MUSC   Si16P       1       2.1    28.086
   19888      st       1    MUSC   Si16Q       1       2.1    28.086
   19889      st       1    MUSC   Si16R       1       2.1    28.086
   19890      st       1    MUSC   Si16S       1       2.1    28.086
   19891      st       1    MUSC   Si16T       1       2.1    28.086
   19892      st       1    MUSC   Si16U       1       2.1    28.086
   19893      st       1    MUSC   Si16V       1       2.1    28.086
   19894      st       1    MUSC   Si16W       1       2.1    28.086
   19895      st       1    MUSC   Si16X       1       2.1    28.086
   19896      st       1    MUSC   Si16Y       1       2.1    28.086
   19897      st       1    MUSC   Si16Z       1       2.1    28.086
   19898      st       1    MUSC   Si16a       1       2.1    28.086
   19899      st       1    MUSC   Si16b       1       2.1    28.086
   19900      st       1    MUSC   Si16c       1       2.1    28.086
   19901      st       1    MUSC   Si16d       1       2.1    28.086
   19902      st       1    MUSC   Si16e       1       2.1    28.086
   19903      ob       1    MUSC   O03JB       1     -1.05    15.999
   19904      ob       1    MUSC   O03JC       1     -1.05    15.999
   19905      ob       1    MUSC   O03JD       1     -1.05    15.999
   19906      ob       1    MUSC   O03JE       1     -1.05    15.999
   19907      oh       1    MUSC   O03JF       1     -0.95    15.999
   19908      oh       1    MUSC   O03JG       1     -0.95    15.999
   19909      oh       1    MUSC   O03JH       1     -0.95    15.999
   19910      oh       1    MUSC   O03JI       1     -0.95    15.999
   19911      ob       1    MUSC   O03JJ       1     -1.05    15.999
   19912      ob       1    MUSC   O03JK       1     -1.05    15.999
   19913      ob       1    MUSC   O03JL       1     -1.05    15.999
   19914      ob       1    MUSC   O03JM       1     -1.05    15.999
   19915      ob       1    MUSC   O03JN       1     -1.05    15.999
   19916      ob       1    MUSC   O03JO       1     -1.05    15.999
   19917      ob       1    MUSC   O03JP       1     -1.05    15.999
   19918      ob       1    MUSC   O03JQ       1     -1.05    15.999
   19919      ob       1    MUSC   O03JR       1     -1.05    15.999
   19920      ob       1    MUSC   O03JS       1     -1.05    15.999
   19921      ob       1    MUSC   O03JT       1     -1.05    15.999
   19922      ob       1    MUSC   O03JU       1     -1.05    15.999
   19923      ob       1    MUSC   O03JV       1     -1.05    15.999
   19924      ob       1    MUSC   O03JW       1     -1.05    15.999
   19925      ob       1    MUSC   O03JX       1     -1.05    15.999
   19926      ob       1    MUSC   O03JY       1     -1.05    15.999
   19927      ob       1    MUSC   O03JZ       1     -1.05    15.999
   19928      ob       1    MUSC   O03Ja       1     -1.05    15.999
   19929      ob       1    MUSC   O03Jb       1     -1.05    15.999
   19930      ob       1    MUSC   O03Jc       1     -1.05    15.999
   19931      oh       1    MUSC   O03Jd       1     -0.95    15.999
   19932      oh       1    MUSC   O03Je       1     -0.95    15.999
   19933      oh       1    MUSC   O03Jf       1     -0.95    15.999
   19934      oh       1    MUSC   O03Jg       1     -0.95    15.999
   19935      ob       1    MUSC   O03Jh       1     -1.05    15.999
   19936      ob       1    MUSC   O03Ji       1     -1.05    15.999
   19937      ob       1    MUSC   O03Jj       1     -1.05    15.999
   19938      ob       1    MUSC   O03Jk       1     -1.05    15.999
   19939      ob       1    MUSC   O03Jl       1     -1.05    15.999
   19940      ob       1    MUSC   O03Jm       1     -1.05    15.999
   19941      ob       1    MUSC   O03Jn       1     -1.05    15.999
   19942      ob       1    MUSC   O03Jo       1     -1.05    15.999
   19943      ob       1    MUSC   O03Jp       1     -1.05    15.999
   19944      ob       1    MUSC   O03Jq       1     -1.05    15.999
   19945      ob       1    MUSC   O03Jr       1     -1.05    15.999
   19946      ob       1    MUSC   O03Js       1     -1.05    15.999
   19947      ob       1    MUSC   O03Jt       1     -1.05    15.999
   19948      ob       1    MUSC   O03Ju       1     -1.05    15.999
   19949      ob       1    MUSC   O03Jv       1     -1.05    15.999
   19950      ob       1    MUSC   O03Jw       1     -1.05    15.999
   19951       K       1    MUSC   K00Ct       1       1.0    39.098
   19952       K       1    MUSC   K00Cu       1       1.0    39.098
   19953      ao       1    MUSC   Al0YL       1     1.575    26.982
   19954      ao       1    MUSC   Al0YM       1     1.575    26.982
   19955      ao       1    MUSC   Al0YN       1     1.575    26.982
   19956      ao       1    MUSC   Al0YO       1     1.575    26.982
   19957      ao       1    MUSC   Al0YP       1     1.575    26.982
   19958      ao       1    MUSC   Al0YQ       1     1.575    26.982
   19959      ao       1    MUSC   Al0YR       1     1.575    26.982
   19960      ao       1    MUSC   Al0YS       1     1.575    26.982
   19961      st       1    MUSC   Si16f       1       2.1    28.086
   19962      st       1    MUSC   Si16g       1       2.1    28.086
   19963      st       1    MUSC   Si16h       1       2.1    28.086
   19964      st       1    MUSC   Si16i       1       2.1    28.086
   19965      st       1    MUSC   Si16j       1       2.1    28.086
   19966      st       1    MUSC   Si16k       1       2.1    28.086
   19967      st       1    MUSC   Si16l       1       2.1    28.086
   19968      st       1    MUSC   Si16m       1       2.1    28.086
   19969      st       1    MUSC   Si16n       1       2.1    28.086
   19970      st       1    MUSC   Si16o       1       2.1    28.086
   19971      st       1    MUSC   Si16p       1       2.1    28.086
   19972      st       1    MUSC   Si16q       1       2.1    28.086
   19973      st       1    MUSC   Si16r       1       2.1    28.086
   19974      st       1    MUSC   Si16s       1       2.1    28.086
   19975      st       1    MUSC   Si16t       1       2.1    28.086
   19976      st       1    MUSC   Si16u       1       2.1    28.086
   19977      ob       1    MUSC   O03Jx       1     -1.05    15.999
   19978      ob       1    MUSC   O03Jy       1     -1.05    15.999
   19979      ob       1    MUSC   O03Jz       1     -1.05    15.999
   19980      ob       1    MUSC   O03K0       1     -1.05    15.999
   19981      oh       1    MUSC   O03K1       1     -0.95    15.999
   19982      oh       1    MUSC   O03K2       1     -0.95    15.999
   19983      oh       1    MUSC   O03K3       1     -0.95    15.999
   19984      oh       1    MUSC   O03K4       1     -0.95    15.999
   19985      ob       1    MUSC   O03K5       1     -1.05    15.999
   19986      ob       1    MUSC   O03K6       1     -1.05    15.999
   19987      ob       1    MUSC   O03K7       1     -1.05    15.999
   19988      ob       1    MUSC   O03K8       1     -1.05    15.999
   19989      ob       1    MUSC   O03K9       1     -1.05    15.999
   19990      ob       1    MUSC   O03KA       1     -1.05    15.999
   19991      ob       1    MUSC   O03KB       1     -1.05    15.999
   19992      ob       1    MUSC   O03KC       1     -1.05    15.999
   19993      ob       1    MUSC   O03KD       1     -1.05    15.999
   19994      ob       1    MUSC   O03KE       1     -1.05    15.999
   19995      ob       1    MUSC   O03KF       1     -1.05    15.999
   19996      ob       1    MUSC   O03KG       1     -1.05    15.999
   19997      ob       1    MUSC   O03KH       1     -1.05    15.999
   19998      ob       1    MUSC   O03KI       1     -1.05    15.999
   19999      ob       1    MUSC   O03KJ       1     -1.05    15.999
   20000      ob       1    MUSC   O03KK       1     -1.05    15.999
   20001      ob       1    MUSC   O03KL       1     -1.05    15.999
   20002      ob       1    MUSC   O03KM       1     -1.05    15.999
   20003      ob       1    MUSC   O03KN       1     -1.05    15.999
   20004      ob       1    MUSC   O03KO       1     -1.05    15.999
   20005      oh       1    MUSC   O03KP       1     -0.95    15.999
   20006      oh       1    MUSC   O03KQ       1     -0.95    15.999
   20007      oh       1    MUSC   O03KR       1     -0.95    15.999
   20008      oh       1    MUSC   O03KS       1     -0.95    15.999
   20009      ob       1    MUSC   O03KT       1     -1.05    15.999
   20010      ob       1    MUSC   O03KU       1     -1.05    15.999
   20011      ob       1    MUSC   O03KV       1     -1.05    15.999
   20012      ob       1    MUSC   O03KW       1     -1.05    15.999
   20013      ob       1    MUSC   O03KX       1     -1.05    15.999
   20014      ob       1    MUSC   O03KY       1     -1.05    15.999
   20015      ob       1    MUSC   O03KZ       1     -1.05    15.999
   20016      ob       1    MUSC   O03Ka       1     -1.05    15.999
   20017      ob       1    MUSC   O03Kb       1     -1.05    15.999
   20018      ob       1    MUSC   O03Kc       1     -1.05    15.999
   20019      ob       1    MUSC   O03Kd       1     -1.05    15.999
   20020      ob       1    MUSC   O03Ke       1     -1.05    15.999
   20021      ob       1    MUSC   O03Kf       1     -1.05    15.999
   20022      ob       1    MUSC   O03Kg       1     -1.05    15.999
   20023      ob       1    MUSC   O03Kh       1     -1.05    15.999
   20024      ob       1    MUSC   O03Ki       1     -1.05    15.999
   20025       K       1    MUSC   K00Cv       1       1.0    39.098
   20026       K       1    MUSC   K00Cw       1       1.0    39.098
   20027       K       1    MUSC   K00Cx       1       1.0    39.098
   20028       K       1    MUSC   K00Cy       1       1.0    39.098
   20029      ao       1    MUSC   Al0YT       1     1.575    26.982
   20030      ao       1    MUSC   Al0YU       1     1.575    26.982
   20031      ao       1    MUSC   Al0YV       1     1.575    26.982
   20032      ao       1    MUSC   Al0YW       1     1.575    26.982
   20033      ao       1    MUSC   Al0YX       1     1.575    26.982
   20034      ao       1    MUSC   Al0YY       1     1.575    26.982
   20035      ao       1    MUSC   Al0YZ       1     1.575    26.982
   20036      ao       1    MUSC   Al0Ya       1     1.575    26.982
   20037      st       1    MUSC   Si16v       1       2.1    28.086
   20038      st       1    MUSC   Si16w       1       2.1    28.086
   20039      st       1    MUSC   Si16x       1       2.1    28.086
   20040      st       1    MUSC   Si16y       1       2.1    28.086
   20041      st       1    MUSC   Si16z       1       2.1    28.086
   20042      st       1    MUSC   Si170       1       2.1    28.086
   20043      st       1    MUSC   Si171       1       2.1    28.086
   20044      st       1    MUSC   Si172       1       2.1    28.086
   20045      st       1    MUSC   Si173       1       2.1    28.086
   20046      st       1    MUSC   Si174       1       2.1    28.086
   20047      st       1    MUSC   Si175       1       2.1    28.086
   20048      st       1    MUSC   Si176       1       2.1    28.086
   20049      st       1    MUSC   Si177       1       2.1    28.086
   20050      st       1    MUSC   Si178       1       2.1    28.086
   20051      st       1    MUSC   Si179       1       2.1    28.086
   20052      st       1    MUSC   Si17A       1       2.1    28.086
   20053      ob       1    MUSC   O03Kj       1     -1.05    15.999
   20054      ob       1    MUSC   O03Kk       1     -1.05    15.999
   20055      ob       1    MUSC   O03Kl       1     -1.05    15.999
   20056      ob       1    MUSC   O03Km       1     -1.05    15.999
   20057      oh       1    MUSC   O03Kn       1     -0.95    15.999
   20058      oh       1    MUSC   O03Ko       1     -0.95    15.999
   20059      oh       1    MUSC   O03Kp       1     -0.95    15.999
   20060      oh       1    MUSC   O03Kq       1     -0.95    15.999
   20061      ob       1    MUSC   O03Kr       1     -1.05    15.999
   20062      ob       1    MUSC   O03Ks       1     -1.05    15.999
   20063      ob       1    MUSC   O03Kt       1     -1.05    15.999
   20064      ob       1    MUSC   O03Ku       1     -1.05    15.999
   20065      ob       1    MUSC   O03Kv       1     -1.05    15.999
   20066      ob       1    MUSC   O03Kw       1     -1.05    15.999
   20067      ob       1    MUSC   O03Kx       1     -1.05    15.999
   20068      ob       1    MUSC   O03Ky       1     -1.05    15.999
   20069      ob       1    MUSC   O03Kz       1     -1.05    15.999
   20070      ob       1    MUSC   O03L0       1     -1.05    15.999
   20071      ob       1    MUSC   O03L1       1     -1.05    15.999
   20072      ob       1    MUSC   O03L2       1     -1.05    15.999
   20073      ob       1    MUSC   O03L3       1     -1.05    15.999
   20074      ob       1    MUSC   O03L4       1     -1.05    15.999
   20075      ob       1    MUSC   O03L5       1     -1.05    15.999
   20076      ob       1    MUSC   O03L6       1     -1.05    15.999
   20077      ob       1    MUSC   O03L7       1     -1.05    15.999
   20078      ob       1    MUSC   O03L8       1     -1.05    15.999
   20079      ob       1    MUSC   O03L9       1     -1.05    15.999
   20080      ob       1    MUSC   O03LA       1     -1.05    15.999
   20081      oh       1    MUSC   O03LB       1     -0.95    15.999
   20082      oh       1    MUSC   O03LC       1     -0.95    15.999
   20083      oh       1    MUSC   O03LD       1     -0.95    15.999
   20084      oh       1    MUSC   O03LE       1     -0.95    15.999
   20085      ob       1    MUSC   O03LF       1     -1.05    15.999
   20086      ob       1    MUSC   O03LG       1     -1.05    15.999
   20087      ob       1    MUSC   O03LH       1     -1.05    15.999
   20088      ob       1    MUSC   O03LI       1     -1.05    15.999
   20089      ob       1    MUSC   O03LJ       1     -1.05    15.999
   20090      ob       1    MUSC   O03LK       1     -1.05    15.999
   20091      ob       1    MUSC   O03LL       1     -1.05    15.999
   20092      ob       1    MUSC   O03LM       1     -1.05    15.999
   20093      ob       1    MUSC   O03LN       1     -1.05    15.999
   20094      ob       1    MUSC   O03LO       1     -1.05    15.999
   20095      ob       1    MUSC   O03LP       1     -1.05    15.999
   20096      ob       1    MUSC   O03LQ       1     -1.05    15.999
   20097      ob       1    MUSC   O03LR       1     -1.05    15.999
   20098      ob       1    MUSC   O03LS       1     -1.05    15.999
   20099      ob       1    MUSC   O03LT       1     -1.05    15.999
   20100      ob       1    MUSC   O03LU       1     -1.05    15.999
   20101       K       1    MUSC   K00Cz       1       1.0    39.098
   20102       K       1    MUSC   K00D0       1       1.0    39.098
   20103      ao       1    MUSC   Al0Yb       1     1.575    26.982
   20104      ao       1    MUSC   Al0Yc       1     1.575    26.982
   20105      ao       1    MUSC   Al0Yd       1     1.575    26.982
   20106      ao       1    MUSC   Al0Ye       1     1.575    26.982
   20107      ao       1    MUSC   Al0Yf       1     1.575    26.982
   20108      ao       1    MUSC   Al0Yg       1     1.575    26.982
   20109      ao       1    MUSC   Al0Yh       1     1.575    26.982
   20110      ao       1    MUSC   Al0Yi       1     1.575    26.982
   20111      st       1    MUSC   Si17B       1       2.1    28.086
   20112      st       1    MUSC   Si17C       1       2.1    28.086
   20113      st       1    MUSC   Si17D       1       2.1    28.086
   20114      st       1    MUSC   Si17E       1       2.1    28.086
   20115      st       1    MUSC   Si17F       1       2.1    28.086
   20116      st       1    MUSC   Si17G       1       2.1    28.086
   20117      st       1    MUSC   Si17H       1       2.1    28.086
   20118      st       1    MUSC   Si17I       1       2.1    28.086
   20119      st       1    MUSC   Si17J       1       2.1    28.086
   20120      st       1    MUSC   Si17K       1       2.1    28.086
   20121      st       1    MUSC   Si17L       1       2.1    28.086
   20122      st       1    MUSC   Si17M       1       2.1    28.086
   20123      st       1    MUSC   Si17N       1       2.1    28.086
   20124      st       1    MUSC   Si17O       1       2.1    28.086
   20125      st       1    MUSC   Si17P       1       2.1    28.086
   20126      st       1    MUSC   Si17Q       1       2.1    28.086
   20127      ob       1    MUSC   O03LV       1     -1.05    15.999
   20128      ob       1    MUSC   O03LW       1     -1.05    15.999
   20129      ob       1    MUSC   O03LX       1     -1.05    15.999
   20130      ob       1    MUSC   O03LY       1     -1.05    15.999
   20131      oh       1    MUSC   O03LZ       1     -0.95    15.999
   20132      oh       1    MUSC   O03La       1     -0.95    15.999
   20133      oh       1    MUSC   O03Lb       1     -0.95    15.999
   20134      oh       1    MUSC   O03Lc       1     -0.95    15.999
   20135      ob       1    MUSC   O03Ld       1     -1.05    15.999
   20136      ob       1    MUSC   O03Le       1     -1.05    15.999
   20137      ob       1    MUSC   O03Lf       1     -1.05    15.999
   20138      ob       1    MUSC   O03Lg       1     -1.05    15.999
   20139      ob       1    MUSC   O03Lh       1     -1.05    15.999
   20140      ob       1    MUSC   O03Li       1     -1.05    15.999
   20141      ob       1    MUSC   O03Lj       1     -1.05    15.999
   20142      ob       1    MUSC   O03Lk       1     -1.05    15.999
   20143      ob       1    MUSC   O03Ll       1     -1.05    15.999
   20144      ob       1    MUSC   O03Lm       1     -1.05    15.999
   20145      ob       1    MUSC   O03Ln       1     -1.05    15.999
   20146      ob       1    MUSC   O03Lo       1     -1.05    15.999
   20147      ob       1    MUSC   O03Lp       1     -1.05    15.999
   20148      ob       1    MUSC   O03Lq       1     -1.05    15.999
   20149      ob       1    MUSC   O03Lr       1     -1.05    15.999
   20150      ob       1    MUSC   O03Ls       1     -1.05    15.999
   20151      ob       1    MUSC   O03Lt       1     -1.05    15.999
   20152      ob       1    MUSC   O03Lu       1     -1.05    15.999
   20153      ob       1    MUSC   O03Lv       1     -1.05    15.999
   20154      ob       1    MUSC   O03Lw       1     -1.05    15.999
   20155      oh       1    MUSC   O03Lx       1     -0.95    15.999
   20156      oh       1    MUSC   O03Ly       1     -0.95    15.999
   20157      oh       1    MUSC   O03Lz       1     -0.95    15.999
   20158      oh       1    MUSC   O03M0       1     -0.95    15.999
   20159      ob       1    MUSC   O03M1       1     -1.05    15.999
   20160      ob       1    MUSC   O03M2       1     -1.05    15.999
   20161      ob       1    MUSC   O03M3       1     -1.05    15.999
   20162      ob       1    MUSC   O03M4       1     -1.05    15.999
   20163      ob       1    MUSC   O03M5       1     -1.05    15.999
   20164      ob       1    MUSC   O03M6       1     -1.05    15.999
   20165      ob       1    MUSC   O03M7       1     -1.05    15.999
   20166      ob       1    MUSC   O03M8       1     -1.05    15.999
   20167      ob       1    MUSC   O03M9       1     -1.05    15.999
   20168      ob       1    MUSC   O03MA       1     -1.05    15.999
   20169      ob       1    MUSC   O03MB       1     -1.05    15.999
   20170      ob       1    MUSC   O03MC       1     -1.05    15.999
   20171      ob       1    MUSC   O03MD       1     -1.05    15.999
   20172      ob       1    MUSC   O03ME       1     -1.05    15.999
   20173      ob       1    MUSC   O03MF       1     -1.05    15.999
   20174      ob       1    MUSC   O03MG       1     -1.05    15.999
   20175       K       1    MUSC   K00D1       1       1.0    39.098
   20176       K       1    MUSC   K00D2       1       1.0    39.098
   20177       K       1    MUSC   K00D3       1       1.0    39.098
   20178       K       1    MUSC   K00D4       1       1.0    39.098
   20179      ao       1    MUSC   Al0Yj       1     1.575    26.982
   20180      ao       1    MUSC   Al0Yk       1     1.575    26.982
   20181      ao       1    MUSC   Al0Yl       1     1.575    26.982
   20182      ao       1    MUSC   Al0Ym       1     1.575    26.982
   20183      ao       1    MUSC   Al0Yn       1     1.575    26.982
   20184      ao       1    MUSC   Al0Yo       1     1.575    26.982
   20185      ao       1    MUSC   Al0Yp       1     1.575    26.982
   20186      ao       1    MUSC   Al0Yq       1     1.575    26.982
   20187      st       1    MUSC   Si17R       1       2.1    28.086
   20188      st       1    MUSC   Si17S       1       2.1    28.086
   20189      st       1    MUSC   Si17T       1       2.1    28.086
   20190      st       1    MUSC   Si17U       1       2.1    28.086
   20191      st       1    MUSC   Si17V       1       2.1    28.086
   20192      st       1    MUSC   Si17W       1       2.1    28.086
   20193      st       1    MUSC   Si17X       1       2.1    28.086
   20194      st       1    MUSC   Si17Y       1       2.1    28.086
   20195      st       1    MUSC   Si17Z       1       2.1    28.086
   20196      st       1    MUSC   Si17a       1       2.1    28.086
   20197      st       1    MUSC   Si17b       1       2.1    28.086
   20198      st       1    MUSC   Si17c       1       2.1    28.086
   20199      st       1    MUSC   Si17d       1       2.1    28.086
   20200      st       1    MUSC   Si17e       1       2.1    28.086
   20201      st       1    MUSC   Si17f       1       2.1    28.086
   20202      st       1    MUSC   Si17g       1       2.1    28.086
   20203      ob       1    MUSC   O03MH       1     -1.05    15.999
   20204      ob       1    MUSC   O03MI       1     -1.05    15.999
   20205      ob       1    MUSC   O03MJ       1     -1.05    15.999
   20206      ob       1    MUSC   O03MK       1     -1.05    15.999
   20207      oh       1    MUSC   O03ML       1     -0.95    15.999
   20208      oh       1    MUSC   O03MM       1     -0.95    15.999
   20209      oh       1    MUSC   O03MN       1     -0.95    15.999
   20210      oh       1    MUSC   O03MO       1     -0.95    15.999
   20211      ob       1    MUSC   O03MP       1     -1.05    15.999
   20212      ob       1    MUSC   O03MQ       1     -1.05    15.999
   20213      ob       1    MUSC   O03MR       1     -1.05    15.999
   20214      ob       1    MUSC   O03MS       1     -1.05    15.999
   20215      ob       1    MUSC   O03MT       1     -1.05    15.999
   20216      ob       1    MUSC   O03MU       1     -1.05    15.999
   20217      ob       1    MUSC   O03MV       1     -1.05    15.999
   20218      ob       1    MUSC   O03MW       1     -1.05    15.999
   20219      ob       1    MUSC   O03MX       1     -1.05    15.999
   20220      ob       1    MUSC   O03MY       1     -1.05    15.999
   20221      ob       1    MUSC   O03MZ       1     -1.05    15.999
   20222      ob       1    MUSC   O03Ma       1     -1.05    15.999
   20223      ob       1    MUSC   O03Mb       1     -1.05    15.999
   20224      ob       1    MUSC   O03Mc       1     -1.05    15.999
   20225      ob       1    MUSC   O03Md       1     -1.05    15.999
   20226      ob       1    MUSC   O03Me       1     -1.05    15.999
   20227      ob       1    MUSC   O03Mf       1     -1.05    15.999
   20228      ob       1    MUSC   O03Mg       1     -1.05    15.999
   20229      ob       1    MUSC   O03Mh       1     -1.05    15.999
   20230      ob       1    MUSC   O03Mi       1     -1.05    15.999
   20231      oh       1    MUSC   O03Mj       1     -0.95    15.999
   20232      oh       1    MUSC   O03Mk       1     -0.95    15.999
   20233      oh       1    MUSC   O03Ml       1     -0.95    15.999
   20234      oh       1    MUSC   O03Mm       1     -0.95    15.999
   20235      ob       1    MUSC   O03Mn       1     -1.05    15.999
   20236      ob       1    MUSC   O03Mo       1     -1.05    15.999
   20237      ob       1    MUSC   O03Mp       1     -1.05    15.999
   20238      ob       1    MUSC   O03Mq       1     -1.05    15.999
   20239      ob       1    MUSC   O03Mr       1     -1.05    15.999
   20240      ob       1    MUSC   O03Ms       1     -1.05    15.999
   20241      ob       1    MUSC   O03Mt       1     -1.05    15.999
   20242      ob       1    MUSC   O03Mu       1     -1.05    15.999
   20243      ob       1    MUSC   O03Mv       1     -1.05    15.999
   20244      ob       1    MUSC   O03Mw       1     -1.05    15.999
   20245      ob       1    MUSC   O03Mx       1     -1.05    15.999
   20246      ob       1    MUSC   O03My       1     -1.05    15.999
   20247      ob       1    MUSC   O03Mz       1     -1.05    15.999
   20248      ob       1    MUSC   O03N0       1     -1.05    15.999
   20249      ob       1    MUSC   O03N1       1     -1.05    15.999
   20250      ob       1    MUSC   O03N2       1     -1.05    15.999
   20251       K       1    MUSC   K00D5       1       1.0    39.098
   20252       K       1    MUSC   K00D6       1       1.0    39.098
   20253      ao       1    MUSC   Al0Yr       1     1.575    26.982
   20254      ao       1    MUSC   Al0Ys       1     1.575    26.982
   20255      ao       1    MUSC   Al0Yt       1     1.575    26.982
   20256      ao       1    MUSC   Al0Yu       1     1.575    26.982
   20257      ao       1    MUSC   Al0Yv       1     1.575    26.982
   20258      ao       1    MUSC   Al0Yw       1     1.575    26.982
   20259      ao       1    MUSC   Al0Yx       1     1.575    26.982
   20260      ao       1    MUSC   Al0Yy       1     1.575    26.982
   20261      st       1    MUSC   Si17h       1       2.1    28.086
   20262      st       1    MUSC   Si17i       1       2.1    28.086
   20263      st       1    MUSC   Si17j       1       2.1    28.086
   20264      st       1    MUSC   Si17k       1       2.1    28.086
   20265      st       1    MUSC   Si17l       1       2.1    28.086
   20266      st       1    MUSC   Si17m       1       2.1    28.086
   20267      st       1    MUSC   Si17n       1       2.1    28.086
   20268      st       1    MUSC   Si17o       1       2.1    28.086
   20269      st       1    MUSC   Si17p       1       2.1    28.086
   20270      st       1    MUSC   Si17q       1       2.1    28.086
   20271      st       1    MUSC   Si17r       1       2.1    28.086
   20272      st       1    MUSC   Si17s       1       2.1    28.086
   20273      st       1    MUSC   Si17t       1       2.1    28.086
   20274      st       1    MUSC   Si17u       1       2.1    28.086
   20275      st       1    MUSC   Si17v       1       2.1    28.086
   20276      st       1    MUSC   Si17w       1       2.1    28.086
   20277      ob       1    MUSC   O03N3       1     -1.05    15.999
   20278      ob       1    MUSC   O03N4       1     -1.05    15.999
   20279      ob       1    MUSC   O03N5       1     -1.05    15.999
   20280      ob       1    MUSC   O03N6       1     -1.05    15.999
   20281      oh       1    MUSC   O03N7       1     -0.95    15.999
   20282      oh       1    MUSC   O03N8       1     -0.95    15.999
   20283      oh       1    MUSC   O03N9       1     -0.95    15.999
   20284      oh       1    MUSC   O03NA       1     -0.95    15.999
   20285      ob       1    MUSC   O03NB       1     -1.05    15.999
   20286      ob       1    MUSC   O03NC       1     -1.05    15.999
   20287      ob       1    MUSC   O03ND       1     -1.05    15.999
   20288      ob       1    MUSC   O03NE       1     -1.05    15.999
   20289      ob       1    MUSC   O03NF       1     -1.05    15.999
   20290      ob       1    MUSC   O03NG       1     -1.05    15.999
   20291      ob       1    MUSC   O03NH       1     -1.05    15.999
   20292      ob       1    MUSC   O03NI       1     -1.05    15.999
   20293      ob       1    MUSC   O03NJ       1     -1.05    15.999
   20294      ob       1    MUSC   O03NK       1     -1.05    15.999
   20295      ob       1    MUSC   O03NL       1     -1.05    15.999
   20296      ob       1    MUSC   O03NM       1     -1.05    15.999
   20297      ob       1    MUSC   O03NN       1     -1.05    15.999
   20298      ob       1    MUSC   O03NO       1     -1.05    15.999
   20299      ob       1    MUSC   O03NP       1     -1.05    15.999
   20300      ob       1    MUSC   O03NQ       1     -1.05    15.999
   20301      ob       1    MUSC   O03NR       1     -1.05    15.999
   20302      ob       1    MUSC   O03NS       1     -1.05    15.999
   20303      ob       1    MUSC   O03NT       1     -1.05    15.999
   20304      ob       1    MUSC   O03NU       1     -1.05    15.999
   20305      oh       1    MUSC   O03NV       1     -0.95    15.999
   20306      oh       1    MUSC   O03NW       1     -0.95    15.999
   20307      oh       1    MUSC   O03NX       1     -0.95    15.999
   20308      oh       1    MUSC   O03NY       1     -0.95    15.999
   20309      ob       1    MUSC   O03NZ       1     -1.05    15.999
   20310      ob       1    MUSC   O03Na       1     -1.05    15.999
   20311      ob       1    MUSC   O03Nb       1     -1.05    15.999
   20312      ob       1    MUSC   O03Nc       1     -1.05    15.999
   20313      ob       1    MUSC   O03Nd       1     -1.05    15.999
   20314      ob       1    MUSC   O03Ne       1     -1.05    15.999
   20315      ob       1    MUSC   O03Nf       1     -1.05    15.999
   20316      ob       1    MUSC   O03Ng       1     -1.05    15.999
   20317      ob       1    MUSC   O03Nh       1     -1.05    15.999
   20318      ob       1    MUSC   O03Ni       1     -1.05    15.999
   20319      ob       1    MUSC   O03Nj       1     -1.05    15.999
   20320      ob       1    MUSC   O03Nk       1     -1.05    15.999
   20321      ob       1    MUSC   O03Nl       1     -1.05    15.999
   20322      ob       1    MUSC   O03Nm       1     -1.05    15.999
   20323      ob       1    MUSC   O03Nn       1     -1.05    15.999
   20324      ob       1    MUSC   O03No       1     -1.05    15.999
   20325       K       1    MUSC   K00D7       1       1.0    39.098
   20326       K       1    MUSC   K00D8       1       1.0    39.098
   20327       K       1    MUSC   K00D9       1       1.0    39.098
   20328       K       1    MUSC   K00DA       1       1.0    39.098
   20329      ao       1    MUSC   Al0Yz       1     1.575    26.982
   20330      ao       1    MUSC   Al0Z0       1     1.575    26.982
   20331      ao       1    MUSC   Al0Z1       1     1.575    26.982
   20332      ao       1    MUSC   Al0Z2       1     1.575    26.982
   20333      ao       1    MUSC   Al0Z3       1     1.575    26.982
   20334      ao       1    MUSC   Al0Z4       1     1.575    26.982
   20335      ao       1    MUSC   Al0Z5       1     1.575    26.982
   20336      ao       1    MUSC   Al0Z6       1     1.575    26.982
   20337      st       1    MUSC   Si17x       1       2.1    28.086
   20338      st       1    MUSC   Si17y       1       2.1    28.086
   20339      st       1    MUSC   Si17z       1       2.1    28.086
   20340      st       1    MUSC   Si180       1       2.1    28.086
   20341      st       1    MUSC   Si181       1       2.1    28.086
   20342      st       1    MUSC   Si182       1       2.1    28.086
   20343      st       1    MUSC   Si183       1       2.1    28.086
   20344      st       1    MUSC   Si184       1       2.1    28.086
   20345      st       1    MUSC   Si185       1       2.1    28.086
   20346      st       1    MUSC   Si186       1       2.1    28.086
   20347      st       1    MUSC   Si187       1       2.1    28.086
   20348      st       1    MUSC   Si188       1       2.1    28.086
   20349      st       1    MUSC   Si189       1       2.1    28.086
   20350      st       1    MUSC   Si18A       1       2.1    28.086
   20351      st       1    MUSC   Si18B       1       2.1    28.086
   20352      st       1    MUSC   Si18C       1       2.1    28.086
   20353      ob       1    MUSC   O03Np       1     -1.05    15.999
   20354      ob       1    MUSC   O03Nq       1     -1.05    15.999
   20355      ob       1    MUSC   O03Nr       1     -1.05    15.999
   20356      ob       1    MUSC   O03Ns       1     -1.05    15.999
   20357      oh       1    MUSC   O03Nt       1     -0.95    15.999
   20358      oh       1    MUSC   O03Nu       1     -0.95    15.999
   20359      oh       1    MUSC   O03Nv       1     -0.95    15.999
   20360      oh       1    MUSC   O03Nw       1     -0.95    15.999
   20361      ob       1    MUSC   O03Nx       1     -1.05    15.999
   20362      ob       1    MUSC   O03Ny       1     -1.05    15.999
   20363      ob       1    MUSC   O03Nz       1     -1.05    15.999
   20364      ob       1    MUSC   O03O0       1     -1.05    15.999
   20365      ob       1    MUSC   O03O1       1     -1.05    15.999
   20366      ob       1    MUSC   O03O2       1     -1.05    15.999
   20367      ob       1    MUSC   O03O3       1     -1.05    15.999
   20368      ob       1    MUSC   O03O4       1     -1.05    15.999
   20369      ob       1    MUSC   O03O5       1     -1.05    15.999
   20370      ob       1    MUSC   O03O6       1     -1.05    15.999
   20371      ob       1    MUSC   O03O7       1     -1.05    15.999
   20372      ob       1    MUSC   O03O8       1     -1.05    15.999
   20373      ob       1    MUSC   O03O9       1     -1.05    15.999
   20374      ob       1    MUSC   O03OA       1     -1.05    15.999
   20375      ob       1    MUSC   O03OB       1     -1.05    15.999
   20376      ob       1    MUSC   O03OC       1     -1.05    15.999
   20377      ob       1    MUSC   O03OD       1     -1.05    15.999
   20378      ob       1    MUSC   O03OE       1     -1.05    15.999
   20379      ob       1    MUSC   O03OF       1     -1.05    15.999
   20380      ob       1    MUSC   O03OG       1     -1.05    15.999
   20381      oh       1    MUSC   O03OH       1     -0.95    15.999
   20382      oh       1    MUSC   O03OI       1     -0.95    15.999
   20383      oh       1    MUSC   O03OJ       1     -0.95    15.999
   20384      oh       1    MUSC   O03OK       1     -0.95    15.999
   20385      ob       1    MUSC   O03OL       1     -1.05    15.999
   20386      ob       1    MUSC   O03OM       1     -1.05    15.999
   20387      ob       1    MUSC   O03ON       1     -1.05    15.999
   20388      ob       1    MUSC   O03OO       1     -1.05    15.999
   20389      ob       1    MUSC   O03OP       1     -1.05    15.999
   20390      ob       1    MUSC   O03OQ       1     -1.05    15.999
   20391      ob       1    MUSC   O03OR       1     -1.05    15.999
   20392      ob       1    MUSC   O03OS       1     -1.05    15.999
   20393      ob       1    MUSC   O03OT       1     -1.05    15.999
   20394      ob       1    MUSC   O03OU       1     -1.05    15.999
   20395      ob       1    MUSC   O03OV       1     -1.05    15.999
   20396      ob       1    MUSC   O03OW       1     -1.05    15.999
   20397      ob       1    MUSC   O03OX       1     -1.05    15.999
   20398      ob       1    MUSC   O03OY       1     -1.05    15.999
   20399      ob       1    MUSC   O03OZ       1     -1.05    15.999
   20400      ob       1    MUSC   O03Oa       1     -1.05    15.999
   20401       K       1    MUSC   K00DB       1       1.0    39.098
   20402       K       1    MUSC   K00DC       1       1.0    39.098
   20403      ao       1    MUSC   Al0Z7       1     1.575    26.982
   20404      ao       1    MUSC   Al0Z8       1     1.575    26.982
   20405      ao       1    MUSC   Al0Z9       1     1.575    26.982
   20406      ao       1    MUSC   Al0ZA       1     1.575    26.982
   20407      ao       1    MUSC   Al0ZB       1     1.575    26.982
   20408      ao       1    MUSC   Al0ZC       1     1.575    26.982
   20409      ao       1    MUSC   Al0ZD       1     1.575    26.982
   20410      ao       1    MUSC   Al0ZE       1     1.575    26.982
   20411      st       1    MUSC   Si18D       1       2.1    28.086
   20412      st       1    MUSC   Si18E       1       2.1    28.086
   20413      st       1    MUSC   Si18F       1       2.1    28.086
   20414      st       1    MUSC   Si18G       1       2.1    28.086
   20415      st       1    MUSC   Si18H       1       2.1    28.086
   20416      st       1    MUSC   Si18I       1       2.1    28.086
   20417      st       1    MUSC   Si18J       1       2.1    28.086
   20418      st       1    MUSC   Si18K       1       2.1    28.086
   20419      st       1    MUSC   Si18L       1       2.1    28.086
   20420      st       1    MUSC   Si18M       1       2.1    28.086
   20421      st       1    MUSC   Si18N       1       2.1    28.086
   20422      st       1    MUSC   Si18O       1       2.1    28.086
   20423      st       1    MUSC   Si18P       1       2.1    28.086
   20424      st       1    MUSC   Si18Q       1       2.1    28.086
   20425      st       1    MUSC   Si18R       1       2.1    28.086
   20426      st       1    MUSC   Si18S       1       2.1    28.086
   20427      ob       1    MUSC   O03Ob       1     -1.05    15.999
   20428      ob       1    MUSC   O03Oc       1     -1.05    15.999
   20429      ob       1    MUSC   O03Od       1     -1.05    15.999
   20430      ob       1    MUSC   O03Oe       1     -1.05    15.999
   20431      oh       1    MUSC   O03Of       1     -0.95    15.999
   20432      oh       1    MUSC   O03Og       1     -0.95    15.999
   20433      oh       1    MUSC   O03Oh       1     -0.95    15.999
   20434      oh       1    MUSC   O03Oi       1     -0.95    15.999
   20435      ob       1    MUSC   O03Oj       1     -1.05    15.999
   20436      ob       1    MUSC   O03Ok       1     -1.05    15.999
   20437      ob       1    MUSC   O03Ol       1     -1.05    15.999
   20438      ob       1    MUSC   O03Om       1     -1.05    15.999
   20439      ob       1    MUSC   O03On       1     -1.05    15.999
   20440      ob       1    MUSC   O03Oo       1     -1.05    15.999
   20441      ob       1    MUSC   O03Op       1     -1.05    15.999
   20442      ob       1    MUSC   O03Oq       1     -1.05    15.999
   20443      ob       1    MUSC   O03Or       1     -1.05    15.999
   20444      ob       1    MUSC   O03Os       1     -1.05    15.999
   20445      ob       1    MUSC   O03Ot       1     -1.05    15.999
   20446      ob       1    MUSC   O03Ou       1     -1.05    15.999
   20447      ob       1    MUSC   O03Ov       1     -1.05    15.999
   20448      ob       1    MUSC   O03Ow       1     -1.05    15.999
   20449      ob       1    MUSC   O03Ox       1     -1.05    15.999
   20450      ob       1    MUSC   O03Oy       1     -1.05    15.999
   20451      ob       1    MUSC   O03Oz       1     -1.05    15.999
   20452      ob       1    MUSC   O03P0       1     -1.05    15.999
   20453      ob       1    MUSC   O03P1       1     -1.05    15.999
   20454      ob       1    MUSC   O03P2       1     -1.05    15.999
   20455      oh       1    MUSC   O03P3       1     -0.95    15.999
   20456      oh       1    MUSC   O03P4       1     -0.95    15.999
   20457      oh       1    MUSC   O03P5       1     -0.95    15.999
   20458      oh       1    MUSC   O03P6       1     -0.95    15.999
   20459      ob       1    MUSC   O03P7       1     -1.05    15.999
   20460      ob       1    MUSC   O03P8       1     -1.05    15.999
   20461      ob       1    MUSC   O03P9       1     -1.05    15.999
   20462      ob       1    MUSC   O03PA       1     -1.05    15.999
   20463      ob       1    MUSC   O03PB       1     -1.05    15.999
   20464      ob       1    MUSC   O03PC       1     -1.05    15.999
   20465      ob       1    MUSC   O03PD       1     -1.05    15.999
   20466      ob       1    MUSC   O03PE       1     -1.05    15.999
   20467      ob       1    MUSC   O03PF       1     -1.05    15.999
   20468      ob       1    MUSC   O03PG       1     -1.05    15.999
   20469      ob       1    MUSC   O03PH       1     -1.05    15.999
   20470      ob       1    MUSC   O03PI       1     -1.05    15.999
   20471      ob       1    MUSC   O03PJ       1     -1.05    15.999
   20472      ob       1    MUSC   O03PK       1     -1.05    15.999
   20473      ob       1    MUSC   O03PL       1     -1.05    15.999
   20474      ob       1    MUSC   O03PM       1     -1.05    15.999
   20475       K       1    MUSC   K00DD       1       1.0    39.098
   20476       K       1    MUSC   K00DE       1       1.0    39.098
   20477       K       1    MUSC   K00DF       1       1.0    39.098
   20478       K       1    MUSC   K00DG       1       1.0    39.098
   20479      ao       1    MUSC   Al0ZF       1     1.575    26.982
   20480      ao       1    MUSC   Al0ZG       1     1.575    26.982
   20481      ao       1    MUSC   Al0ZH       1     1.575    26.982
   20482      ao       1    MUSC   Al0ZI       1     1.575    26.982
   20483      ao       1    MUSC   Al0ZJ       1     1.575    26.982
   20484      ao       1    MUSC   Al0ZK       1     1.575    26.982
   20485      ao       1    MUSC   Al0ZL       1     1.575    26.982
   20486      ao       1    MUSC   Al0ZM       1     1.575    26.982
   20487      st       1    MUSC   Si18T       1       2.1    28.086
   20488      st       1    MUSC   Si18U       1       2.1    28.086
   20489      st       1    MUSC   Si18V       1       2.1    28.086
   20490      st       1    MUSC   Si18W       1       2.1    28.086
   20491      st       1    MUSC   Si18X       1       2.1    28.086
   20492      st       1    MUSC   Si18Y       1       2.1    28.086
   20493      st       1    MUSC   Si18Z       1       2.1    28.086
   20494      st       1    MUSC   Si18a       1       2.1    28.086
   20495      st       1    MUSC   Si18b       1       2.1    28.086
   20496      st       1    MUSC   Si18c       1       2.1    28.086
   20497      st       1    MUSC   Si18d       1       2.1    28.086
   20498      st       1    MUSC   Si18e       1       2.1    28.086
   20499      st       1    MUSC   Si18f       1       2.1    28.086
   20500      st       1    MUSC   Si18g       1       2.1    28.086
   20501      st       1    MUSC   Si18h       1       2.1    28.086
   20502      st       1    MUSC   Si18i       1       2.1    28.086
   20503      ob       1    MUSC   O03PN       1     -1.05    15.999
   20504      ob       1    MUSC   O03PO       1     -1.05    15.999
   20505      ob       1    MUSC   O03PP       1     -1.05    15.999
   20506      ob       1    MUSC   O03PQ       1     -1.05    15.999
   20507      oh       1    MUSC   O03PR       1     -0.95    15.999
   20508      oh       1    MUSC   O03PS       1     -0.95    15.999
   20509      oh       1    MUSC   O03PT       1     -0.95    15.999
   20510      oh       1    MUSC   O03PU       1     -0.95    15.999
   20511      ob       1    MUSC   O03PV       1     -1.05    15.999
   20512      ob       1    MUSC   O03PW       1     -1.05    15.999
   20513      ob       1    MUSC   O03PX       1     -1.05    15.999
   20514      ob       1    MUSC   O03PY       1     -1.05    15.999
   20515      ob       1    MUSC   O03PZ       1     -1.05    15.999
   20516      ob       1    MUSC   O03Pa       1     -1.05    15.999
   20517      ob       1    MUSC   O03Pb       1     -1.05    15.999
   20518      ob       1    MUSC   O03Pc       1     -1.05    15.999
   20519      ob       1    MUSC   O03Pd       1     -1.05    15.999
   20520      ob       1    MUSC   O03Pe       1     -1.05    15.999
   20521      ob       1    MUSC   O03Pf       1     -1.05    15.999
   20522      ob       1    MUSC   O03Pg       1     -1.05    15.999
   20523      ob       1    MUSC   O03Ph       1     -1.05    15.999
   20524      ob       1    MUSC   O03Pi       1     -1.05    15.999
   20525      ob       1    MUSC   O03Pj       1     -1.05    15.999
   20526      ob       1    MUSC   O03Pk       1     -1.05    15.999
   20527      ob       1    MUSC   O03Pl       1     -1.05    15.999
   20528      ob       1    MUSC   O03Pm       1     -1.05    15.999
   20529      ob       1    MUSC   O03Pn       1     -1.05    15.999
   20530      ob       1    MUSC   O03Po       1     -1.05    15.999
   20531      oh       1    MUSC   O03Pp       1     -0.95    15.999
   20532      oh       1    MUSC   O03Pq       1     -0.95    15.999
   20533      oh       1    MUSC   O03Pr       1     -0.95    15.999
   20534      oh       1    MUSC   O03Ps       1     -0.95    15.999
   20535      ob       1    MUSC   O03Pt       1     -1.05    15.999
   20536      ob       1    MUSC   O03Pu       1     -1.05    15.999
   20537      ob       1    MUSC   O03Pv       1     -1.05    15.999
   20538      ob       1    MUSC   O03Pw       1     -1.05    15.999
   20539      ob       1    MUSC   O03Px       1     -1.05    15.999
   20540      ob       1    MUSC   O03Py       1     -1.05    15.999
   20541      ob       1    MUSC   O03Pz       1     -1.05    15.999
   20542      ob       1    MUSC   O03Q0       1     -1.05    15.999
   20543      ob       1    MUSC   O03Q1       1     -1.05    15.999
   20544      ob       1    MUSC   O03Q2       1     -1.05    15.999
   20545      ob       1    MUSC   O03Q3       1     -1.05    15.999
   20546      ob       1    MUSC   O03Q4       1     -1.05    15.999
   20547      ob       1    MUSC   O03Q5       1     -1.05    15.999
   20548      ob       1    MUSC   O03Q6       1     -1.05    15.999
   20549      ob       1    MUSC   O03Q7       1     -1.05    15.999
   20550      ob       1    MUSC   O03Q8       1     -1.05    15.999
   20551       K       1    MUSC   K00DH       1       1.0    39.098
   20552       K       1    MUSC   K00DI       1       1.0    39.098
   20553      ao       1    MUSC   Al0ZN       1     1.575    26.982
   20554      ao       1    MUSC   Al0ZO       1     1.575    26.982
   20555      ao       1    MUSC   Al0ZP       1     1.575    26.982
   20556      ao       1    MUSC   Al0ZQ       1     1.575    26.982
   20557      ao       1    MUSC   Al0ZR       1     1.575    26.982
   20558      ao       1    MUSC   Al0ZS       1     1.575    26.982
   20559      ao       1    MUSC   Al0ZT       1     1.575    26.982
   20560      ao       1    MUSC   Al0ZU       1     1.575    26.982
   20561      st       1    MUSC   Si18j       1       2.1    28.086
   20562      st       1    MUSC   Si18k       1       2.1    28.086
   20563      st       1    MUSC   Si18l       1       2.1    28.086
   20564      st       1    MUSC   Si18m       1       2.1    28.086
   20565      st       1    MUSC   Si18n       1       2.1    28.086
   20566      st       1    MUSC   Si18o       1       2.1    28.086
   20567      st       1    MUSC   Si18p       1       2.1    28.086
   20568      st       1    MUSC   Si18q       1       2.1    28.086
   20569      st       1    MUSC   Si18r       1       2.1    28.086
   20570      st       1    MUSC   Si18s       1       2.1    28.086
   20571      st       1    MUSC   Si18t       1       2.1    28.086
   20572      st       1    MUSC   Si18u       1       2.1    28.086
   20573      st       1    MUSC   Si18v       1       2.1    28.086
   20574      st       1    MUSC   Si18w       1       2.1    28.086
   20575      st       1    MUSC   Si18x       1       2.1    28.086
   20576      st       1    MUSC   Si18y       1       2.1    28.086
   20577      ob       1    MUSC   O03Q9       1     -1.05    15.999
   20578      ob       1    MUSC   O03QA       1     -1.05    15.999
   20579      ob       1    MUSC   O03QB       1     -1.05    15.999
   20580      ob       1    MUSC   O03QC       1     -1.05    15.999
   20581      oh       1    MUSC   O03QD       1     -0.95    15.999
   20582      oh       1    MUSC   O03QE       1     -0.95    15.999
   20583      oh       1    MUSC   O03QF       1     -0.95    15.999
   20584      oh       1    MUSC   O03QG       1     -0.95    15.999
   20585      ob       1    MUSC   O03QH       1     -1.05    15.999
   20586      ob       1    MUSC   O03QI       1     -1.05    15.999
   20587      ob       1    MUSC   O03QJ       1     -1.05    15.999
   20588      ob       1    MUSC   O03QK       1     -1.05    15.999
   20589      ob       1    MUSC   O03QL       1     -1.05    15.999
   20590      ob       1    MUSC   O03QM       1     -1.05    15.999
   20591      ob       1    MUSC   O03QN       1     -1.05    15.999
   20592      ob       1    MUSC   O03QO       1     -1.05    15.999
   20593      ob       1    MUSC   O03QP       1     -1.05    15.999
   20594      ob       1    MUSC   O03QQ       1     -1.05    15.999
   20595      ob       1    MUSC   O03QR       1     -1.05    15.999
   20596      ob       1    MUSC   O03QS       1     -1.05    15.999
   20597      ob       1    MUSC   O03QT       1     -1.05    15.999
   20598      ob       1    MUSC   O03QU       1     -1.05    15.999
   20599      ob       1    MUSC   O03QV       1     -1.05    15.999
   20600      ob       1    MUSC   O03QW       1     -1.05    15.999
   20601      ob       1    MUSC   O03QX       1     -1.05    15.999
   20602      ob       1    MUSC   O03QY       1     -1.05    15.999
   20603      ob       1    MUSC   O03QZ       1     -1.05    15.999
   20604      ob       1    MUSC   O03Qa       1     -1.05    15.999
   20605      oh       1    MUSC   O03Qb       1     -0.95    15.999
   20606      oh       1    MUSC   O03Qc       1     -0.95    15.999
   20607      oh       1    MUSC   O03Qd       1     -0.95    15.999
   20608      oh       1    MUSC   O03Qe       1     -0.95    15.999
   20609      ob       1    MUSC   O03Qf       1     -1.05    15.999
   20610      ob       1    MUSC   O03Qg       1     -1.05    15.999
   20611      ob       1    MUSC   O03Qh       1     -1.05    15.999
   20612      ob       1    MUSC   O03Qi       1     -1.05    15.999
   20613      ob       1    MUSC   O03Qj       1     -1.05    15.999
   20614      ob       1    MUSC   O03Qk       1     -1.05    15.999
   20615      ob       1    MUSC   O03Ql       1     -1.05    15.999
   20616      ob       1    MUSC   O03Qm       1     -1.05    15.999
   20617      ob       1    MUSC   O03Qn       1     -1.05    15.999
   20618      ob       1    MUSC   O03Qo       1     -1.05    15.999
   20619      ob       1    MUSC   O03Qp       1     -1.05    15.999
   20620      ob       1    MUSC   O03Qq       1     -1.05    15.999
   20621      ob       1    MUSC   O03Qr       1     -1.05    15.999
   20622      ob       1    MUSC   O03Qs       1     -1.05    15.999
   20623      ob       1    MUSC   O03Qt       1     -1.05    15.999
   20624      ob       1    MUSC   O03Qu       1     -1.05    15.999
   20625       K       1    MUSC   K00DJ       1       1.0    39.098
   20626       K       1    MUSC   K00DK       1       1.0    39.098
   20627       K       1    MUSC   K00DL       1       1.0    39.098
   20628       K       1    MUSC   K00DM       1       1.0    39.098
   20629      ao       1    MUSC   Al0ZV       1     1.575    26.982
   20630      ao       1    MUSC   Al0ZW       1     1.575    26.982
   20631      ao       1    MUSC   Al0ZX       1     1.575    26.982
   20632      ao       1    MUSC   Al0ZY       1     1.575    26.982
   20633      ao       1    MUSC   Al0ZZ       1     1.575    26.982
   20634      ao       1    MUSC   Al0Za       1     1.575    26.982
   20635      ao       1    MUSC   Al0Zb       1     1.575    26.982
   20636      ao       1    MUSC   Al0Zc       1     1.575    26.982
   20637      st       1    MUSC   Si18z       1       2.1    28.086
   20638      st       1    MUSC   Si190       1       2.1    28.086
   20639      st       1    MUSC   Si191       1       2.1    28.086
   20640      st       1    MUSC   Si192       1       2.1    28.086
   20641      st       1    MUSC   Si193       1       2.1    28.086
   20642      st       1    MUSC   Si194       1       2.1    28.086
   20643      st       1    MUSC   Si195       1       2.1    28.086
   20644      st       1    MUSC   Si196       1       2.1    28.086
   20645      st       1    MUSC   Si197       1       2.1    28.086
   20646      st       1    MUSC   Si198       1       2.1    28.086
   20647      st       1    MUSC   Si199       1       2.1    28.086
   20648      st       1    MUSC   Si19A       1       2.1    28.086
   20649      st       1    MUSC   Si19B       1       2.1    28.086
   20650      st       1    MUSC   Si19C       1       2.1    28.086
   20651      st       1    MUSC   Si19D       1       2.1    28.086
   20652      st       1    MUSC   Si19E       1       2.1    28.086
   20653      ob       1    MUSC   O03Qv       1     -1.05    15.999
   20654      ob       1    MUSC   O03Qw       1     -1.05    15.999
   20655      ob       1    MUSC   O03Qx       1     -1.05    15.999
   20656      ob       1    MUSC   O03Qy       1     -1.05    15.999
   20657      oh       1    MUSC   O03Qz       1     -0.95    15.999
   20658      oh       1    MUSC   O03R0       1     -0.95    15.999
   20659      oh       1    MUSC   O03R1       1     -0.95    15.999
   20660      oh       1    MUSC   O03R2       1     -0.95    15.999
   20661      ob       1    MUSC   O03R3       1     -1.05    15.999
   20662      ob       1    MUSC   O03R4       1     -1.05    15.999
   20663      ob       1    MUSC   O03R5       1     -1.05    15.999
   20664      ob       1    MUSC   O03R6       1     -1.05    15.999
   20665      ob       1    MUSC   O03R7       1     -1.05    15.999
   20666      ob       1    MUSC   O03R8       1     -1.05    15.999
   20667      ob       1    MUSC   O03R9       1     -1.05    15.999
   20668      ob       1    MUSC   O03RA       1     -1.05    15.999
   20669      ob       1    MUSC   O03RB       1     -1.05    15.999
   20670      ob       1    MUSC   O03RC       1     -1.05    15.999
   20671      ob       1    MUSC   O03RD       1     -1.05    15.999
   20672      ob       1    MUSC   O03RE       1     -1.05    15.999
   20673      ob       1    MUSC   O03RF       1     -1.05    15.999
   20674      ob       1    MUSC   O03RG       1     -1.05    15.999
   20675      ob       1    MUSC   O03RH       1     -1.05    15.999
   20676      ob       1    MUSC   O03RI       1     -1.05    15.999
   20677      ob       1    MUSC   O03RJ       1     -1.05    15.999
   20678      ob       1    MUSC   O03RK       1     -1.05    15.999
   20679      ob       1    MUSC   O03RL       1     -1.05    15.999
   20680      ob       1    MUSC   O03RM       1     -1.05    15.999
   20681      oh       1    MUSC   O03RN       1     -0.95    15.999
   20682      oh       1    MUSC   O03RO       1     -0.95    15.999
   20683      oh       1    MUSC   O03RP       1     -0.95    15.999
   20684      oh       1    MUSC   O03RQ       1     -0.95    15.999
   20685      ob       1    MUSC   O03RR       1     -1.05    15.999
   20686      ob       1    MUSC   O03RS       1     -1.05    15.999
   20687      ob       1    MUSC   O03RT       1     -1.05    15.999
   20688      ob       1    MUSC   O03RU       1     -1.05    15.999
   20689      ob       1    MUSC   O03RV       1     -1.05    15.999
   20690      ob       1    MUSC   O03RW       1     -1.05    15.999
   20691      ob       1    MUSC   O03RX       1     -1.05    15.999
   20692      ob       1    MUSC   O03RY       1     -1.05    15.999
   20693      ob       1    MUSC   O03RZ       1     -1.05    15.999
   20694      ob       1    MUSC   O03Ra       1     -1.05    15.999
   20695      ob       1    MUSC   O03Rb       1     -1.05    15.999
   20696      ob       1    MUSC   O03Rc       1     -1.05    15.999
   20697      ob       1    MUSC   O03Rd       1     -1.05    15.999
   20698      ob       1    MUSC   O03Re       1     -1.05    15.999
   20699      ob       1    MUSC   O03Rf       1     -1.05    15.999
   20700      ob       1    MUSC   O03Rg       1     -1.05    15.999
   20701       K       1    MUSC   K00DN       1       1.0    39.098
   20702       K       1    MUSC   K00DO       1       1.0    39.098
   20703      ao       1    MUSC   Al0Zd       1     1.575    26.982
   20704      ao       1    MUSC   Al0Ze       1     1.575    26.982
   20705      ao       1    MUSC   Al0Zf       1     1.575    26.982
   20706      ao       1    MUSC   Al0Zg       1     1.575    26.982
   20707      ao       1    MUSC   Al0Zh       1     1.575    26.982
   20708      ao       1    MUSC   Al0Zi       1     1.575    26.982
   20709      ao       1    MUSC   Al0Zj       1     1.575    26.982
   20710      ao       1    MUSC   Al0Zk       1     1.575    26.982
   20711      st       1    MUSC   Si19F       1       2.1    28.086
   20712      st       1    MUSC   Si19G       1       2.1    28.086
   20713      st       1    MUSC   Si19H       1       2.1    28.086
   20714      st       1    MUSC   Si19I       1       2.1    28.086
   20715      st       1    MUSC   Si19J       1       2.1    28.086
   20716      st       1    MUSC   Si19K       1       2.1    28.086
   20717      st       1    MUSC   Si19L       1       2.1    28.086
   20718      st       1    MUSC   Si19M       1       2.1    28.086
   20719      st       1    MUSC   Si19N       1       2.1    28.086
   20720      st       1    MUSC   Si19O       1       2.1    28.086
   20721      st       1    MUSC   Si19P       1       2.1    28.086
   20722      st       1    MUSC   Si19Q       1       2.1    28.086
   20723      st       1    MUSC   Si19R       1       2.1    28.086
   20724      st       1    MUSC   Si19S       1       2.1    28.086
   20725      st       1    MUSC   Si19T       1       2.1    28.086
   20726      st       1    MUSC   Si19U       1       2.1    28.086
   20727      ob       1    MUSC   O03Rh       1     -1.05    15.999
   20728      ob       1    MUSC   O03Ri       1     -1.05    15.999
   20729      ob       1    MUSC   O03Rj       1     -1.05    15.999
   20730      ob       1    MUSC   O03Rk       1     -1.05    15.999
   20731      oh       1    MUSC   O03Rl       1     -0.95    15.999
   20732      oh       1    MUSC   O03Rm       1     -0.95    15.999
   20733      oh       1    MUSC   O03Rn       1     -0.95    15.999
   20734      oh       1    MUSC   O03Ro       1     -0.95    15.999
   20735      ob       1    MUSC   O03Rp       1     -1.05    15.999
   20736      ob       1    MUSC   O03Rq       1     -1.05    15.999
   20737      ob       1    MUSC   O03Rr       1     -1.05    15.999
   20738      ob       1    MUSC   O03Rs       1     -1.05    15.999
   20739      ob       1    MUSC   O03Rt       1     -1.05    15.999
   20740      ob       1    MUSC   O03Ru       1     -1.05    15.999
   20741      ob       1    MUSC   O03Rv       1     -1.05    15.999
   20742      ob       1    MUSC   O03Rw       1     -1.05    15.999
   20743      ob       1    MUSC   O03Rx       1     -1.05    15.999
   20744      ob       1    MUSC   O03Ry       1     -1.05    15.999
   20745      ob       1    MUSC   O03Rz       1     -1.05    15.999
   20746      ob       1    MUSC   O03S0       1     -1.05    15.999
   20747      ob       1    MUSC   O03S1       1     -1.05    15.999
   20748      ob       1    MUSC   O03S2       1     -1.05    15.999
   20749      ob       1    MUSC   O03S3       1     -1.05    15.999
   20750      ob       1    MUSC   O03S4       1     -1.05    15.999
   20751      ob       1    MUSC   O03S5       1     -1.05    15.999
   20752      ob       1    MUSC   O03S6       1     -1.05    15.999
   20753      ob       1    MUSC   O03S7       1     -1.05    15.999
   20754      ob       1    MUSC   O03S8       1     -1.05    15.999
   20755      oh       1    MUSC   O03S9       1     -0.95    15.999
   20756      oh       1    MUSC   O03SA       1     -0.95    15.999
   20757      oh       1    MUSC   O03SB       1     -0.95    15.999
   20758      oh       1    MUSC   O03SC       1     -0.95    15.999
   20759      ob       1    MUSC   O03SD       1     -1.05    15.999
   20760      ob       1    MUSC   O03SE       1     -1.05    15.999
   20761      ob       1    MUSC   O03SF       1     -1.05    15.999
   20762      ob       1    MUSC   O03SG       1     -1.05    15.999
   20763      ob       1    MUSC   O03SH       1     -1.05    15.999
   20764      ob       1    MUSC   O03SI       1     -1.05    15.999
   20765      ob       1    MUSC   O03SJ       1     -1.05    15.999
   20766      ob       1    MUSC   O03SK       1     -1.05    15.999
   20767      ob       1    MUSC   O03SL       1     -1.05    15.999
   20768      ob       1    MUSC   O03SM       1     -1.05    15.999
   20769      ob       1    MUSC   O03SN       1     -1.05    15.999
   20770      ob       1    MUSC   O03SO       1     -1.05    15.999
   20771      ob       1    MUSC   O03SP       1     -1.05    15.999
   20772      ob       1    MUSC   O03SQ       1     -1.05    15.999
   20773      ob       1    MUSC   O03SR       1     -1.05    15.999
   20774      ob       1    MUSC   O03SS       1     -1.05    15.999
   20775       K       1    MUSC   K00DP       1       1.0    39.098
   20776       K       1    MUSC   K00DQ       1       1.0    39.098
   20777       K       1    MUSC   K00DR       1       1.0    39.098
   20778       K       1    MUSC   K00DS       1       1.0    39.098
   20779      ao       1    MUSC   Al0Zl       1     1.575    26.982
   20780      ao       1    MUSC   Al0Zm       1     1.575    26.982
   20781      ao       1    MUSC   Al0Zn       1     1.575    26.982
   20782      ao       1    MUSC   Al0Zo       1     1.575    26.982
   20783      ao       1    MUSC   Al0Zp       1     1.575    26.982
   20784      ao       1    MUSC   Al0Zq       1     1.575    26.982
   20785      ao       1    MUSC   Al0Zr       1     1.575    26.982
   20786      ao       1    MUSC   Al0Zs       1     1.575    26.982
   20787      st       1    MUSC   Si19V       1       2.1    28.086
   20788      st       1    MUSC   Si19W       1       2.1    28.086
   20789      st       1    MUSC   Si19X       1       2.1    28.086
   20790      st       1    MUSC   Si19Y       1       2.1    28.086
   20791      st       1    MUSC   Si19Z       1       2.1    28.086
   20792      st       1    MUSC   Si19a       1       2.1    28.086
   20793      st       1    MUSC   Si19b       1       2.1    28.086
   20794      st       1    MUSC   Si19c       1       2.1    28.086
   20795      st       1    MUSC   Si19d       1       2.1    28.086
   20796      st       1    MUSC   Si19e       1       2.1    28.086
   20797      st       1    MUSC   Si19f       1       2.1    28.086
   20798      st       1    MUSC   Si19g       1       2.1    28.086
   20799      st       1    MUSC   Si19h       1       2.1    28.086
   20800      st       1    MUSC   Si19i       1       2.1    28.086
   20801      st       1    MUSC   Si19j       1       2.1    28.086
   20802      st       1    MUSC   Si19k       1       2.1    28.086
   20803      ob       1    MUSC   O03ST       1     -1.05    15.999
   20804      ob       1    MUSC   O03SU       1     -1.05    15.999
   20805      ob       1    MUSC   O03SV       1     -1.05    15.999
   20806      ob       1    MUSC   O03SW       1     -1.05    15.999
   20807      oh       1    MUSC   O03SX       1     -0.95    15.999
   20808      oh       1    MUSC   O03SY       1     -0.95    15.999
   20809      oh       1    MUSC   O03SZ       1     -0.95    15.999
   20810      oh       1    MUSC   O03Sa       1     -0.95    15.999
   20811      ob       1    MUSC   O03Sb       1     -1.05    15.999
   20812      ob       1    MUSC   O03Sc       1     -1.05    15.999
   20813      ob       1    MUSC   O03Sd       1     -1.05    15.999
   20814      ob       1    MUSC   O03Se       1     -1.05    15.999
   20815      ob       1    MUSC   O03Sf       1     -1.05    15.999
   20816      ob       1    MUSC   O03Sg       1     -1.05    15.999
   20817      ob       1    MUSC   O03Sh       1     -1.05    15.999
   20818      ob       1    MUSC   O03Si       1     -1.05    15.999
   20819      ob       1    MUSC   O03Sj       1     -1.05    15.999
   20820      ob       1    MUSC   O03Sk       1     -1.05    15.999
   20821      ob       1    MUSC   O03Sl       1     -1.05    15.999
   20822      ob       1    MUSC   O03Sm       1     -1.05    15.999
   20823      ob       1    MUSC   O03Sn       1     -1.05    15.999
   20824      ob       1    MUSC   O03So       1     -1.05    15.999
   20825      ob       1    MUSC   O03Sp       1     -1.05    15.999
   20826      ob       1    MUSC   O03Sq       1     -1.05    15.999
   20827      ob       1    MUSC   O03Sr       1     -1.05    15.999
   20828      ob       1    MUSC   O03Ss       1     -1.05    15.999
   20829      ob       1    MUSC   O03St       1     -1.05    15.999
   20830      ob       1    MUSC   O03Su       1     -1.05    15.999
   20831      oh       1    MUSC   O03Sv       1     -0.95    15.999
   20832      oh       1    MUSC   O03Sw       1     -0.95    15.999
   20833      oh       1    MUSC   O03Sx       1     -0.95    15.999
   20834      oh       1    MUSC   O03Sy       1     -0.95    15.999
   20835      ob       1    MUSC   O03Sz       1     -1.05    15.999
   20836      ob       1    MUSC   O03T0       1     -1.05    15.999
   20837      ob       1    MUSC   O03T1       1     -1.05    15.999
   20838      ob       1    MUSC   O03T2       1     -1.05    15.999
   20839      ob       1    MUSC   O03T3       1     -1.05    15.999
   20840      ob       1    MUSC   O03T4       1     -1.05    15.999
   20841      ob       1    MUSC   O03T5       1     -1.05    15.999
   20842      ob       1    MUSC   O03T6       1     -1.05    15.999
   20843      ob       1    MUSC   O03T7       1     -1.05    15.999
   20844      ob       1    MUSC   O03T8       1     -1.05    15.999
   20845      ob       1    MUSC   O03T9       1     -1.05    15.999
   20846      ob       1    MUSC   O03TA       1     -1.05    15.999
   20847      ob       1    MUSC   O03TB       1     -1.05    15.999
   20848      ob       1    MUSC   O03TC       1     -1.05    15.999
   20849      ob       1    MUSC   O03TD       1     -1.05    15.999
   20850      ob       1    MUSC   O03TE       1     -1.05    15.999
   20851       K       1    MUSC   K00DT       1       1.0    39.098
   20852       K       1    MUSC   K00DU       1       1.0    39.098
   20853      ao       1    MUSC   Al0Zt       1     1.575    26.982
   20854      ao       1    MUSC   Al0Zu       1     1.575    26.982
   20855      ao       1    MUSC   Al0Zv       1     1.575    26.982
   20856      ao       1    MUSC   Al0Zw       1     1.575    26.982
   20857      ao       1    MUSC   Al0Zx       1     1.575    26.982
   20858      ao       1    MUSC   Al0Zy       1     1.575    26.982
   20859      ao       1    MUSC   Al0Zz       1     1.575    26.982
   20860      ao       1    MUSC   Al0a0       1     1.575    26.982
   20861      st       1    MUSC   Si19l       1       2.1    28.086
   20862      st       1    MUSC   Si19m       1       2.1    28.086
   20863      st       1    MUSC   Si19n       1       2.1    28.086
   20864      st       1    MUSC   Si19o       1       2.1    28.086
   20865      st       1    MUSC   Si19p       1       2.1    28.086
   20866      st       1    MUSC   Si19q       1       2.1    28.086
   20867      st       1    MUSC   Si19r       1       2.1    28.086
   20868      st       1    MUSC   Si19s       1       2.1    28.086
   20869      st       1    MUSC   Si19t       1       2.1    28.086
   20870      st       1    MUSC   Si19u       1       2.1    28.086
   20871      st       1    MUSC   Si19v       1       2.1    28.086
   20872      st       1    MUSC   Si19w       1       2.1    28.086
   20873      st       1    MUSC   Si19x       1       2.1    28.086
   20874      st       1    MUSC   Si19y       1       2.1    28.086
   20875      st       1    MUSC   Si19z       1       2.1    28.086
   20876      st       1    MUSC   Si1A0       1       2.1    28.086
   20877      ob       1    MUSC   O03TF       1     -1.05    15.999
   20878      ob       1    MUSC   O03TG       1     -1.05    15.999
   20879      ob       1    MUSC   O03TH       1     -1.05    15.999
   20880      ob       1    MUSC   O03TI       1     -1.05    15.999
   20881      oh       1    MUSC   O03TJ       1     -0.95    15.999
   20882      oh       1    MUSC   O03TK       1     -0.95    15.999
   20883      oh       1    MUSC   O03TL       1     -0.95    15.999
   20884      oh       1    MUSC   O03TM       1     -0.95    15.999
   20885      ob       1    MUSC   O03TN       1     -1.05    15.999
   20886      ob       1    MUSC   O03TO       1     -1.05    15.999
   20887      ob       1    MUSC   O03TP       1     -1.05    15.999
   20888      ob       1    MUSC   O03TQ       1     -1.05    15.999
   20889      ob       1    MUSC   O03TR       1     -1.05    15.999
   20890      ob       1    MUSC   O03TS       1     -1.05    15.999
   20891      ob       1    MUSC   O03TT       1     -1.05    15.999
   20892      ob       1    MUSC   O03TU       1     -1.05    15.999
   20893      ob       1    MUSC   O03TV       1     -1.05    15.999
   20894      ob       1    MUSC   O03TW       1     -1.05    15.999
   20895      ob       1    MUSC   O03TX       1     -1.05    15.999
   20896      ob       1    MUSC   O03TY       1     -1.05    15.999
   20897      ob       1    MUSC   O03TZ       1     -1.05    15.999
   20898      ob       1    MUSC   O03Ta       1     -1.05    15.999
   20899      ob       1    MUSC   O03Tb       1     -1.05    15.999
   20900      ob       1    MUSC   O03Tc       1     -1.05    15.999
   20901      ob       1    MUSC   O03Td       1     -1.05    15.999
   20902      ob       1    MUSC   O03Te       1     -1.05    15.999
   20903      ob       1    MUSC   O03Tf       1     -1.05    15.999
   20904      ob       1    MUSC   O03Tg       1     -1.05    15.999
   20905      oh       1    MUSC   O03Th       1     -0.95    15.999
   20906      oh       1    MUSC   O03Ti       1     -0.95    15.999
   20907      oh       1    MUSC   O03Tj       1     -0.95    15.999
   20908      oh       1    MUSC   O03Tk       1     -0.95    15.999
   20909      ob       1    MUSC   O03Tl       1     -1.05    15.999
   20910      ob       1    MUSC   O03Tm       1     -1.05    15.999
   20911      ob       1    MUSC   O03Tn       1     -1.05    15.999
   20912      ob       1    MUSC   O03To       1     -1.05    15.999
   20913      ob       1    MUSC   O03Tp       1     -1.05    15.999
   20914      ob       1    MUSC   O03Tq       1     -1.05    15.999
   20915      ob       1    MUSC   O03Tr       1     -1.05    15.999
   20916      ob       1    MUSC   O03Ts       1     -1.05    15.999
   20917      ob       1    MUSC   O03Tt       1     -1.05    15.999
   20918      ob       1    MUSC   O03Tu       1     -1.05    15.999
   20919      ob       1    MUSC   O03Tv       1     -1.05    15.999
   20920      ob       1    MUSC   O03Tw       1     -1.05    15.999
   20921      ob       1    MUSC   O03Tx       1     -1.05    15.999
   20922      ob       1    MUSC   O03Ty       1     -1.05    15.999
   20923      ob       1    MUSC   O03Tz       1     -1.05    15.999
   20924      ob       1    MUSC   O03U0       1     -1.05    15.999
   20925       K       1    MUSC   K00DV       1       1.0    39.098
   20926       K       1    MUSC   K00DW       1       1.0    39.098
   20927       K       1    MUSC   K00DX       1       1.0    39.098
   20928       K       1    MUSC   K00DY       1       1.0    39.098
   20929      ao       1    MUSC   Al0a1       1     1.575    26.982
   20930      ao       1    MUSC   Al0a2       1     1.575    26.982
   20931      ao       1    MUSC   Al0a3       1     1.575    26.982
   20932      ao       1    MUSC   Al0a4       1     1.575    26.982
   20933      ao       1    MUSC   Al0a5       1     1.575    26.982
   20934      ao       1    MUSC   Al0a6       1     1.575    26.982
   20935      ao       1    MUSC   Al0a7       1     1.575    26.982
   20936      ao       1    MUSC   Al0a8       1     1.575    26.982
   20937      st       1    MUSC   Si1A1       1       2.1    28.086
   20938      st       1    MUSC   Si1A2       1       2.1    28.086
   20939      st       1    MUSC   Si1A3       1       2.1    28.086
   20940      st       1    MUSC   Si1A4       1       2.1    28.086
   20941      st       1    MUSC   Si1A5       1       2.1    28.086
   20942      st       1    MUSC   Si1A6       1       2.1    28.086
   20943      st       1    MUSC   Si1A7       1       2.1    28.086
   20944      st       1    MUSC   Si1A8       1       2.1    28.086
   20945      st       1    MUSC   Si1A9       1       2.1    28.086
   20946      st       1    MUSC   Si1AA       1       2.1    28.086
   20947      st       1    MUSC   Si1AB       1       2.1    28.086
   20948      st       1    MUSC   Si1AC       1       2.1    28.086
   20949      st       1    MUSC   Si1AD       1       2.1    28.086
   20950      st       1    MUSC   Si1AE       1       2.1    28.086
   20951      st       1    MUSC   Si1AF       1       2.1    28.086
   20952      st       1    MUSC   Si1AG       1       2.1    28.086
   20953      ob       1    MUSC   O03U1       1     -1.05    15.999
   20954      ob       1    MUSC   O03U2       1     -1.05    15.999
   20955      ob       1    MUSC   O03U3       1     -1.05    15.999
   20956      ob       1    MUSC   O03U4       1     -1.05    15.999
   20957      oh       1    MUSC   O03U5       1     -0.95    15.999
   20958      oh       1    MUSC   O03U6       1     -0.95    15.999
   20959      oh       1    MUSC   O03U7       1     -0.95    15.999
   20960      oh       1    MUSC   O03U8       1     -0.95    15.999
   20961      ob       1    MUSC   O03U9       1     -1.05    15.999
   20962      ob       1    MUSC   O03UA       1     -1.05    15.999
   20963      ob       1    MUSC   O03UB       1     -1.05    15.999
   20964      ob       1    MUSC   O03UC       1     -1.05    15.999
   20965      ob       1    MUSC   O03UD       1     -1.05    15.999
   20966      ob       1    MUSC   O03UE       1     -1.05    15.999
   20967      ob       1    MUSC   O03UF       1     -1.05    15.999
   20968      ob       1    MUSC   O03UG       1     -1.05    15.999
   20969      ob       1    MUSC   O03UH       1     -1.05    15.999
   20970      ob       1    MUSC   O03UI       1     -1.05    15.999
   20971      ob       1    MUSC   O03UJ       1     -1.05    15.999
   20972      ob       1    MUSC   O03UK       1     -1.05    15.999
   20973      ob       1    MUSC   O03UL       1     -1.05    15.999
   20974      ob       1    MUSC   O03UM       1     -1.05    15.999
   20975      ob       1    MUSC   O03UN       1     -1.05    15.999
   20976      ob       1    MUSC   O03UO       1     -1.05    15.999
   20977      ob       1    MUSC   O03UP       1     -1.05    15.999
   20978      ob       1    MUSC   O03UQ       1     -1.05    15.999
   20979      ob       1    MUSC   O03UR       1     -1.05    15.999
   20980      ob       1    MUSC   O03US       1     -1.05    15.999
   20981      oh       1    MUSC   O03UT       1     -0.95    15.999
   20982      oh       1    MUSC   O03UU       1     -0.95    15.999
   20983      oh       1    MUSC   O03UV       1     -0.95    15.999
   20984      oh       1    MUSC   O03UW       1     -0.95    15.999
   20985      ob       1    MUSC   O03UX       1     -1.05    15.999
   20986      ob       1    MUSC   O03UY       1     -1.05    15.999
   20987      ob       1    MUSC   O03UZ       1     -1.05    15.999
   20988      ob       1    MUSC   O03Ua       1     -1.05    15.999
   20989      ob       1    MUSC   O03Ub       1     -1.05    15.999
   20990      ob       1    MUSC   O03Uc       1     -1.05    15.999
   20991      ob       1    MUSC   O03Ud       1     -1.05    15.999
   20992      ob       1    MUSC   O03Ue       1     -1.05    15.999
   20993      ob       1    MUSC   O03Uf       1     -1.05    15.999
   20994      ob       1    MUSC   O03Ug       1     -1.05    15.999
   20995      ob       1    MUSC   O03Uh       1     -1.05    15.999
   20996      ob       1    MUSC   O03Ui       1     -1.05    15.999
   20997      ob       1    MUSC   O03Uj       1     -1.05    15.999
   20998      ob       1    MUSC   O03Uk       1     -1.05    15.999
   20999      ob       1    MUSC   O03Ul       1     -1.05    15.999
   21000      ob       1    MUSC   O03Um       1     -1.05    15.999
   21001       K       1    MUSC   K00DZ       1       1.0    39.098
   21002       K       1    MUSC   K00Da       1       1.0    39.098
   21003      ao       1    MUSC   Al0a9       1     1.575    26.982
   21004      ao       1    MUSC   Al0aA       1     1.575    26.982
   21005      ao       1    MUSC   Al0aB       1     1.575    26.982
   21006      ao       1    MUSC   Al0aC       1     1.575    26.982
   21007      ao       1    MUSC   Al0aD       1     1.575    26.982
   21008      ao       1    MUSC   Al0aE       1     1.575    26.982
   21009      ao       1    MUSC   Al0aF       1     1.575    26.982
   21010      ao       1    MUSC   Al0aG       1     1.575    26.982
   21011      st       1    MUSC   Si1AH       1       2.1    28.086
   21012      st       1    MUSC   Si1AI       1       2.1    28.086
   21013      st       1    MUSC   Si1AJ       1       2.1    28.086
   21014      st       1    MUSC   Si1AK       1       2.1    28.086
   21015      st       1    MUSC   Si1AL       1       2.1    28.086
   21016      st       1    MUSC   Si1AM       1       2.1    28.086
   21017      st       1    MUSC   Si1AN       1       2.1    28.086
   21018      st       1    MUSC   Si1AO       1       2.1    28.086
   21019      st       1    MUSC   Si1AP       1       2.1    28.086
   21020      st       1    MUSC   Si1AQ       1       2.1    28.086
   21021      st       1    MUSC   Si1AR       1       2.1    28.086
   21022      st       1    MUSC   Si1AS       1       2.1    28.086
   21023      st       1    MUSC   Si1AT       1       2.1    28.086
   21024      st       1    MUSC   Si1AU       1       2.1    28.086
   21025      st       1    MUSC   Si1AV       1       2.1    28.086
   21026      st       1    MUSC   Si1AW       1       2.1    28.086
   21027      ob       1    MUSC   O03Un       1     -1.05    15.999
   21028      ob       1    MUSC   O03Uo       1     -1.05    15.999
   21029      ob       1    MUSC   O03Up       1     -1.05    15.999
   21030      ob       1    MUSC   O03Uq       1     -1.05    15.999
   21031      oh       1    MUSC   O03Ur       1     -0.95    15.999
   21032      oh       1    MUSC   O03Us       1     -0.95    15.999
   21033      oh       1    MUSC   O03Ut       1     -0.95    15.999
   21034      oh       1    MUSC   O03Uu       1     -0.95    15.999
   21035      ob       1    MUSC   O03Uv       1     -1.05    15.999
   21036      ob       1    MUSC   O03Uw       1     -1.05    15.999
   21037      ob       1    MUSC   O03Ux       1     -1.05    15.999
   21038      ob       1    MUSC   O03Uy       1     -1.05    15.999
   21039      ob       1    MUSC   O03Uz       1     -1.05    15.999
   21040      ob       1    MUSC   O03V0       1     -1.05    15.999
   21041      ob       1    MUSC   O03V1       1     -1.05    15.999
   21042      ob       1    MUSC   O03V2       1     -1.05    15.999
   21043      ob       1    MUSC   O03V3       1     -1.05    15.999
   21044      ob       1    MUSC   O03V4       1     -1.05    15.999
   21045      ob       1    MUSC   O03V5       1     -1.05    15.999
   21046      ob       1    MUSC   O03V6       1     -1.05    15.999
   21047      ob       1    MUSC   O03V7       1     -1.05    15.999
   21048      ob       1    MUSC   O03V8       1     -1.05    15.999
   21049      ob       1    MUSC   O03V9       1     -1.05    15.999
   21050      ob       1    MUSC   O03VA       1     -1.05    15.999
   21051      ob       1    MUSC   O03VB       1     -1.05    15.999
   21052      ob       1    MUSC   O03VC       1     -1.05    15.999
   21053      ob       1    MUSC   O03VD       1     -1.05    15.999
   21054      ob       1    MUSC   O03VE       1     -1.05    15.999
   21055      oh       1    MUSC   O03VF       1     -0.95    15.999
   21056      oh       1    MUSC   O03VG       1     -0.95    15.999
   21057      oh       1    MUSC   O03VH       1     -0.95    15.999
   21058      oh       1    MUSC   O03VI       1     -0.95    15.999
   21059      ob       1    MUSC   O03VJ       1     -1.05    15.999
   21060      ob       1    MUSC   O03VK       1     -1.05    15.999
   21061      ob       1    MUSC   O03VL       1     -1.05    15.999
   21062      ob       1    MUSC   O03VM       1     -1.05    15.999
   21063      ob       1    MUSC   O03VN       1     -1.05    15.999
   21064      ob       1    MUSC   O03VO       1     -1.05    15.999
   21065      ob       1    MUSC   O03VP       1     -1.05    15.999
   21066      ob       1    MUSC   O03VQ       1     -1.05    15.999
   21067      ob       1    MUSC   O03VR       1     -1.05    15.999
   21068      ob       1    MUSC   O03VS       1     -1.05    15.999
   21069      ob       1    MUSC   O03VT       1     -1.05    15.999
   21070      ob       1    MUSC   O03VU       1     -1.05    15.999
   21071      ob       1    MUSC   O03VV       1     -1.05    15.999
   21072      ob       1    MUSC   O03VW       1     -1.05    15.999
   21073      ob       1    MUSC   O03VX       1     -1.05    15.999
   21074      ob       1    MUSC   O03VY       1     -1.05    15.999
   21075       K       1    MUSC   K00Db       1       1.0    39.098
   21076       K       1    MUSC   K00Dc       1       1.0    39.098
   21077       K       1    MUSC   K00Dd       1       1.0    39.098
   21078       K       1    MUSC   K00De       1       1.0    39.098
   21079      ao       1    MUSC   Al0aH       1     1.575    26.982
   21080      ao       1    MUSC   Al0aI       1     1.575    26.982
   21081      ao       1    MUSC   Al0aJ       1     1.575    26.982
   21082      ao       1    MUSC   Al0aK       1     1.575    26.982
   21083      ao       1    MUSC   Al0aL       1     1.575    26.982
   21084      ao       1    MUSC   Al0aM       1     1.575    26.982
   21085      ao       1    MUSC   Al0aN       1     1.575    26.982
   21086      ao       1    MUSC   Al0aO       1     1.575    26.982
   21087      st       1    MUSC   Si1AX       1       2.1    28.086
   21088      st       1    MUSC   Si1AY       1       2.1    28.086
   21089      st       1    MUSC   Si1AZ       1       2.1    28.086
   21090      st       1    MUSC   Si1Aa       1       2.1    28.086
   21091      st       1    MUSC   Si1Ab       1       2.1    28.086
   21092      st       1    MUSC   Si1Ac       1       2.1    28.086
   21093      st       1    MUSC   Si1Ad       1       2.1    28.086
   21094      st       1    MUSC   Si1Ae       1       2.1    28.086
   21095      st       1    MUSC   Si1Af       1       2.1    28.086
   21096      st       1    MUSC   Si1Ag       1       2.1    28.086
   21097      st       1    MUSC   Si1Ah       1       2.1    28.086
   21098      st       1    MUSC   Si1Ai       1       2.1    28.086
   21099      st       1    MUSC   Si1Aj       1       2.1    28.086
   21100      st       1    MUSC   Si1Ak       1       2.1    28.086
   21101      st       1    MUSC   Si1Al       1       2.1    28.086
   21102      st       1    MUSC   Si1Am       1       2.1    28.086
   21103      ob       1    MUSC   O03VZ       1     -1.05    15.999
   21104      ob       1    MUSC   O03Va       1     -1.05    15.999
   21105      ob       1    MUSC   O03Vb       1     -1.05    15.999
   21106      ob       1    MUSC   O03Vc       1     -1.05    15.999
   21107      oh       1    MUSC   O03Vd       1     -0.95    15.999
   21108      oh       1    MUSC   O03Ve       1     -0.95    15.999
   21109      oh       1    MUSC   O03Vf       1     -0.95    15.999
   21110      oh       1    MUSC   O03Vg       1     -0.95    15.999
   21111      ob       1    MUSC   O03Vh       1     -1.05    15.999
   21112      ob       1    MUSC   O03Vi       1     -1.05    15.999
   21113      ob       1    MUSC   O03Vj       1     -1.05    15.999
   21114      ob       1    MUSC   O03Vk       1     -1.05    15.999
   21115      ob       1    MUSC   O03Vl       1     -1.05    15.999
   21116      ob       1    MUSC   O03Vm       1     -1.05    15.999
   21117      ob       1    MUSC   O03Vn       1     -1.05    15.999
   21118      ob       1    MUSC   O03Vo       1     -1.05    15.999
   21119      ob       1    MUSC   O03Vp       1     -1.05    15.999
   21120      ob       1    MUSC   O03Vq       1     -1.05    15.999
   21121      ob       1    MUSC   O03Vr       1     -1.05    15.999
   21122      ob       1    MUSC   O03Vs       1     -1.05    15.999
   21123      ob       1    MUSC   O03Vt       1     -1.05    15.999
   21124      ob       1    MUSC   O03Vu       1     -1.05    15.999
   21125      ob       1    MUSC   O03Vv       1     -1.05    15.999
   21126      ob       1    MUSC   O03Vw       1     -1.05    15.999
   21127      ob       1    MUSC   O03Vx       1     -1.05    15.999
   21128      ob       1    MUSC   O03Vy       1     -1.05    15.999
   21129      ob       1    MUSC   O03Vz       1     -1.05    15.999
   21130      ob       1    MUSC   O03W0       1     -1.05    15.999
   21131      oh       1    MUSC   O03W1       1     -0.95    15.999
   21132      oh       1    MUSC   O03W2       1     -0.95    15.999
   21133      oh       1    MUSC   O03W3       1     -0.95    15.999
   21134      oh       1    MUSC   O03W4       1     -0.95    15.999
   21135      ob       1    MUSC   O03W5       1     -1.05    15.999
   21136      ob       1    MUSC   O03W6       1     -1.05    15.999
   21137      ob       1    MUSC   O03W7       1     -1.05    15.999
   21138      ob       1    MUSC   O03W8       1     -1.05    15.999
   21139      ob       1    MUSC   O03W9       1     -1.05    15.999
   21140      ob       1    MUSC   O03WA       1     -1.05    15.999
   21141      ob       1    MUSC   O03WB       1     -1.05    15.999
   21142      ob       1    MUSC   O03WC       1     -1.05    15.999
   21143      ob       1    MUSC   O03WD       1     -1.05    15.999
   21144      ob       1    MUSC   O03WE       1     -1.05    15.999
   21145      ob       1    MUSC   O03WF       1     -1.05    15.999
   21146      ob       1    MUSC   O03WG       1     -1.05    15.999
   21147      ob       1    MUSC   O03WH       1     -1.05    15.999
   21148      ob       1    MUSC   O03WI       1     -1.05    15.999
   21149      ob       1    MUSC   O03WJ       1     -1.05    15.999
   21150      ob       1    MUSC   O03WK       1     -1.05    15.999
   21151       K       1    MUSC   K00Df       1       1.0    39.098
   21152       K       1    MUSC   K00Dg       1       1.0    39.098
   21153      ao       1    MUSC   Al0aP       1     1.575    26.982
   21154      ao       1    MUSC   Al0aQ       1     1.575    26.982
   21155      ao       1    MUSC   Al0aR       1     1.575    26.982
   21156      ao       1    MUSC   Al0aS       1     1.575    26.982
   21157      ao       1    MUSC   Al0aT       1     1.575    26.982
   21158      ao       1    MUSC   Al0aU       1     1.575    26.982
   21159      ao       1    MUSC   Al0aV       1     1.575    26.982
   21160      ao       1    MUSC   Al0aW       1     1.575    26.982
   21161      st       1    MUSC   Si1An       1       2.1    28.086
   21162      st       1    MUSC   Si1Ao       1       2.1    28.086
   21163      st       1    MUSC   Si1Ap       1       2.1    28.086
   21164      st       1    MUSC   Si1Aq       1       2.1    28.086
   21165      st       1    MUSC   Si1Ar       1       2.1    28.086
   21166      st       1    MUSC   Si1As       1       2.1    28.086
   21167      st       1    MUSC   Si1At       1       2.1    28.086
   21168      st       1    MUSC   Si1Au       1       2.1    28.086
   21169      st       1    MUSC   Si1Av       1       2.1    28.086
   21170      st       1    MUSC   Si1Aw       1       2.1    28.086
   21171      st       1    MUSC   Si1Ax       1       2.1    28.086
   21172      st       1    MUSC   Si1Ay       1       2.1    28.086
   21173      st       1    MUSC   Si1Az       1       2.1    28.086
   21174      st       1    MUSC   Si1B0       1       2.1    28.086
   21175      st       1    MUSC   Si1B1       1       2.1    28.086
   21176      st       1    MUSC   Si1B2       1       2.1    28.086
   21177      ob       1    MUSC   O03WL       1     -1.05    15.999
   21178      ob       1    MUSC   O03WM       1     -1.05    15.999
   21179      ob       1    MUSC   O03WN       1     -1.05    15.999
   21180      ob       1    MUSC   O03WO       1     -1.05    15.999
   21181      oh       1    MUSC   O03WP       1     -0.95    15.999
   21182      oh       1    MUSC   O03WQ       1     -0.95    15.999
   21183      oh       1    MUSC   O03WR       1     -0.95    15.999
   21184      oh       1    MUSC   O03WS       1     -0.95    15.999
   21185      ob       1    MUSC   O03WT       1     -1.05    15.999
   21186      ob       1    MUSC   O03WU       1     -1.05    15.999
   21187      ob       1    MUSC   O03WV       1     -1.05    15.999
   21188      ob       1    MUSC   O03WW       1     -1.05    15.999
   21189      ob       1    MUSC   O03WX       1     -1.05    15.999
   21190      ob       1    MUSC   O03WY       1     -1.05    15.999
   21191      ob       1    MUSC   O03WZ       1     -1.05    15.999
   21192      ob       1    MUSC   O03Wa       1     -1.05    15.999
   21193      ob       1    MUSC   O03Wb       1     -1.05    15.999
   21194      ob       1    MUSC   O03Wc       1     -1.05    15.999
   21195      ob       1    MUSC   O03Wd       1     -1.05    15.999
   21196      ob       1    MUSC   O03We       1     -1.05    15.999
   21197      ob       1    MUSC   O03Wf       1     -1.05    15.999
   21198      ob       1    MUSC   O03Wg       1     -1.05    15.999
   21199      ob       1    MUSC   O03Wh       1     -1.05    15.999
   21200      ob       1    MUSC   O03Wi       1     -1.05    15.999
   21201      ob       1    MUSC   O03Wj       1     -1.05    15.999
   21202      ob       1    MUSC   O03Wk       1     -1.05    15.999
   21203      ob       1    MUSC   O03Wl       1     -1.05    15.999
   21204      ob       1    MUSC   O03Wm       1     -1.05    15.999
   21205      oh       1    MUSC   O03Wn       1     -0.95    15.999
   21206      oh       1    MUSC   O03Wo       1     -0.95    15.999
   21207      oh       1    MUSC   O03Wp       1     -0.95    15.999
   21208      oh       1    MUSC   O03Wq       1     -0.95    15.999
   21209      ob       1    MUSC   O03Wr       1     -1.05    15.999
   21210      ob       1    MUSC   O03Ws       1     -1.05    15.999
   21211      ob       1    MUSC   O03Wt       1     -1.05    15.999
   21212      ob       1    MUSC   O03Wu       1     -1.05    15.999
   21213      ob       1    MUSC   O03Wv       1     -1.05    15.999
   21214      ob       1    MUSC   O03Ww       1     -1.05    15.999
   21215      ob       1    MUSC   O03Wx       1     -1.05    15.999
   21216      ob       1    MUSC   O03Wy       1     -1.05    15.999
   21217      ob       1    MUSC   O03Wz       1     -1.05    15.999
   21218      ob       1    MUSC   O03X0       1     -1.05    15.999
   21219      ob       1    MUSC   O03X1       1     -1.05    15.999
   21220      ob       1    MUSC   O03X2       1     -1.05    15.999
   21221      ob       1    MUSC   O03X3       1     -1.05    15.999
   21222      ob       1    MUSC   O03X4       1     -1.05    15.999
   21223      ob       1    MUSC   O03X5       1     -1.05    15.999
   21224      ob       1    MUSC   O03X6       1     -1.05    15.999
   21225       K       1    MUSC   K00Dh       1       1.0    39.098
   21226       K       1    MUSC   K00Di       1       1.0    39.098
   21227       K       1    MUSC   K00Dj       1       1.0    39.098
   21228       K       1    MUSC   K00Dk       1       1.0    39.098
   21229      ao       1    MUSC   Al0aX       1     1.575    26.982
   21230      ao       1    MUSC   Al0aY       1     1.575    26.982
   21231      ao       1    MUSC   Al0aZ       1     1.575    26.982
   21232      ao       1    MUSC   Al0aa       1     1.575    26.982
   21233      ao       1    MUSC   Al0ab       1     1.575    26.982
   21234      ao       1    MUSC   Al0ac       1     1.575    26.982
   21235      ao       1    MUSC   Al0ad       1     1.575    26.982
   21236      ao       1    MUSC   Al0ae       1     1.575    26.982
   21237      st       1    MUSC   Si1B3       1       2.1    28.086
   21238      st       1    MUSC   Si1B4       1       2.1    28.086
   21239      st       1    MUSC   Si1B5       1       2.1    28.086
   21240      st       1    MUSC   Si1B6       1       2.1    28.086
   21241      st       1    MUSC   Si1B7       1       2.1    28.086
   21242      st       1    MUSC   Si1B8       1       2.1    28.086
   21243      st       1    MUSC   Si1B9       1       2.1    28.086
   21244      st       1    MUSC   Si1BA       1       2.1    28.086
   21245      st       1    MUSC   Si1BB       1       2.1    28.086
   21246      st       1    MUSC   Si1BC       1       2.1    28.086
   21247      st       1    MUSC   Si1BD       1       2.1    28.086
   21248      st       1    MUSC   Si1BE       1       2.1    28.086
   21249      st       1    MUSC   Si1BF       1       2.1    28.086
   21250      st       1    MUSC   Si1BG       1       2.1    28.086
   21251      st       1    MUSC   Si1BH       1       2.1    28.086
   21252      st       1    MUSC   Si1BI       1       2.1    28.086
   21253      ob       1    MUSC   O03X7       1     -1.05    15.999
   21254      ob       1    MUSC   O03X8       1     -1.05    15.999
   21255      ob       1    MUSC   O03X9       1     -1.05    15.999
   21256      ob       1    MUSC   O03XA       1     -1.05    15.999
   21257      oh       1    MUSC   O03XB       1     -0.95    15.999
   21258      oh       1    MUSC   O03XC       1     -0.95    15.999
   21259      oh       1    MUSC   O03XD       1     -0.95    15.999
   21260      oh       1    MUSC   O03XE       1     -0.95    15.999
   21261      ob       1    MUSC   O03XF       1     -1.05    15.999
   21262      ob       1    MUSC   O03XG       1     -1.05    15.999
   21263      ob       1    MUSC   O03XH       1     -1.05    15.999
   21264      ob       1    MUSC   O03XI       1     -1.05    15.999
   21265      ob       1    MUSC   O03XJ       1     -1.05    15.999
   21266      ob       1    MUSC   O03XK       1     -1.05    15.999
   21267      ob       1    MUSC   O03XL       1     -1.05    15.999
   21268      ob       1    MUSC   O03XM       1     -1.05    15.999
   21269      ob       1    MUSC   O03XN       1     -1.05    15.999
   21270      ob       1    MUSC   O03XO       1     -1.05    15.999
   21271      ob       1    MUSC   O03XP       1     -1.05    15.999
   21272      ob       1    MUSC   O03XQ       1     -1.05    15.999
   21273      ob       1    MUSC   O03XR       1     -1.05    15.999
   21274      ob       1    MUSC   O03XS       1     -1.05    15.999
   21275      ob       1    MUSC   O03XT       1     -1.05    15.999
   21276      ob       1    MUSC   O03XU       1     -1.05    15.999
   21277      ob       1    MUSC   O03XV       1     -1.05    15.999
   21278      ob       1    MUSC   O03XW       1     -1.05    15.999
   21279      ob       1    MUSC   O03XX       1     -1.05    15.999
   21280      ob       1    MUSC   O03XY       1     -1.05    15.999
   21281      oh       1    MUSC   O03XZ       1     -0.95    15.999
   21282      oh       1    MUSC   O03Xa       1     -0.95    15.999
   21283      oh       1    MUSC   O03Xb       1     -0.95    15.999
   21284      oh       1    MUSC   O03Xc       1     -0.95    15.999
   21285      ob       1    MUSC   O03Xd       1     -1.05    15.999
   21286      ob       1    MUSC   O03Xe       1     -1.05    15.999
   21287      ob       1    MUSC   O03Xf       1     -1.05    15.999
   21288      ob       1    MUSC   O03Xg       1     -1.05    15.999
   21289      ob       1    MUSC   O03Xh       1     -1.05    15.999
   21290      ob       1    MUSC   O03Xi       1     -1.05    15.999
   21291      ob       1    MUSC   O03Xj       1     -1.05    15.999
   21292      ob       1    MUSC   O03Xk       1     -1.05    15.999
   21293      ob       1    MUSC   O03Xl       1     -1.05    15.999
   21294      ob       1    MUSC   O03Xm       1     -1.05    15.999
   21295      ob       1    MUSC   O03Xn       1     -1.05    15.999
   21296      ob       1    MUSC   O03Xo       1     -1.05    15.999
   21297      ob       1    MUSC   O03Xp       1     -1.05    15.999
   21298      ob       1    MUSC   O03Xq       1     -1.05    15.999
   21299      ob       1    MUSC   O03Xr       1     -1.05    15.999
   21300      ob       1    MUSC   O03Xs       1     -1.05    15.999
   21301       K       1    MUSC   K00Dl       1       1.0    39.098
   21302       K       1    MUSC   K00Dm       1       1.0    39.098
   21303      ao       1    MUSC   Al0af       1     1.575    26.982
   21304      ao       1    MUSC   Al0ag       1     1.575    26.982
   21305      ao       1    MUSC   Al0ah       1     1.575    26.982
   21306      ao       1    MUSC   Al0ai       1     1.575    26.982
   21307      ao       1    MUSC   Al0aj       1     1.575    26.982
   21308      ao       1    MUSC   Al0ak       1     1.575    26.982
   21309      ao       1    MUSC   Al0al       1     1.575    26.982
   21310      ao       1    MUSC   Al0am       1     1.575    26.982
   21311      st       1    MUSC   Si1BJ       1       2.1    28.086
   21312      st       1    MUSC   Si1BK       1       2.1    28.086
   21313      st       1    MUSC   Si1BL       1       2.1    28.086
   21314      st       1    MUSC   Si1BM       1       2.1    28.086
   21315      st       1    MUSC   Si1BN       1       2.1    28.086
   21316      st       1    MUSC   Si1BO       1       2.1    28.086
   21317      st       1    MUSC   Si1BP       1       2.1    28.086
   21318      st       1    MUSC   Si1BQ       1       2.1    28.086
   21319      st       1    MUSC   Si1BR       1       2.1    28.086
   21320      st       1    MUSC   Si1BS       1       2.1    28.086
   21321      st       1    MUSC   Si1BT       1       2.1    28.086
   21322      st       1    MUSC   Si1BU       1       2.1    28.086
   21323      st       1    MUSC   Si1BV       1       2.1    28.086
   21324      st       1    MUSC   Si1BW       1       2.1    28.086
   21325      st       1    MUSC   Si1BX       1       2.1    28.086
   21326      st       1    MUSC   Si1BY       1       2.1    28.086
   21327      ob       1    MUSC   O03Xt       1     -1.05    15.999
   21328      ob       1    MUSC   O03Xu       1     -1.05    15.999
   21329      ob       1    MUSC   O03Xv       1     -1.05    15.999
   21330      ob       1    MUSC   O03Xw       1     -1.05    15.999
   21331      oh       1    MUSC   O03Xx       1     -0.95    15.999
   21332      oh       1    MUSC   O03Xy       1     -0.95    15.999
   21333      oh       1    MUSC   O03Xz       1     -0.95    15.999
   21334      oh       1    MUSC   O03Y0       1     -0.95    15.999
   21335      ob       1    MUSC   O03Y1       1     -1.05    15.999
   21336      ob       1    MUSC   O03Y2       1     -1.05    15.999
   21337      ob       1    MUSC   O03Y3       1     -1.05    15.999
   21338      ob       1    MUSC   O03Y4       1     -1.05    15.999
   21339      ob       1    MUSC   O03Y5       1     -1.05    15.999
   21340      ob       1    MUSC   O03Y6       1     -1.05    15.999
   21341      ob       1    MUSC   O03Y7       1     -1.05    15.999
   21342      ob       1    MUSC   O03Y8       1     -1.05    15.999
   21343      ob       1    MUSC   O03Y9       1     -1.05    15.999
   21344      ob       1    MUSC   O03YA       1     -1.05    15.999
   21345      ob       1    MUSC   O03YB       1     -1.05    15.999
   21346      ob       1    MUSC   O03YC       1     -1.05    15.999
   21347      ob       1    MUSC   O03YD       1     -1.05    15.999
   21348      ob       1    MUSC   O03YE       1     -1.05    15.999
   21349      ob       1    MUSC   O03YF       1     -1.05    15.999
   21350      ob       1    MUSC   O03YG       1     -1.05    15.999
   21351      ob       1    MUSC   O03YH       1     -1.05    15.999
   21352      ob       1    MUSC   O03YI       1     -1.05    15.999
   21353      ob       1    MUSC   O03YJ       1     -1.05    15.999
   21354      ob       1    MUSC   O03YK       1     -1.05    15.999
   21355      oh       1    MUSC   O03YL       1     -0.95    15.999
   21356      oh       1    MUSC   O03YM       1     -0.95    15.999
   21357      oh       1    MUSC   O03YN       1     -0.95    15.999
   21358      oh       1    MUSC   O03YO       1     -0.95    15.999
   21359      ob       1    MUSC   O03YP       1     -1.05    15.999
   21360      ob       1    MUSC   O03YQ       1     -1.05    15.999
   21361      ob       1    MUSC   O03YR       1     -1.05    15.999
   21362      ob       1    MUSC   O03YS       1     -1.05    15.999
   21363      ob       1    MUSC   O03YT       1     -1.05    15.999
   21364      ob       1    MUSC   O03YU       1     -1.05    15.999
   21365      ob       1    MUSC   O03YV       1     -1.05    15.999
   21366      ob       1    MUSC   O03YW       1     -1.05    15.999
   21367      ob       1    MUSC   O03YX       1     -1.05    15.999
   21368      ob       1    MUSC   O03YY       1     -1.05    15.999
   21369      ob       1    MUSC   O03YZ       1     -1.05    15.999
   21370      ob       1    MUSC   O03Ya       1     -1.05    15.999
   21371      ob       1    MUSC   O03Yb       1     -1.05    15.999
   21372      ob       1    MUSC   O03Yc       1     -1.05    15.999
   21373      ob       1    MUSC   O03Yd       1     -1.05    15.999
   21374      ob       1    MUSC   O03Ye       1     -1.05    15.999
   21375       K       1    MUSC   K00Dn       1       1.0    39.098
   21376       K       1    MUSC   K00Do       1       1.0    39.098
   21377       K       1    MUSC   K00Dp       1       1.0    39.098
   21378       K       1    MUSC   K00Dq       1       1.0    39.098
   21379      ao       1    MUSC   Al0an       1     1.575    26.982
   21380      ao       1    MUSC   Al0ao       1     1.575    26.982
   21381      ao       1    MUSC   Al0ap       1     1.575    26.982
   21382      ao       1    MUSC   Al0aq       1     1.575    26.982
   21383      ao       1    MUSC   Al0ar       1     1.575    26.982
   21384      ao       1    MUSC   Al0as       1     1.575    26.982
   21385      ao       1    MUSC   Al0at       1     1.575    26.982
   21386      ao       1    MUSC   Al0au       1     1.575    26.982
   21387      st       1    MUSC   Si1BZ       1       2.1    28.086
   21388      st       1    MUSC   Si1Ba       1       2.1    28.086
   21389      st       1    MUSC   Si1Bb       1       2.1    28.086
   21390      st       1    MUSC   Si1Bc       1       2.1    28.086
   21391      st       1    MUSC   Si1Bd       1       2.1    28.086
   21392      st       1    MUSC   Si1Be       1       2.1    28.086
   21393      st       1    MUSC   Si1Bf       1       2.1    28.086
   21394      st       1    MUSC   Si1Bg       1       2.1    28.086
   21395      st       1    MUSC   Si1Bh       1       2.1    28.086
   21396      st       1    MUSC   Si1Bi       1       2.1    28.086
   21397      st       1    MUSC   Si1Bj       1       2.1    28.086
   21398      st       1    MUSC   Si1Bk       1       2.1    28.086
   21399      st       1    MUSC   Si1Bl       1       2.1    28.086
   21400      st       1    MUSC   Si1Bm       1       2.1    28.086
   21401      st       1    MUSC   Si1Bn       1       2.1    28.086
   21402      st       1    MUSC   Si1Bo       1       2.1    28.086
   21403      ob       1    MUSC   O03Yf       1     -1.05    15.999
   21404      ob       1    MUSC   O03Yg       1     -1.05    15.999
   21405      ob       1    MUSC   O03Yh       1     -1.05    15.999
   21406      ob       1    MUSC   O03Yi       1     -1.05    15.999
   21407      oh       1    MUSC   O03Yj       1     -0.95    15.999
   21408      oh       1    MUSC   O03Yk       1     -0.95    15.999
   21409      oh       1    MUSC   O03Yl       1     -0.95    15.999
   21410      oh       1    MUSC   O03Ym       1     -0.95    15.999
   21411      ob       1    MUSC   O03Yn       1     -1.05    15.999
   21412      ob       1    MUSC   O03Yo       1     -1.05    15.999
   21413      ob       1    MUSC   O03Yp       1     -1.05    15.999
   21414      ob       1    MUSC   O03Yq       1     -1.05    15.999
   21415      ob       1    MUSC   O03Yr       1     -1.05    15.999
   21416      ob       1    MUSC   O03Ys       1     -1.05    15.999
   21417      ob       1    MUSC   O03Yt       1     -1.05    15.999
   21418      ob       1    MUSC   O03Yu       1     -1.05    15.999
   21419      ob       1    MUSC   O03Yv       1     -1.05    15.999
   21420      ob       1    MUSC   O03Yw       1     -1.05    15.999
   21421      ob       1    MUSC   O03Yx       1     -1.05    15.999
   21422      ob       1    MUSC   O03Yy       1     -1.05    15.999
   21423      ob       1    MUSC   O03Yz       1     -1.05    15.999
   21424      ob       1    MUSC   O03Z0       1     -1.05    15.999
   21425      ob       1    MUSC   O03Z1       1     -1.05    15.999
   21426      ob       1    MUSC   O03Z2       1     -1.05    15.999
   21427      ob       1    MUSC   O03Z3       1     -1.05    15.999
   21428      ob       1    MUSC   O03Z4       1     -1.05    15.999
   21429      ob       1    MUSC   O03Z5       1     -1.05    15.999
   21430      ob       1    MUSC   O03Z6       1     -1.05    15.999
   21431      oh       1    MUSC   O03Z7       1     -0.95    15.999
   21432      oh       1    MUSC   O03Z8       1     -0.95    15.999
   21433      oh       1    MUSC   O03Z9       1     -0.95    15.999
   21434      oh       1    MUSC   O03ZA       1     -0.95    15.999
   21435      ob       1    MUSC   O03ZB       1     -1.05    15.999
   21436      ob       1    MUSC   O03ZC       1     -1.05    15.999
   21437      ob       1    MUSC   O03ZD       1     -1.05    15.999
   21438      ob       1    MUSC   O03ZE       1     -1.05    15.999
   21439      ob       1    MUSC   O03ZF       1     -1.05    15.999
   21440      ob       1    MUSC   O03ZG       1     -1.05    15.999
   21441      ob       1    MUSC   O03ZH       1     -1.05    15.999
   21442      ob       1    MUSC   O03ZI       1     -1.05    15.999
   21443      ob       1    MUSC   O03ZJ       1     -1.05    15.999
   21444      ob       1    MUSC   O03ZK       1     -1.05    15.999
   21445      ob       1    MUSC   O03ZL       1     -1.05    15.999
   21446      ob       1    MUSC   O03ZM       1     -1.05    15.999
   21447      ob       1    MUSC   O03ZN       1     -1.05    15.999
   21448      ob       1    MUSC   O03ZO       1     -1.05    15.999
   21449      ob       1    MUSC   O03ZP       1     -1.05    15.999
   21450      ob       1    MUSC   O03ZQ       1     -1.05    15.999
   21451       K       1    MUSC   K00Dr       1       1.0    39.098
   21452       K       1    MUSC   K00Ds       1       1.0    39.098
   21453      ao       1    MUSC   Al0av       1     1.575    26.982
   21454      ao       1    MUSC   Al0aw       1     1.575    26.982
   21455      ao       1    MUSC   Al0ax       1     1.575    26.982
   21456      ao       1    MUSC   Al0ay       1     1.575    26.982
   21457      ao       1    MUSC   Al0az       1     1.575    26.982
   21458      ao       1    MUSC   Al0b0       1     1.575    26.982
   21459      ao       1    MUSC   Al0b1       1     1.575    26.982
   21460      ao       1    MUSC   Al0b2       1     1.575    26.982
   21461      st       1    MUSC   Si1Bp       1       2.1    28.086
   21462      st       1    MUSC   Si1Bq       1       2.1    28.086
   21463      st       1    MUSC   Si1Br       1       2.1    28.086
   21464      st       1    MUSC   Si1Bs       1       2.1    28.086
   21465      st       1    MUSC   Si1Bt       1       2.1    28.086
   21466      st       1    MUSC   Si1Bu       1       2.1    28.086
   21467      st       1    MUSC   Si1Bv       1       2.1    28.086
   21468      st       1    MUSC   Si1Bw       1       2.1    28.086
   21469      st       1    MUSC   Si1Bx       1       2.1    28.086
   21470      st       1    MUSC   Si1By       1       2.1    28.086
   21471      st       1    MUSC   Si1Bz       1       2.1    28.086
   21472      st       1    MUSC   Si1C0       1       2.1    28.086
   21473      st       1    MUSC   Si1C1       1       2.1    28.086
   21474      st       1    MUSC   Si1C2       1       2.1    28.086
   21475      st       1    MUSC   Si1C3       1       2.1    28.086
   21476      st       1    MUSC   Si1C4       1       2.1    28.086
   21477      ob       1    MUSC   O03ZR       1     -1.05    15.999
   21478      ob       1    MUSC   O03ZS       1     -1.05    15.999
   21479      ob       1    MUSC   O03ZT       1     -1.05    15.999
   21480      ob       1    MUSC   O03ZU       1     -1.05    15.999
   21481      oh       1    MUSC   O03ZV       1     -0.95    15.999
   21482      oh       1    MUSC   O03ZW       1     -0.95    15.999
   21483      oh       1    MUSC   O03ZX       1     -0.95    15.999
   21484      oh       1    MUSC   O03ZY       1     -0.95    15.999
   21485      ob       1    MUSC   O03ZZ       1     -1.05    15.999
   21486      ob       1    MUSC   O03Za       1     -1.05    15.999
   21487      ob       1    MUSC   O03Zb       1     -1.05    15.999
   21488      ob       1    MUSC   O03Zc       1     -1.05    15.999
   21489      ob       1    MUSC   O03Zd       1     -1.05    15.999
   21490      ob       1    MUSC   O03Ze       1     -1.05    15.999
   21491      ob       1    MUSC   O03Zf       1     -1.05    15.999
   21492      ob       1    MUSC   O03Zg       1     -1.05    15.999
   21493      ob       1    MUSC   O03Zh       1     -1.05    15.999
   21494      ob       1    MUSC   O03Zi       1     -1.05    15.999
   21495      ob       1    MUSC   O03Zj       1     -1.05    15.999
   21496      ob       1    MUSC   O03Zk       1     -1.05    15.999
   21497      ob       1    MUSC   O03Zl       1     -1.05    15.999
   21498      ob       1    MUSC   O03Zm       1     -1.05    15.999
   21499      ob       1    MUSC   O03Zn       1     -1.05    15.999
   21500      ob       1    MUSC   O03Zo       1     -1.05    15.999
   21501      ob       1    MUSC   O03Zp       1     -1.05    15.999
   21502      ob       1    MUSC   O03Zq       1     -1.05    15.999
   21503      ob       1    MUSC   O03Zr       1     -1.05    15.999
   21504      ob       1    MUSC   O03Zs       1     -1.05    15.999
   21505      oh       1    MUSC   O03Zt       1     -0.95    15.999
   21506      oh       1    MUSC   O03Zu       1     -0.95    15.999
   21507      oh       1    MUSC   O03Zv       1     -0.95    15.999
   21508      oh       1    MUSC   O03Zw       1     -0.95    15.999
   21509      ob       1    MUSC   O03Zx       1     -1.05    15.999
   21510      ob       1    MUSC   O03Zy       1     -1.05    15.999
   21511      ob       1    MUSC   O03Zz       1     -1.05    15.999
   21512      ob       1    MUSC   O03a0       1     -1.05    15.999
   21513      ob       1    MUSC   O03a1       1     -1.05    15.999
   21514      ob       1    MUSC   O03a2       1     -1.05    15.999
   21515      ob       1    MUSC   O03a3       1     -1.05    15.999
   21516      ob       1    MUSC   O03a4       1     -1.05    15.999
   21517      ob       1    MUSC   O03a5       1     -1.05    15.999
   21518      ob       1    MUSC   O03a6       1     -1.05    15.999
   21519      ob       1    MUSC   O03a7       1     -1.05    15.999
   21520      ob       1    MUSC   O03a8       1     -1.05    15.999
   21521      ob       1    MUSC   O03a9       1     -1.05    15.999
   21522      ob       1    MUSC   O03aA       1     -1.05    15.999
   21523      ob       1    MUSC   O03aB       1     -1.05    15.999
   21524      ob       1    MUSC   O03aC       1     -1.05    15.999
   21525       K       1    MUSC   K00Dt       1       1.0    39.098
   21526       K       1    MUSC   K00Du       1       1.0    39.098
   21527       K       1    MUSC   K00Dv       1       1.0    39.098
   21528       K       1    MUSC   K00Dw       1       1.0    39.098
   21529      ao       1    MUSC   Al0b3       1     1.575    26.982
   21530      ao       1    MUSC   Al0b4       1     1.575    26.982
   21531      ao       1    MUSC   Al0b5       1     1.575    26.982
   21532      ao       1    MUSC   Al0b6       1     1.575    26.982
   21533      ao       1    MUSC   Al0b7       1     1.575    26.982
   21534      ao       1    MUSC   Al0b8       1     1.575    26.982
   21535      ao       1    MUSC   Al0b9       1     1.575    26.982
   21536      ao       1    MUSC   Al0bA       1     1.575    26.982
   21537      st       1    MUSC   Si1C5       1       2.1    28.086
   21538      st       1    MUSC   Si1C6       1       2.1    28.086
   21539      st       1    MUSC   Si1C7       1       2.1    28.086
   21540      st       1    MUSC   Si1C8       1       2.1    28.086
   21541      st       1    MUSC   Si1C9       1       2.1    28.086
   21542      st       1    MUSC   Si1CA       1       2.1    28.086
   21543      st       1    MUSC   Si1CB       1       2.1    28.086
   21544      st       1    MUSC   Si1CC       1       2.1    28.086
   21545      st       1    MUSC   Si1CD       1       2.1    28.086
   21546      st       1    MUSC   Si1CE       1       2.1    28.086
   21547      st       1    MUSC   Si1CF       1       2.1    28.086
   21548      st       1    MUSC   Si1CG       1       2.1    28.086
   21549      st       1    MUSC   Si1CH       1       2.1    28.086
   21550      st       1    MUSC   Si1CI       1       2.1    28.086
   21551      st       1    MUSC   Si1CJ       1       2.1    28.086
   21552      st       1    MUSC   Si1CK       1       2.1    28.086
   21553      ob       1    MUSC   O03aD       1     -1.05    15.999
   21554      ob       1    MUSC   O03aE       1     -1.05    15.999
   21555      ob       1    MUSC   O03aF       1     -1.05    15.999
   21556      ob       1    MUSC   O03aG       1     -1.05    15.999
   21557      oh       1    MUSC   O03aH       1     -0.95    15.999
   21558      oh       1    MUSC   O03aI       1     -0.95    15.999
   21559      oh       1    MUSC   O03aJ       1     -0.95    15.999
   21560      oh       1    MUSC   O03aK       1     -0.95    15.999
   21561      ob       1    MUSC   O03aL       1     -1.05    15.999
   21562      ob       1    MUSC   O03aM       1     -1.05    15.999
   21563      ob       1    MUSC   O03aN       1     -1.05    15.999
   21564      ob       1    MUSC   O03aO       1     -1.05    15.999
   21565      ob       1    MUSC   O03aP       1     -1.05    15.999
   21566      ob       1    MUSC   O03aQ       1     -1.05    15.999
   21567      ob       1    MUSC   O03aR       1     -1.05    15.999
   21568      ob       1    MUSC   O03aS       1     -1.05    15.999
   21569      ob       1    MUSC   O03aT       1     -1.05    15.999
   21570      ob       1    MUSC   O03aU       1     -1.05    15.999
   21571      ob       1    MUSC   O03aV       1     -1.05    15.999
   21572      ob       1    MUSC   O03aW       1     -1.05    15.999
   21573      ob       1    MUSC   O03aX       1     -1.05    15.999
   21574      ob       1    MUSC   O03aY       1     -1.05    15.999
   21575      ob       1    MUSC   O03aZ       1     -1.05    15.999
   21576      ob       1    MUSC   O03aa       1     -1.05    15.999
   21577      ob       1    MUSC   O03ab       1     -1.05    15.999
   21578      ob       1    MUSC   O03ac       1     -1.05    15.999
   21579      ob       1    MUSC   O03ad       1     -1.05    15.999
   21580      ob       1    MUSC   O03ae       1     -1.05    15.999
   21581      oh       1    MUSC   O03af       1     -0.95    15.999
   21582      oh       1    MUSC   O03ag       1     -0.95    15.999
   21583      oh       1    MUSC   O03ah       1     -0.95    15.999
   21584      oh       1    MUSC   O03ai       1     -0.95    15.999
   21585      ob       1    MUSC   O03aj       1     -1.05    15.999
   21586      ob       1    MUSC   O03ak       1     -1.05    15.999
   21587      ob       1    MUSC   O03al       1     -1.05    15.999
   21588      ob       1    MUSC   O03am       1     -1.05    15.999
   21589      ob       1    MUSC   O03an       1     -1.05    15.999
   21590      ob       1    MUSC   O03ao       1     -1.05    15.999
   21591      ob       1    MUSC   O03ap       1     -1.05    15.999
   21592      ob       1    MUSC   O03aq       1     -1.05    15.999
   21593      ob       1    MUSC   O03ar       1     -1.05    15.999
   21594      ob       1    MUSC   O03as       1     -1.05    15.999
   21595      ob       1    MUSC   O03at       1     -1.05    15.999
   21596      ob       1    MUSC   O03au       1     -1.05    15.999
   21597      ob       1    MUSC   O03av       1     -1.05    15.999
   21598      ob       1    MUSC   O03aw       1     -1.05    15.999
   21599      ob       1    MUSC   O03ax       1     -1.05    15.999
   21600      ob       1    MUSC   O03ay       1     -1.05    15.999
   21601       K       1    MUSC   K00Dx       1       1.0    39.098
   21602       K       1    MUSC   K00Dy       1       1.0    39.098
   21603      ao       1    MUSC   Al0bB       1     1.575    26.982
   21604      ao       1    MUSC   Al0bC       1     1.575    26.982
   21605      ao       1    MUSC   Al0bD       1     1.575    26.982
   21606      ao       1    MUSC   Al0bE       1     1.575    26.982
   21607      ao       1    MUSC   Al0bF       1     1.575    26.982
   21608      ao       1    MUSC   Al0bG       1     1.575    26.982
   21609      ao       1    MUSC   Al0bH       1     1.575    26.982
   21610      ao       1    MUSC   Al0bI       1     1.575    26.982
   21611      st       1    MUSC   Si1CL       1       2.1    28.086
   21612      st       1    MUSC   Si1CM       1       2.1    28.086
   21613      st       1    MUSC   Si1CN       1       2.1    28.086
   21614      st       1    MUSC   Si1CO       1       2.1    28.086
   21615      st       1    MUSC   Si1CP       1       2.1    28.086
   21616      st       1    MUSC   Si1CQ       1       2.1    28.086
   21617      st       1    MUSC   Si1CR       1       2.1    28.086
   21618      st       1    MUSC   Si1CS       1       2.1    28.086
   21619      st       1    MUSC   Si1CT       1       2.1    28.086
   21620      st       1    MUSC   Si1CU       1       2.1    28.086
   21621      st       1    MUSC   Si1CV       1       2.1    28.086
   21622      st       1    MUSC   Si1CW       1       2.1    28.086
   21623      st       1    MUSC   Si1CX       1       2.1    28.086
   21624      st       1    MUSC   Si1CY       1       2.1    28.086
   21625      st       1    MUSC   Si1CZ       1       2.1    28.086
   21626      st       1    MUSC   Si1Ca       1       2.1    28.086
   21627      ob       1    MUSC   O03az       1     -1.05    15.999
   21628      ob       1    MUSC   O03b0       1     -1.05    15.999
   21629      ob       1    MUSC   O03b1       1     -1.05    15.999
   21630      ob       1    MUSC   O03b2       1     -1.05    15.999
   21631      oh       1    MUSC   O03b3       1     -0.95    15.999
   21632      oh       1    MUSC   O03b4       1     -0.95    15.999
   21633      oh       1    MUSC   O03b5       1     -0.95    15.999
   21634      oh       1    MUSC   O03b6       1     -0.95    15.999
   21635      ob       1    MUSC   O03b7       1     -1.05    15.999
   21636      ob       1    MUSC   O03b8       1     -1.05    15.999
   21637      ob       1    MUSC   O03b9       1     -1.05    15.999
   21638      ob       1    MUSC   O03bA       1     -1.05    15.999
   21639      ob       1    MUSC   O03bB       1     -1.05    15.999
   21640      ob       1    MUSC   O03bC       1     -1.05    15.999
   21641      ob       1    MUSC   O03bD       1     -1.05    15.999
   21642      ob       1    MUSC   O03bE       1     -1.05    15.999
   21643      ob       1    MUSC   O03bF       1     -1.05    15.999
   21644      ob       1    MUSC   O03bG       1     -1.05    15.999
   21645      ob       1    MUSC   O03bH       1     -1.05    15.999
   21646      ob       1    MUSC   O03bI       1     -1.05    15.999
   21647      ob       1    MUSC   O03bJ       1     -1.05    15.999
   21648      ob       1    MUSC   O03bK       1     -1.05    15.999
   21649      ob       1    MUSC   O03bL       1     -1.05    15.999
   21650      ob       1    MUSC   O03bM       1     -1.05    15.999
   21651      ob       1    MUSC   O03bN       1     -1.05    15.999
   21652      ob       1    MUSC   O03bO       1     -1.05    15.999
   21653      ob       1    MUSC   O03bP       1     -1.05    15.999
   21654      ob       1    MUSC   O03bQ       1     -1.05    15.999
   21655      oh       1    MUSC   O03bR       1     -0.95    15.999
   21656      oh       1    MUSC   O03bS       1     -0.95    15.999
   21657      oh       1    MUSC   O03bT       1     -0.95    15.999
   21658      oh       1    MUSC   O03bU       1     -0.95    15.999
   21659      ob       1    MUSC   O03bV       1     -1.05    15.999
   21660      ob       1    MUSC   O03bW       1     -1.05    15.999
   21661      ob       1    MUSC   O03bX       1     -1.05    15.999
   21662      ob       1    MUSC   O03bY       1     -1.05    15.999
   21663      ob       1    MUSC   O03bZ       1     -1.05    15.999
   21664      ob       1    MUSC   O03ba       1     -1.05    15.999
   21665      ob       1    MUSC   O03bb       1     -1.05    15.999
   21666      ob       1    MUSC   O03bc       1     -1.05    15.999
   21667      ob       1    MUSC   O03bd       1     -1.05    15.999
   21668      ob       1    MUSC   O03be       1     -1.05    15.999
   21669      ob       1    MUSC   O03bf       1     -1.05    15.999
   21670      ob       1    MUSC   O03bg       1     -1.05    15.999
   21671      ob       1    MUSC   O03bh       1     -1.05    15.999
   21672      ob       1    MUSC   O03bi       1     -1.05    15.999
   21673      ob       1    MUSC   O03bj       1     -1.05    15.999
   21674      ob       1    MUSC   O03bk       1     -1.05    15.999
   21675       K       1    MUSC   K00Dz       1       1.0    39.098
   21676       K       1    MUSC   K00E0       1       1.0    39.098
   21677       K       1    MUSC   K00E1       1       1.0    39.098
   21678       K       1    MUSC   K00E2       1       1.0    39.098
   21679      ao       1    MUSC   Al0bJ       1     1.575    26.982
   21680      ao       1    MUSC   Al0bK       1     1.575    26.982
   21681      ao       1    MUSC   Al0bL       1     1.575    26.982
   21682      ao       1    MUSC   Al0bM       1     1.575    26.982
   21683      ao       1    MUSC   Al0bN       1     1.575    26.982
   21684      ao       1    MUSC   Al0bO       1     1.575    26.982
   21685      ao       1    MUSC   Al0bP       1     1.575    26.982
   21686      ao       1    MUSC   Al0bQ       1     1.575    26.982
   21687      st       1    MUSC   Si1Cb       1       2.1    28.086
   21688      st       1    MUSC   Si1Cc       1       2.1    28.086
   21689      st       1    MUSC   Si1Cd       1       2.1    28.086
   21690      st       1    MUSC   Si1Ce       1       2.1    28.086
   21691      st       1    MUSC   Si1Cf       1       2.1    28.086
   21692      st       1    MUSC   Si1Cg       1       2.1    28.086
   21693      st       1    MUSC   Si1Ch       1       2.1    28.086
   21694      st       1    MUSC   Si1Ci       1       2.1    28.086
   21695      st       1    MUSC   Si1Cj       1       2.1    28.086
   21696      st       1    MUSC   Si1Ck       1       2.1    28.086
   21697      st       1    MUSC   Si1Cl       1       2.1    28.086
   21698      st       1    MUSC   Si1Cm       1       2.1    28.086
   21699      st       1    MUSC   Si1Cn       1       2.1    28.086
   21700      st       1    MUSC   Si1Co       1       2.1    28.086
   21701      st       1    MUSC   Si1Cp       1       2.1    28.086
   21702      st       1    MUSC   Si1Cq       1       2.1    28.086
   21703      ob       1    MUSC   O03bl       1     -1.05    15.999
   21704      ob       1    MUSC   O03bm       1     -1.05    15.999
   21705      ob       1    MUSC   O03bn       1     -1.05    15.999
   21706      ob       1    MUSC   O03bo       1     -1.05    15.999
   21707      oh       1    MUSC   O03bp       1     -0.95    15.999
   21708      oh       1    MUSC   O03bq       1     -0.95    15.999
   21709      oh       1    MUSC   O03br       1     -0.95    15.999
   21710      oh       1    MUSC   O03bs       1     -0.95    15.999
   21711      ob       1    MUSC   O03bt       1     -1.05    15.999
   21712      ob       1    MUSC   O03bu       1     -1.05    15.999
   21713      ob       1    MUSC   O03bv       1     -1.05    15.999
   21714      ob       1    MUSC   O03bw       1     -1.05    15.999
   21715      ob       1    MUSC   O03bx       1     -1.05    15.999
   21716      ob       1    MUSC   O03by       1     -1.05    15.999
   21717      ob       1    MUSC   O03bz       1     -1.05    15.999
   21718      ob       1    MUSC   O03c0       1     -1.05    15.999
   21719      ob       1    MUSC   O03c1       1     -1.05    15.999
   21720      ob       1    MUSC   O03c2       1     -1.05    15.999
   21721      ob       1    MUSC   O03c3       1     -1.05    15.999
   21722      ob       1    MUSC   O03c4       1     -1.05    15.999
   21723      ob       1    MUSC   O03c5       1     -1.05    15.999
   21724      ob       1    MUSC   O03c6       1     -1.05    15.999
   21725      ob       1    MUSC   O03c7       1     -1.05    15.999
   21726      ob       1    MUSC   O03c8       1     -1.05    15.999
   21727      ob       1    MUSC   O03c9       1     -1.05    15.999
   21728      ob       1    MUSC   O03cA       1     -1.05    15.999
   21729      ob       1    MUSC   O03cB       1     -1.05    15.999
   21730      ob       1    MUSC   O03cC       1     -1.05    15.999
   21731      oh       1    MUSC   O03cD       1     -0.95    15.999
   21732      oh       1    MUSC   O03cE       1     -0.95    15.999
   21733      oh       1    MUSC   O03cF       1     -0.95    15.999
   21734      oh       1    MUSC   O03cG       1     -0.95    15.999
   21735      ob       1    MUSC   O03cH       1     -1.05    15.999
   21736      ob       1    MUSC   O03cI       1     -1.05    15.999
   21737      ob       1    MUSC   O03cJ       1     -1.05    15.999
   21738      ob       1    MUSC   O03cK       1     -1.05    15.999
   21739      ob       1    MUSC   O03cL       1     -1.05    15.999
   21740      ob       1    MUSC   O03cM       1     -1.05    15.999
   21741      ob       1    MUSC   O03cN       1     -1.05    15.999
   21742      ob       1    MUSC   O03cO       1     -1.05    15.999
   21743      ob       1    MUSC   O03cP       1     -1.05    15.999
   21744      ob       1    MUSC   O03cQ       1     -1.05    15.999
   21745      ob       1    MUSC   O03cR       1     -1.05    15.999
   21746      ob       1    MUSC   O03cS       1     -1.05    15.999
   21747      ob       1    MUSC   O03cT       1     -1.05    15.999
   21748      ob       1    MUSC   O03cU       1     -1.05    15.999
   21749      ob       1    MUSC   O03cV       1     -1.05    15.999
   21750      ob       1    MUSC   O03cW       1     -1.05    15.999
   21751       K       1    MUSC   K00E3       1       1.0    39.098
   21752       K       1    MUSC   K00E4       1       1.0    39.098
   21753      ao       1    MUSC   Al0bR       1     1.575    26.982
   21754      ao       1    MUSC   Al0bS       1     1.575    26.982
   21755      ao       1    MUSC   Al0bT       1     1.575    26.982
   21756      ao       1    MUSC   Al0bU       1     1.575    26.982
   21757      ao       1    MUSC   Al0bV       1     1.575    26.982
   21758      ao       1    MUSC   Al0bW       1     1.575    26.982
   21759      ao       1    MUSC   Al0bX       1     1.575    26.982
   21760      ao       1    MUSC   Al0bY       1     1.575    26.982
   21761      st       1    MUSC   Si1Cr       1       2.1    28.086
   21762      st       1    MUSC   Si1Cs       1       2.1    28.086
   21763      st       1    MUSC   Si1Ct       1       2.1    28.086
   21764      st       1    MUSC   Si1Cu       1       2.1    28.086
   21765      st       1    MUSC   Si1Cv       1       2.1    28.086
   21766      st       1    MUSC   Si1Cw       1       2.1    28.086
   21767      st       1    MUSC   Si1Cx       1       2.1    28.086
   21768      st       1    MUSC   Si1Cy       1       2.1    28.086
   21769      st       1    MUSC   Si1Cz       1       2.1    28.086
   21770      st       1    MUSC   Si1D0       1       2.1    28.086
   21771      st       1    MUSC   Si1D1       1       2.1    28.086
   21772      st       1    MUSC   Si1D2       1       2.1    28.086
   21773      st       1    MUSC   Si1D3       1       2.1    28.086
   21774      st       1    MUSC   Si1D4       1       2.1    28.086
   21775      st       1    MUSC   Si1D5       1       2.1    28.086
   21776      st       1    MUSC   Si1D6       1       2.1    28.086
   21777      ob       1    MUSC   O03cX       1     -1.05    15.999
   21778      ob       1    MUSC   O03cY       1     -1.05    15.999
   21779      ob       1    MUSC   O03cZ       1     -1.05    15.999
   21780      ob       1    MUSC   O03ca       1     -1.05    15.999
   21781      oh       1    MUSC   O03cb       1     -0.95    15.999
   21782      oh       1    MUSC   O03cc       1     -0.95    15.999
   21783      oh       1    MUSC   O03cd       1     -0.95    15.999
   21784      oh       1    MUSC   O03ce       1     -0.95    15.999
   21785      ob       1    MUSC   O03cf       1     -1.05    15.999
   21786      ob       1    MUSC   O03cg       1     -1.05    15.999
   21787      ob       1    MUSC   O03ch       1     -1.05    15.999
   21788      ob       1    MUSC   O03ci       1     -1.05    15.999
   21789      ob       1    MUSC   O03cj       1     -1.05    15.999
   21790      ob       1    MUSC   O03ck       1     -1.05    15.999
   21791      ob       1    MUSC   O03cl       1     -1.05    15.999
   21792      ob       1    MUSC   O03cm       1     -1.05    15.999
   21793      ob       1    MUSC   O03cn       1     -1.05    15.999
   21794      ob       1    MUSC   O03co       1     -1.05    15.999
   21795      ob       1    MUSC   O03cp       1     -1.05    15.999
   21796      ob       1    MUSC   O03cq       1     -1.05    15.999
   21797      ob       1    MUSC   O03cr       1     -1.05    15.999
   21798      ob       1    MUSC   O03cs       1     -1.05    15.999
   21799      ob       1    MUSC   O03ct       1     -1.05    15.999
   21800      ob       1    MUSC   O03cu       1     -1.05    15.999
   21801      ob       1    MUSC   O03cv       1     -1.05    15.999
   21802      ob       1    MUSC   O03cw       1     -1.05    15.999
   21803      ob       1    MUSC   O03cx       1     -1.05    15.999
   21804      ob       1    MUSC   O03cy       1     -1.05    15.999
   21805      oh       1    MUSC   O03cz       1     -0.95    15.999
   21806      oh       1    MUSC   O03d0       1     -0.95    15.999
   21807      oh       1    MUSC   O03d1       1     -0.95    15.999
   21808      oh       1    MUSC   O03d2       1     -0.95    15.999
   21809      ob       1    MUSC   O03d3       1     -1.05    15.999
   21810      ob       1    MUSC   O03d4       1     -1.05    15.999
   21811      ob       1    MUSC   O03d5       1     -1.05    15.999
   21812      ob       1    MUSC   O03d6       1     -1.05    15.999
   21813      ob       1    MUSC   O03d7       1     -1.05    15.999
   21814      ob       1    MUSC   O03d8       1     -1.05    15.999
   21815      ob       1    MUSC   O03d9       1     -1.05    15.999
   21816      ob       1    MUSC   O03dA       1     -1.05    15.999
   21817      ob       1    MUSC   O03dB       1     -1.05    15.999
   21818      ob       1    MUSC   O03dC       1     -1.05    15.999
   21819      ob       1    MUSC   O03dD       1     -1.05    15.999
   21820      ob       1    MUSC   O03dE       1     -1.05    15.999
   21821      ob       1    MUSC   O03dF       1     -1.05    15.999
   21822      ob       1    MUSC   O03dG       1     -1.05    15.999
   21823      ob       1    MUSC   O03dH       1     -1.05    15.999
   21824      ob       1    MUSC   O03dI       1     -1.05    15.999
   21825       K       1    MUSC   K00E5       1       1.0    39.098
   21826       K       1    MUSC   K00E6       1       1.0    39.098
   21827       K       1    MUSC   K00E7       1       1.0    39.098
   21828       K       1    MUSC   K00E8       1       1.0    39.098
   21829      ao       1    MUSC   Al0bZ       1     1.575    26.982
   21830      ao       1    MUSC   Al0ba       1     1.575    26.982
   21831      ao       1    MUSC   Al0bb       1     1.575    26.982
   21832      ao       1    MUSC   Al0bc       1     1.575    26.982
   21833      ao       1    MUSC   Al0bd       1     1.575    26.982
   21834      ao       1    MUSC   Al0be       1     1.575    26.982
   21835      ao       1    MUSC   Al0bf       1     1.575    26.982
   21836      ao       1    MUSC   Al0bg       1     1.575    26.982
   21837      st       1    MUSC   Si1D7       1       2.1    28.086
   21838      st       1    MUSC   Si1D8       1       2.1    28.086
   21839      st       1    MUSC   Si1D9       1       2.1    28.086
   21840      st       1    MUSC   Si1DA       1       2.1    28.086
   21841      st       1    MUSC   Si1DB       1       2.1    28.086
   21842      st       1    MUSC   Si1DC       1       2.1    28.086
   21843      st       1    MUSC   Si1DD       1       2.1    28.086
   21844      st       1    MUSC   Si1DE       1       2.1    28.086
   21845      st       1    MUSC   Si1DF       1       2.1    28.086
   21846      st       1    MUSC   Si1DG       1       2.1    28.086
   21847      st       1    MUSC   Si1DH       1       2.1    28.086
   21848      st       1    MUSC   Si1DI       1       2.1    28.086
   21849      st       1    MUSC   Si1DJ       1       2.1    28.086
   21850      st       1    MUSC   Si1DK       1       2.1    28.086
   21851      st       1    MUSC   Si1DL       1       2.1    28.086
   21852      st       1    MUSC   Si1DM       1       2.1    28.086
   21853      ob       1    MUSC   O03dJ       1     -1.05    15.999
   21854      ob       1    MUSC   O03dK       1     -1.05    15.999
   21855      ob       1    MUSC   O03dL       1     -1.05    15.999
   21856      ob       1    MUSC   O03dM       1     -1.05    15.999
   21857      oh       1    MUSC   O03dN       1     -0.95    15.999
   21858      oh       1    MUSC   O03dO       1     -0.95    15.999
   21859      oh       1    MUSC   O03dP       1     -0.95    15.999
   21860      oh       1    MUSC   O03dQ       1     -0.95    15.999
   21861      ob       1    MUSC   O03dR       1     -1.05    15.999
   21862      ob       1    MUSC   O03dS       1     -1.05    15.999
   21863      ob       1    MUSC   O03dT       1     -1.05    15.999
   21864      ob       1    MUSC   O03dU       1     -1.05    15.999
   21865      ob       1    MUSC   O03dV       1     -1.05    15.999
   21866      ob       1    MUSC   O03dW       1     -1.05    15.999
   21867      ob       1    MUSC   O03dX       1     -1.05    15.999
   21868      ob       1    MUSC   O03dY       1     -1.05    15.999
   21869      ob       1    MUSC   O03dZ       1     -1.05    15.999
   21870      ob       1    MUSC   O03da       1     -1.05    15.999
   21871      ob       1    MUSC   O03db       1     -1.05    15.999
   21872      ob       1    MUSC   O03dc       1     -1.05    15.999
   21873      ob       1    MUSC   O03dd       1     -1.05    15.999
   21874      ob       1    MUSC   O03de       1     -1.05    15.999
   21875      ob       1    MUSC   O03df       1     -1.05    15.999
   21876      ob       1    MUSC   O03dg       1     -1.05    15.999
   21877      ob       1    MUSC   O03dh       1     -1.05    15.999
   21878      ob       1    MUSC   O03di       1     -1.05    15.999
   21879      ob       1    MUSC   O03dj       1     -1.05    15.999
   21880      ob       1    MUSC   O03dk       1     -1.05    15.999
   21881      oh       1    MUSC   O03dl       1     -0.95    15.999
   21882      oh       1    MUSC   O03dm       1     -0.95    15.999
   21883      oh       1    MUSC   O03dn       1     -0.95    15.999
   21884      oh       1    MUSC   O03do       1     -0.95    15.999
   21885      ob       1    MUSC   O03dp       1     -1.05    15.999
   21886      ob       1    MUSC   O03dq       1     -1.05    15.999
   21887      ob       1    MUSC   O03dr       1     -1.05    15.999
   21888      ob       1    MUSC   O03ds       1     -1.05    15.999
   21889      ob       1    MUSC   O03dt       1     -1.05    15.999
   21890      ob       1    MUSC   O03du       1     -1.05    15.999
   21891      ob       1    MUSC   O03dv       1     -1.05    15.999
   21892      ob       1    MUSC   O03dw       1     -1.05    15.999
   21893      ob       1    MUSC   O03dx       1     -1.05    15.999
   21894      ob       1    MUSC   O03dy       1     -1.05    15.999
   21895      ob       1    MUSC   O03dz       1     -1.05    15.999
   21896      ob       1    MUSC   O03e0       1     -1.05    15.999
   21897      ob       1    MUSC   O03e1       1     -1.05    15.999
   21898      ob       1    MUSC   O03e2       1     -1.05    15.999
   21899      ob       1    MUSC   O03e3       1     -1.05    15.999
   21900      ob       1    MUSC   O03e4       1     -1.05    15.999
   21901       K       1    MUSC   K00E9       1       1.0    39.098
   21902       K       1    MUSC   K00EA       1       1.0    39.098
   21903      ao       1    MUSC   Al0bh       1     1.575    26.982
   21904      ao       1    MUSC   Al0bi       1     1.575    26.982
   21905      ao       1    MUSC   Al0bj       1     1.575    26.982
   21906      ao       1    MUSC   Al0bk       1     1.575    26.982
   21907      ao       1    MUSC   Al0bl       1     1.575    26.982
   21908      ao       1    MUSC   Al0bm       1     1.575    26.982
   21909      ao       1    MUSC   Al0bn       1     1.575    26.982
   21910      ao       1    MUSC   Al0bo       1     1.575    26.982
   21911      st       1    MUSC   Si1DN       1       2.1    28.086
   21912      st       1    MUSC   Si1DO       1       2.1    28.086
   21913      st       1    MUSC   Si1DP       1       2.1    28.086
   21914      st       1    MUSC   Si1DQ       1       2.1    28.086
   21915      st       1    MUSC   Si1DR       1       2.1    28.086
   21916      st       1    MUSC   Si1DS       1       2.1    28.086
   21917      st       1    MUSC   Si1DT       1       2.1    28.086
   21918      st       1    MUSC   Si1DU       1       2.1    28.086
   21919      st       1    MUSC   Si1DV       1       2.1    28.086
   21920      st       1    MUSC   Si1DW       1       2.1    28.086
   21921      st       1    MUSC   Si1DX       1       2.1    28.086
   21922      st       1    MUSC   Si1DY       1       2.1    28.086
   21923      st       1    MUSC   Si1DZ       1       2.1    28.086
   21924      st       1    MUSC   Si1Da       1       2.1    28.086
   21925      st       1    MUSC   Si1Db       1       2.1    28.086
   21926      st       1    MUSC   Si1Dc       1       2.1    28.086
   21927      ob       1    MUSC   O03e5       1     -1.05    15.999
   21928      ob       1    MUSC   O03e6       1     -1.05    15.999
   21929      ob       1    MUSC   O03e7       1     -1.05    15.999
   21930      ob       1    MUSC   O03e8       1     -1.05    15.999
   21931      oh       1    MUSC   O03e9       1     -0.95    15.999
   21932      oh       1    MUSC   O03eA       1     -0.95    15.999
   21933      oh       1    MUSC   O03eB       1     -0.95    15.999
   21934      oh       1    MUSC   O03eC       1     -0.95    15.999
   21935      ob       1    MUSC   O03eD       1     -1.05    15.999
   21936      ob       1    MUSC   O03eE       1     -1.05    15.999
   21937      ob       1    MUSC   O03eF       1     -1.05    15.999
   21938      ob       1    MUSC   O03eG       1     -1.05    15.999
   21939      ob       1    MUSC   O03eH       1     -1.05    15.999
   21940      ob       1    MUSC   O03eI       1     -1.05    15.999
   21941      ob       1    MUSC   O03eJ       1     -1.05    15.999
   21942      ob       1    MUSC   O03eK       1     -1.05    15.999
   21943      ob       1    MUSC   O03eL       1     -1.05    15.999
   21944      ob       1    MUSC   O03eM       1     -1.05    15.999
   21945      ob       1    MUSC   O03eN       1     -1.05    15.999
   21946      ob       1    MUSC   O03eO       1     -1.05    15.999
   21947      ob       1    MUSC   O03eP       1     -1.05    15.999
   21948      ob       1    MUSC   O03eQ       1     -1.05    15.999
   21949      ob       1    MUSC   O03eR       1     -1.05    15.999
   21950      ob       1    MUSC   O03eS       1     -1.05    15.999
   21951      ob       1    MUSC   O03eT       1     -1.05    15.999
   21952      ob       1    MUSC   O03eU       1     -1.05    15.999
   21953      ob       1    MUSC   O03eV       1     -1.05    15.999
   21954      ob       1    MUSC   O03eW       1     -1.05    15.999
   21955      oh       1    MUSC   O03eX       1     -0.95    15.999
   21956      oh       1    MUSC   O03eY       1     -0.95    15.999
   21957      oh       1    MUSC   O03eZ       1     -0.95    15.999
   21958      oh       1    MUSC   O03ea       1     -0.95    15.999
   21959      ob       1    MUSC   O03eb       1     -1.05    15.999
   21960      ob       1    MUSC   O03ec       1     -1.05    15.999
   21961      ob       1    MUSC   O03ed       1     -1.05    15.999
   21962      ob       1    MUSC   O03ee       1     -1.05    15.999
   21963      ob       1    MUSC   O03ef       1     -1.05    15.999
   21964      ob       1    MUSC   O03eg       1     -1.05    15.999
   21965      ob       1    MUSC   O03eh       1     -1.05    15.999
   21966      ob       1    MUSC   O03ei       1     -1.05    15.999
   21967      ob       1    MUSC   O03ej       1     -1.05    15.999
   21968      ob       1    MUSC   O03ek       1     -1.05    15.999
   21969      ob       1    MUSC   O03el       1     -1.05    15.999
   21970      ob       1    MUSC   O03em       1     -1.05    15.999
   21971      ob       1    MUSC   O03en       1     -1.05    15.999
   21972      ob       1    MUSC   O03eo       1     -1.05    15.999
   21973      ob       1    MUSC   O03ep       1     -1.05    15.999
   21974      ob       1    MUSC   O03eq       1     -1.05    15.999
   21975       K       1    MUSC   K00EB       1       1.0    39.098
   21976       K       1    MUSC   K00EC       1       1.0    39.098
   21977       K       1    MUSC   K00ED       1       1.0    39.098
   21978       K       1    MUSC   K00EE       1       1.0    39.098
   21979      ao       1    MUSC   Al0bp       1     1.575    26.982
   21980      ao       1    MUSC   Al0bq       1     1.575    26.982
   21981      ao       1    MUSC   Al0br       1     1.575    26.982
   21982      ao       1    MUSC   Al0bs       1     1.575    26.982
   21983      ao       1    MUSC   Al0bt       1     1.575    26.982
   21984      ao       1    MUSC   Al0bu       1     1.575    26.982
   21985      ao       1    MUSC   Al0bv       1     1.575    26.982
   21986      ao       1    MUSC   Al0bw       1     1.575    26.982
   21987      st       1    MUSC   Si1Dd       1       2.1    28.086
   21988      st       1    MUSC   Si1De       1       2.1    28.086
   21989      st       1    MUSC   Si1Df       1       2.1    28.086
   21990      st       1    MUSC   Si1Dg       1       2.1    28.086
   21991      st       1    MUSC   Si1Dh       1       2.1    28.086
   21992      st       1    MUSC   Si1Di       1       2.1    28.086
   21993      st       1    MUSC   Si1Dj       1       2.1    28.086
   21994      st       1    MUSC   Si1Dk       1       2.1    28.086
   21995      st       1    MUSC   Si1Dl       1       2.1    28.086
   21996      st       1    MUSC   Si1Dm       1       2.1    28.086
   21997      st       1    MUSC   Si1Dn       1       2.1    28.086
   21998      st       1    MUSC   Si1Do       1       2.1    28.086
   21999      st       1    MUSC   Si1Dp       1       2.1    28.086
   22000      st       1    MUSC   Si1Dq       1       2.1    28.086
   22001      st       1    MUSC   Si1Dr       1       2.1    28.086
   22002      st       1    MUSC   Si1Ds       1       2.1    28.086
   22003      ob       1    MUSC   O03er       1     -1.05    15.999
   22004      ob       1    MUSC   O03es       1     -1.05    15.999
   22005      ob       1    MUSC   O03et       1     -1.05    15.999
   22006      ob       1    MUSC   O03eu       1     -1.05    15.999
   22007      oh       1    MUSC   O03ev       1     -0.95    15.999
   22008      oh       1    MUSC   O03ew       1     -0.95    15.999
   22009      oh       1    MUSC   O03ex       1     -0.95    15.999
   22010      oh       1    MUSC   O03ey       1     -0.95    15.999
   22011      ob       1    MUSC   O03ez       1     -1.05    15.999
   22012      ob       1    MUSC   O03f0       1     -1.05    15.999
   22013      ob       1    MUSC   O03f1       1     -1.05    15.999
   22014      ob       1    MUSC   O03f2       1     -1.05    15.999
   22015      ob       1    MUSC   O03f3       1     -1.05    15.999
   22016      ob       1    MUSC   O03f4       1     -1.05    15.999
   22017      ob       1    MUSC   O03f5       1     -1.05    15.999
   22018      ob       1    MUSC   O03f6       1     -1.05    15.999
   22019      ob       1    MUSC   O03f7       1     -1.05    15.999
   22020      ob       1    MUSC   O03f8       1     -1.05    15.999
   22021      ob       1    MUSC   O03f9       1     -1.05    15.999
   22022      ob       1    MUSC   O03fA       1     -1.05    15.999
   22023      ob       1    MUSC   O03fB       1     -1.05    15.999
   22024      ob       1    MUSC   O03fC       1     -1.05    15.999
   22025      ob       1    MUSC   O03fD       1     -1.05    15.999
   22026      ob       1    MUSC   O03fE       1     -1.05    15.999
   22027      ob       1    MUSC   O03fF       1     -1.05    15.999
   22028      ob       1    MUSC   O03fG       1     -1.05    15.999
   22029      ob       1    MUSC   O03fH       1     -1.05    15.999
   22030      ob       1    MUSC   O03fI       1     -1.05    15.999
   22031      oh       1    MUSC   O03fJ       1     -0.95    15.999
   22032      oh       1    MUSC   O03fK       1     -0.95    15.999
   22033      oh       1    MUSC   O03fL       1     -0.95    15.999
   22034      oh       1    MUSC   O03fM       1     -0.95    15.999
   22035      ob       1    MUSC   O03fN       1     -1.05    15.999
   22036      ob       1    MUSC   O03fO       1     -1.05    15.999
   22037      ob       1    MUSC   O03fP       1     -1.05    15.999
   22038      ob       1    MUSC   O03fQ       1     -1.05    15.999
   22039      ob       1    MUSC   O03fR       1     -1.05    15.999
   22040      ob       1    MUSC   O03fS       1     -1.05    15.999
   22041      ob       1    MUSC   O03fT       1     -1.05    15.999
   22042      ob       1    MUSC   O03fU       1     -1.05    15.999
   22043      ob       1    MUSC   O03fV       1     -1.05    15.999
   22044      ob       1    MUSC   O03fW       1     -1.05    15.999
   22045      ob       1    MUSC   O03fX       1     -1.05    15.999
   22046      ob       1    MUSC   O03fY       1     -1.05    15.999
   22047      ob       1    MUSC   O03fZ       1     -1.05    15.999
   22048      ob       1    MUSC   O03fa       1     -1.05    15.999
   22049      ob       1    MUSC   O03fb       1     -1.05    15.999
   22050      ob       1    MUSC   O03fc       1     -1.05    15.999
   22051       K       1    MUSC   K00EF       1       1.0    39.098
   22052       K       1    MUSC   K00EG       1       1.0    39.098
   22053      ao       1    MUSC   Al0bx       1     1.575    26.982
   22054      ao       1    MUSC   Al0by       1     1.575    26.982
   22055      ao       1    MUSC   Al0bz       1     1.575    26.982
   22056      ao       1    MUSC   Al0c0       1     1.575    26.982
   22057      ao       1    MUSC   Al0c1       1     1.575    26.982
   22058      ao       1    MUSC   Al0c2       1     1.575    26.982
   22059      ao       1    MUSC   Al0c3       1     1.575    26.982
   22060      ao       1    MUSC   Al0c4       1     1.575    26.982
   22061      st       1    MUSC   Si1Dt       1       2.1    28.086
   22062      st       1    MUSC   Si1Du       1       2.1    28.086
   22063      st       1    MUSC   Si1Dv       1       2.1    28.086
   22064      st       1    MUSC   Si1Dw       1       2.1    28.086
   22065      st       1    MUSC   Si1Dx       1       2.1    28.086
   22066      st       1    MUSC   Si1Dy       1       2.1    28.086
   22067      st       1    MUSC   Si1Dz       1       2.1    28.086
   22068      st       1    MUSC   Si1E0       1       2.1    28.086
   22069      st       1    MUSC   Si1E1       1       2.1    28.086
   22070      st       1    MUSC   Si1E2       1       2.1    28.086
   22071      st       1    MUSC   Si1E3       1       2.1    28.086
   22072      st       1    MUSC   Si1E4       1       2.1    28.086
   22073      st       1    MUSC   Si1E5       1       2.1    28.086
   22074      st       1    MUSC   Si1E6       1       2.1    28.086
   22075      st       1    MUSC   Si1E7       1       2.1    28.086
   22076      st       1    MUSC   Si1E8       1       2.1    28.086
   22077      ob       1    MUSC   O03fd       1     -1.05    15.999
   22078      ob       1    MUSC   O03fe       1     -1.05    15.999
   22079      ob       1    MUSC   O03ff       1     -1.05    15.999
   22080      ob       1    MUSC   O03fg       1     -1.05    15.999
   22081      oh       1    MUSC   O03fh       1     -0.95    15.999
   22082      oh       1    MUSC   O03fi       1     -0.95    15.999
   22083      oh       1    MUSC   O03fj       1     -0.95    15.999
   22084      oh       1    MUSC   O03fk       1     -0.95    15.999
   22085      ob       1    MUSC   O03fl       1     -1.05    15.999
   22086      ob       1    MUSC   O03fm       1     -1.05    15.999
   22087      ob       1    MUSC   O03fn       1     -1.05    15.999
   22088      ob       1    MUSC   O03fo       1     -1.05    15.999
   22089      ob       1    MUSC   O03fp       1     -1.05    15.999
   22090      ob       1    MUSC   O03fq       1     -1.05    15.999
   22091      ob       1    MUSC   O03fr       1     -1.05    15.999
   22092      ob       1    MUSC   O03fs       1     -1.05    15.999
   22093      ob       1    MUSC   O03ft       1     -1.05    15.999
   22094      ob       1    MUSC   O03fu       1     -1.05    15.999
   22095      ob       1    MUSC   O03fv       1     -1.05    15.999
   22096      ob       1    MUSC   O03fw       1     -1.05    15.999
   22097      ob       1    MUSC   O03fx       1     -1.05    15.999
   22098      ob       1    MUSC   O03fy       1     -1.05    15.999
   22099      ob       1    MUSC   O03fz       1     -1.05    15.999
   22100      ob       1    MUSC   O03g0       1     -1.05    15.999
   22101      ob       1    MUSC   O03g1       1     -1.05    15.999
   22102      ob       1    MUSC   O03g2       1     -1.05    15.999
   22103      ob       1    MUSC   O03g3       1     -1.05    15.999
   22104      ob       1    MUSC   O03g4       1     -1.05    15.999
   22105      oh       1    MUSC   O03g5       1     -0.95    15.999
   22106      oh       1    MUSC   O03g6       1     -0.95    15.999
   22107      oh       1    MUSC   O03g7       1     -0.95    15.999
   22108      oh       1    MUSC   O03g8       1     -0.95    15.999
   22109      ob       1    MUSC   O03g9       1     -1.05    15.999
   22110      ob       1    MUSC   O03gA       1     -1.05    15.999
   22111      ob       1    MUSC   O03gB       1     -1.05    15.999
   22112      ob       1    MUSC   O03gC       1     -1.05    15.999
   22113      ob       1    MUSC   O03gD       1     -1.05    15.999
   22114      ob       1    MUSC   O03gE       1     -1.05    15.999
   22115      ob       1    MUSC   O03gF       1     -1.05    15.999
   22116      ob       1    MUSC   O03gG       1     -1.05    15.999
   22117      ob       1    MUSC   O03gH       1     -1.05    15.999
   22118      ob       1    MUSC   O03gI       1     -1.05    15.999
   22119      ob       1    MUSC   O03gJ       1     -1.05    15.999
   22120      ob       1    MUSC   O03gK       1     -1.05    15.999
   22121      ob       1    MUSC   O03gL       1     -1.05    15.999
   22122      ob       1    MUSC   O03gM       1     -1.05    15.999
   22123      ob       1    MUSC   O03gN       1     -1.05    15.999
   22124      ob       1    MUSC   O03gO       1     -1.05    15.999
   22125       K       1    MUSC   K00EH       1       1.0    39.098
   22126       K       1    MUSC   K00EI       1       1.0    39.098
   22127       K       1    MUSC   K00EJ       1       1.0    39.098
   22128       K       1    MUSC   K00EK       1       1.0    39.098
   22129      ao       1    MUSC   Al0c5       1     1.575    26.982
   22130      ao       1    MUSC   Al0c6       1     1.575    26.982
   22131      ao       1    MUSC   Al0c7       1     1.575    26.982
   22132      ao       1    MUSC   Al0c8       1     1.575    26.982
   22133      ao       1    MUSC   Al0c9       1     1.575    26.982
   22134      ao       1    MUSC   Al0cA       1     1.575    26.982
   22135      ao       1    MUSC   Al0cB       1     1.575    26.982
   22136      ao       1    MUSC   Al0cC       1     1.575    26.982
   22137      st       1    MUSC   Si1E9       1       2.1    28.086
   22138      st       1    MUSC   Si1EA       1       2.1    28.086
   22139      st       1    MUSC   Si1EB       1       2.1    28.086
   22140      st       1    MUSC   Si1EC       1       2.1    28.086
   22141      st       1    MUSC   Si1ED       1       2.1    28.086
   22142      st       1    MUSC   Si1EE       1       2.1    28.086
   22143      st       1    MUSC   Si1EF       1       2.1    28.086
   22144      st       1    MUSC   Si1EG       1       2.1    28.086
   22145      st       1    MUSC   Si1EH       1       2.1    28.086
   22146      st       1    MUSC   Si1EI       1       2.1    28.086
   22147      st       1    MUSC   Si1EJ       1       2.1    28.086
   22148      st       1    MUSC   Si1EK       1       2.1    28.086
   22149      st       1    MUSC   Si1EL       1       2.1    28.086
   22150      st       1    MUSC   Si1EM       1       2.1    28.086
   22151      st       1    MUSC   Si1EN       1       2.1    28.086
   22152      st       1    MUSC   Si1EO       1       2.1    28.086
   22153      ob       1    MUSC   O03gP       1     -1.05    15.999
   22154      ob       1    MUSC   O03gQ       1     -1.05    15.999
   22155      ob       1    MUSC   O03gR       1     -1.05    15.999
   22156      ob       1    MUSC   O03gS       1     -1.05    15.999
   22157      oh       1    MUSC   O03gT       1     -0.95    15.999
   22158      oh       1    MUSC   O03gU       1     -0.95    15.999
   22159      oh       1    MUSC   O03gV       1     -0.95    15.999
   22160      oh       1    MUSC   O03gW       1     -0.95    15.999
   22161      ob       1    MUSC   O03gX       1     -1.05    15.999
   22162      ob       1    MUSC   O03gY       1     -1.05    15.999
   22163      ob       1    MUSC   O03gZ       1     -1.05    15.999
   22164      ob       1    MUSC   O03ga       1     -1.05    15.999
   22165      ob       1    MUSC   O03gb       1     -1.05    15.999
   22166      ob       1    MUSC   O03gc       1     -1.05    15.999
   22167      ob       1    MUSC   O03gd       1     -1.05    15.999
   22168      ob       1    MUSC   O03ge       1     -1.05    15.999
   22169      ob       1    MUSC   O03gf       1     -1.05    15.999
   22170      ob       1    MUSC   O03gg       1     -1.05    15.999
   22171      ob       1    MUSC   O03gh       1     -1.05    15.999
   22172      ob       1    MUSC   O03gi       1     -1.05    15.999
   22173      ob       1    MUSC   O03gj       1     -1.05    15.999
   22174      ob       1    MUSC   O03gk       1     -1.05    15.999
   22175      ob       1    MUSC   O03gl       1     -1.05    15.999
   22176      ob       1    MUSC   O03gm       1     -1.05    15.999
   22177      ob       1    MUSC   O03gn       1     -1.05    15.999
   22178      ob       1    MUSC   O03go       1     -1.05    15.999
   22179      ob       1    MUSC   O03gp       1     -1.05    15.999
   22180      ob       1    MUSC   O03gq       1     -1.05    15.999
   22181      oh       1    MUSC   O03gr       1     -0.95    15.999
   22182      oh       1    MUSC   O03gs       1     -0.95    15.999
   22183      oh       1    MUSC   O03gt       1     -0.95    15.999
   22184      oh       1    MUSC   O03gu       1     -0.95    15.999
   22185      ob       1    MUSC   O03gv       1     -1.05    15.999
   22186      ob       1    MUSC   O03gw       1     -1.05    15.999
   22187      ob       1    MUSC   O03gx       1     -1.05    15.999
   22188      ob       1    MUSC   O03gy       1     -1.05    15.999
   22189      ob       1    MUSC   O03gz       1     -1.05    15.999
   22190      ob       1    MUSC   O03h0       1     -1.05    15.999
   22191      ob       1    MUSC   O03h1       1     -1.05    15.999
   22192      ob       1    MUSC   O03h2       1     -1.05    15.999
   22193      ob       1    MUSC   O03h3       1     -1.05    15.999
   22194      ob       1    MUSC   O03h4       1     -1.05    15.999
   22195      ob       1    MUSC   O03h5       1     -1.05    15.999
   22196      ob       1    MUSC   O03h6       1     -1.05    15.999
   22197      ob       1    MUSC   O03h7       1     -1.05    15.999
   22198      ob       1    MUSC   O03h8       1     -1.05    15.999
   22199      ob       1    MUSC   O03h9       1     -1.05    15.999
   22200      ob       1    MUSC   O03hA       1     -1.05    15.999
   22201       K       1    MUSC   K00EL       1       1.0    39.098
   22202       K       1    MUSC   K00EM       1       1.0    39.098
   22203      ao       1    MUSC   Al0cD       1     1.575    26.982
   22204      ao       1    MUSC   Al0cE       1     1.575    26.982
   22205      ao       1    MUSC   Al0cF       1     1.575    26.982
   22206      ao       1    MUSC   Al0cG       1     1.575    26.982
   22207      ao       1    MUSC   Al0cH       1     1.575    26.982
   22208      ao       1    MUSC   Al0cI       1     1.575    26.982
   22209      ao       1    MUSC   Al0cJ       1     1.575    26.982
   22210      ao       1    MUSC   Al0cK       1     1.575    26.982
   22211      st       1    MUSC   Si1EP       1       2.1    28.086
   22212      st       1    MUSC   Si1EQ       1       2.1    28.086
   22213      st       1    MUSC   Si1ER       1       2.1    28.086
   22214      st       1    MUSC   Si1ES       1       2.1    28.086
   22215      st       1    MUSC   Si1ET       1       2.1    28.086
   22216      st       1    MUSC   Si1EU       1       2.1    28.086
   22217      st       1    MUSC   Si1EV       1       2.1    28.086
   22218      st       1    MUSC   Si1EW       1       2.1    28.086
   22219      st       1    MUSC   Si1EX       1       2.1    28.086
   22220      st       1    MUSC   Si1EY       1       2.1    28.086
   22221      st       1    MUSC   Si1EZ       1       2.1    28.086
   22222      st       1    MUSC   Si1Ea       1       2.1    28.086
   22223      st       1    MUSC   Si1Eb       1       2.1    28.086
   22224      st       1    MUSC   Si1Ec       1       2.1    28.086
   22225      st       1    MUSC   Si1Ed       1       2.1    28.086
   22226      st       1    MUSC   Si1Ee       1       2.1    28.086
   22227      ob       1    MUSC   O03hB       1     -1.05    15.999
   22228      ob       1    MUSC   O03hC       1     -1.05    15.999
   22229      ob       1    MUSC   O03hD       1     -1.05    15.999
   22230      ob       1    MUSC   O03hE       1     -1.05    15.999
   22231      oh       1    MUSC   O03hF       1     -0.95    15.999
   22232      oh       1    MUSC   O03hG       1     -0.95    15.999
   22233      oh       1    MUSC   O03hH       1     -0.95    15.999
   22234      oh       1    MUSC   O03hI       1     -0.95    15.999
   22235      ob       1    MUSC   O03hJ       1     -1.05    15.999
   22236      ob       1    MUSC   O03hK       1     -1.05    15.999
   22237      ob       1    MUSC   O03hL       1     -1.05    15.999
   22238      ob       1    MUSC   O03hM       1     -1.05    15.999
   22239      ob       1    MUSC   O03hN       1     -1.05    15.999
   22240      ob       1    MUSC   O03hO       1     -1.05    15.999
   22241      ob       1    MUSC   O03hP       1     -1.05    15.999
   22242      ob       1    MUSC   O03hQ       1     -1.05    15.999
   22243      ob       1    MUSC   O03hR       1     -1.05    15.999
   22244      ob       1    MUSC   O03hS       1     -1.05    15.999
   22245      ob       1    MUSC   O03hT       1     -1.05    15.999
   22246      ob       1    MUSC   O03hU       1     -1.05    15.999
   22247      ob       1    MUSC   O03hV       1     -1.05    15.999
   22248      ob       1    MUSC   O03hW       1     -1.05    15.999
   22249      ob       1    MUSC   O03hX       1     -1.05    15.999
   22250      ob       1    MUSC   O03hY       1     -1.05    15.999
   22251      ob       1    MUSC   O03hZ       1     -1.05    15.999
   22252      ob       1    MUSC   O03ha       1     -1.05    15.999
   22253      ob       1    MUSC   O03hb       1     -1.05    15.999
   22254      ob       1    MUSC   O03hc       1     -1.05    15.999
   22255      oh       1    MUSC   O03hd       1     -0.95    15.999
   22256      oh       1    MUSC   O03he       1     -0.95    15.999
   22257      oh       1    MUSC   O03hf       1     -0.95    15.999
   22258      oh       1    MUSC   O03hg       1     -0.95    15.999
   22259      ob       1    MUSC   O03hh       1     -1.05    15.999
   22260      ob       1    MUSC   O03hi       1     -1.05    15.999
   22261      ob       1    MUSC   O03hj       1     -1.05    15.999
   22262      ob       1    MUSC   O03hk       1     -1.05    15.999
   22263      ob       1    MUSC   O03hl       1     -1.05    15.999
   22264      ob       1    MUSC   O03hm       1     -1.05    15.999
   22265      ob       1    MUSC   O03hn       1     -1.05    15.999
   22266      ob       1    MUSC   O03ho       1     -1.05    15.999
   22267      ob       1    MUSC   O03hp       1     -1.05    15.999
   22268      ob       1    MUSC   O03hq       1     -1.05    15.999
   22269      ob       1    MUSC   O03hr       1     -1.05    15.999
   22270      ob       1    MUSC   O03hs       1     -1.05    15.999
   22271      ob       1    MUSC   O03ht       1     -1.05    15.999
   22272      ob       1    MUSC   O03hu       1     -1.05    15.999
   22273      ob       1    MUSC   O03hv       1     -1.05    15.999
   22274      ob       1    MUSC   O03hw       1     -1.05    15.999
   22275       K       1    MUSC   K00EN       1       1.0    39.098
   22276       K       1    MUSC   K00EO       1       1.0    39.098
   22277       K       1    MUSC   K00EP       1       1.0    39.098
   22278       K       1    MUSC   K00EQ       1       1.0    39.098
   22279      ao       1    MUSC   Al0cL       1     1.575    26.982
   22280      ao       1    MUSC   Al0cM       1     1.575    26.982
   22281      ao       1    MUSC   Al0cN       1     1.575    26.982
   22282      ao       1    MUSC   Al0cO       1     1.575    26.982
   22283      ao       1    MUSC   Al0cP       1     1.575    26.982
   22284      ao       1    MUSC   Al0cQ       1     1.575    26.982
   22285      ao       1    MUSC   Al0cR       1     1.575    26.982
   22286      ao       1    MUSC   Al0cS       1     1.575    26.982
   22287      st       1    MUSC   Si1Ef       1       2.1    28.086
   22288      st       1    MUSC   Si1Eg       1       2.1    28.086
   22289      st       1    MUSC   Si1Eh       1       2.1    28.086
   22290      st       1    MUSC   Si1Ei       1       2.1    28.086
   22291      st       1    MUSC   Si1Ej       1       2.1    28.086
   22292      st       1    MUSC   Si1Ek       1       2.1    28.086
   22293      st       1    MUSC   Si1El       1       2.1    28.086
   22294      st       1    MUSC   Si1Em       1       2.1    28.086
   22295      st       1    MUSC   Si1En       1       2.1    28.086
   22296      st       1    MUSC   Si1Eo       1       2.1    28.086
   22297      st       1    MUSC   Si1Ep       1       2.1    28.086
   22298      st       1    MUSC   Si1Eq       1       2.1    28.086
   22299      st       1    MUSC   Si1Er       1       2.1    28.086
   22300      st       1    MUSC   Si1Es       1       2.1    28.086
   22301      st       1    MUSC   Si1Et       1       2.1    28.086
   22302      st       1    MUSC   Si1Eu       1       2.1    28.086
   22303      ob       1    MUSC   O03hx       1     -1.05    15.999
   22304      ob       1    MUSC   O03hy       1     -1.05    15.999
   22305      ob       1    MUSC   O03hz       1     -1.05    15.999
   22306      ob       1    MUSC   O03i0       1     -1.05    15.999
   22307      oh       1    MUSC   O03i1       1     -0.95    15.999
   22308      oh       1    MUSC   O03i2       1     -0.95    15.999
   22309      oh       1    MUSC   O03i3       1     -0.95    15.999
   22310      oh       1    MUSC   O03i4       1     -0.95    15.999
   22311      ob       1    MUSC   O03i5       1     -1.05    15.999
   22312      ob       1    MUSC   O03i6       1     -1.05    15.999
   22313      ob       1    MUSC   O03i7       1     -1.05    15.999
   22314      ob       1    MUSC   O03i8       1     -1.05    15.999
   22315      ob       1    MUSC   O03i9       1     -1.05    15.999
   22316      ob       1    MUSC   O03iA       1     -1.05    15.999
   22317      ob       1    MUSC   O03iB       1     -1.05    15.999
   22318      ob       1    MUSC   O03iC       1     -1.05    15.999
   22319      ob       1    MUSC   O03iD       1     -1.05    15.999
   22320      ob       1    MUSC   O03iE       1     -1.05    15.999
   22321      ob       1    MUSC   O03iF       1     -1.05    15.999
   22322      ob       1    MUSC   O03iG       1     -1.05    15.999
   22323      ob       1    MUSC   O03iH       1     -1.05    15.999
   22324      ob       1    MUSC   O03iI       1     -1.05    15.999
   22325      ob       1    MUSC   O03iJ       1     -1.05    15.999
   22326      ob       1    MUSC   O03iK       1     -1.05    15.999
   22327      ob       1    MUSC   O03iL       1     -1.05    15.999
   22328      ob       1    MUSC   O03iM       1     -1.05    15.999
   22329      ob       1    MUSC   O03iN       1     -1.05    15.999
   22330      ob       1    MUSC   O03iO       1     -1.05    15.999
   22331      oh       1    MUSC   O03iP       1     -0.95    15.999
   22332      oh       1    MUSC   O03iQ       1     -0.95    15.999
   22333      oh       1    MUSC   O03iR       1     -0.95    15.999
   22334      oh       1    MUSC   O03iS       1     -0.95    15.999
   22335      ob       1    MUSC   O03iT       1     -1.05    15.999
   22336      ob       1    MUSC   O03iU       1     -1.05    15.999
   22337      ob       1    MUSC   O03iV       1     -1.05    15.999
   22338      ob       1    MUSC   O03iW       1     -1.05    15.999
   22339      ob       1    MUSC   O03iX       1     -1.05    15.999
   22340      ob       1    MUSC   O03iY       1     -1.05    15.999
   22341      ob       1    MUSC   O03iZ       1     -1.05    15.999
   22342      ob       1    MUSC   O03ia       1     -1.05    15.999
   22343      ob       1    MUSC   O03ib       1     -1.05    15.999
   22344      ob       1    MUSC   O03ic       1     -1.05    15.999
   22345      ob       1    MUSC   O03id       1     -1.05    15.999
   22346      ob       1    MUSC   O03ie       1     -1.05    15.999
   22347      ob       1    MUSC   O03if       1     -1.05    15.999
   22348      ob       1    MUSC   O03ig       1     -1.05    15.999
   22349      ob       1    MUSC   O03ih       1     -1.05    15.999
   22350      ob       1    MUSC   O03ii       1     -1.05    15.999
   22351       K       1    MUSC   K00ER       1       1.0    39.098
   22352       K       1    MUSC   K00ES       1       1.0    39.098
   22353      ao       1    MUSC   Al0cT       1     1.575    26.982
   22354      ao       1    MUSC   Al0cU       1     1.575    26.982
   22355      ao       1    MUSC   Al0cV       1     1.575    26.982
   22356      ao       1    MUSC   Al0cW       1     1.575    26.982
   22357      ao       1    MUSC   Al0cX       1     1.575    26.982
   22358      ao       1    MUSC   Al0cY       1     1.575    26.982
   22359      ao       1    MUSC   Al0cZ       1     1.575    26.982
   22360      ao       1    MUSC   Al0ca       1     1.575    26.982
   22361      st       1    MUSC   Si1Ev       1       2.1    28.086
   22362      st       1    MUSC   Si1Ew       1       2.1    28.086
   22363      st       1    MUSC   Si1Ex       1       2.1    28.086
   22364      st       1    MUSC   Si1Ey       1       2.1    28.086
   22365      st       1    MUSC   Si1Ez       1       2.1    28.086
   22366      st       1    MUSC   Si1F0       1       2.1    28.086
   22367      st       1    MUSC   Si1F1       1       2.1    28.086
   22368      st       1    MUSC   Si1F2       1       2.1    28.086
   22369      st       1    MUSC   Si1F3       1       2.1    28.086
   22370      st       1    MUSC   Si1F4       1       2.1    28.086
   22371      st       1    MUSC   Si1F5       1       2.1    28.086
   22372      st       1    MUSC   Si1F6       1       2.1    28.086
   22373      st       1    MUSC   Si1F7       1       2.1    28.086
   22374      st       1    MUSC   Si1F8       1       2.1    28.086
   22375      st       1    MUSC   Si1F9       1       2.1    28.086
   22376      st       1    MUSC   Si1FA       1       2.1    28.086
   22377      ob       1    MUSC   O03ij       1     -1.05    15.999
   22378      ob       1    MUSC   O03ik       1     -1.05    15.999
   22379      ob       1    MUSC   O03il       1     -1.05    15.999
   22380      ob       1    MUSC   O03im       1     -1.05    15.999
   22381      oh       1    MUSC   O03in       1     -0.95    15.999
   22382      oh       1    MUSC   O03io       1     -0.95    15.999
   22383      oh       1    MUSC   O03ip       1     -0.95    15.999
   22384      oh       1    MUSC   O03iq       1     -0.95    15.999
   22385      ob       1    MUSC   O03ir       1     -1.05    15.999
   22386      ob       1    MUSC   O03is       1     -1.05    15.999
   22387      ob       1    MUSC   O03it       1     -1.05    15.999
   22388      ob       1    MUSC   O03iu       1     -1.05    15.999
   22389      ob       1    MUSC   O03iv       1     -1.05    15.999
   22390      ob       1    MUSC   O03iw       1     -1.05    15.999
   22391      ob       1    MUSC   O03ix       1     -1.05    15.999
   22392      ob       1    MUSC   O03iy       1     -1.05    15.999
   22393      ob       1    MUSC   O03iz       1     -1.05    15.999
   22394      ob       1    MUSC   O03j0       1     -1.05    15.999
   22395      ob       1    MUSC   O03j1       1     -1.05    15.999
   22396      ob       1    MUSC   O03j2       1     -1.05    15.999
   22397      ob       1    MUSC   O03j3       1     -1.05    15.999
   22398      ob       1    MUSC   O03j4       1     -1.05    15.999
   22399      ob       1    MUSC   O03j5       1     -1.05    15.999
   22400      ob       1    MUSC   O03j6       1     -1.05    15.999
   22401      ob       1    MUSC   O03j7       1     -1.05    15.999
   22402      ob       1    MUSC   O03j8       1     -1.05    15.999
   22403      ob       1    MUSC   O03j9       1     -1.05    15.999
   22404      ob       1    MUSC   O03jA       1     -1.05    15.999
   22405      oh       1    MUSC   O03jB       1     -0.95    15.999
   22406      oh       1    MUSC   O03jC       1     -0.95    15.999
   22407      oh       1    MUSC   O03jD       1     -0.95    15.999
   22408      oh       1    MUSC   O03jE       1     -0.95    15.999
   22409      ob       1    MUSC   O03jF       1     -1.05    15.999
   22410      ob       1    MUSC   O03jG       1     -1.05    15.999
   22411      ob       1    MUSC   O03jH       1     -1.05    15.999
   22412      ob       1    MUSC   O03jI       1     -1.05    15.999
   22413      ob       1    MUSC   O03jJ       1     -1.05    15.999
   22414      ob       1    MUSC   O03jK       1     -1.05    15.999
   22415      ob       1    MUSC   O03jL       1     -1.05    15.999
   22416      ob       1    MUSC   O03jM       1     -1.05    15.999
   22417      ob       1    MUSC   O03jN       1     -1.05    15.999
   22418      ob       1    MUSC   O03jO       1     -1.05    15.999
   22419      ob       1    MUSC   O03jP       1     -1.05    15.999
   22420      ob       1    MUSC   O03jQ       1     -1.05    15.999
   22421      ob       1    MUSC   O03jR       1     -1.05    15.999
   22422      ob       1    MUSC   O03jS       1     -1.05    15.999
   22423      ob       1    MUSC   O03jT       1     -1.05    15.999
   22424      ob       1    MUSC   O03jU       1     -1.05    15.999
   22425       K       1    MUSC   K00ET       1       1.0    39.098
   22426       K       1    MUSC   K00EU       1       1.0    39.098
   22427       K       1    MUSC   K00EV       1       1.0    39.098
   22428       K       1    MUSC   K00EW       1       1.0    39.098
   22429      ao       1    MUSC   Al0cb       1     1.575    26.982
   22430      ao       1    MUSC   Al0cc       1     1.575    26.982
   22431      ao       1    MUSC   Al0cd       1     1.575    26.982
   22432      ao       1    MUSC   Al0ce       1     1.575    26.982
   22433      ao       1    MUSC   Al0cf       1     1.575    26.982
   22434      ao       1    MUSC   Al0cg       1     1.575    26.982
   22435      ao       1    MUSC   Al0ch       1     1.575    26.982
   22436      ao       1    MUSC   Al0ci       1     1.575    26.982
   22437      st       1    MUSC   Si1FB       1       2.1    28.086
   22438      st       1    MUSC   Si1FC       1       2.1    28.086
   22439      st       1    MUSC   Si1FD       1       2.1    28.086
   22440      st       1    MUSC   Si1FE       1       2.1    28.086
   22441      st       1    MUSC   Si1FF       1       2.1    28.086
   22442      st       1    MUSC   Si1FG       1       2.1    28.086
   22443      st       1    MUSC   Si1FH       1       2.1    28.086
   22444      st       1    MUSC   Si1FI       1       2.1    28.086
   22445      st       1    MUSC   Si1FJ       1       2.1    28.086
   22446      st       1    MUSC   Si1FK       1       2.1    28.086
   22447      st       1    MUSC   Si1FL       1       2.1    28.086
   22448      st       1    MUSC   Si1FM       1       2.1    28.086
   22449      st       1    MUSC   Si1FN       1       2.1    28.086
   22450      st       1    MUSC   Si1FO       1       2.1    28.086
   22451      st       1    MUSC   Si1FP       1       2.1    28.086
   22452      st       1    MUSC   Si1FQ       1       2.1    28.086
   22453      ob       1    MUSC   O03jV       1     -1.05    15.999
   22454      ob       1    MUSC   O03jW       1     -1.05    15.999
   22455      ob       1    MUSC   O03jX       1     -1.05    15.999
   22456      ob       1    MUSC   O03jY       1     -1.05    15.999
   22457      oh       1    MUSC   O03jZ       1     -0.95    15.999
   22458      oh       1    MUSC   O03ja       1     -0.95    15.999
   22459      oh       1    MUSC   O03jb       1     -0.95    15.999
   22460      oh       1    MUSC   O03jc       1     -0.95    15.999
   22461      ob       1    MUSC   O03jd       1     -1.05    15.999
   22462      ob       1    MUSC   O03je       1     -1.05    15.999
   22463      ob       1    MUSC   O03jf       1     -1.05    15.999
   22464      ob       1    MUSC   O03jg       1     -1.05    15.999
   22465      ob       1    MUSC   O03jh       1     -1.05    15.999
   22466      ob       1    MUSC   O03ji       1     -1.05    15.999
   22467      ob       1    MUSC   O03jj       1     -1.05    15.999
   22468      ob       1    MUSC   O03jk       1     -1.05    15.999
   22469      ob       1    MUSC   O03jl       1     -1.05    15.999
   22470      ob       1    MUSC   O03jm       1     -1.05    15.999
   22471      ob       1    MUSC   O03jn       1     -1.05    15.999
   22472      ob       1    MUSC   O03jo       1     -1.05    15.999
   22473      ob       1    MUSC   O03jp       1     -1.05    15.999
   22474      ob       1    MUSC   O03jq       1     -1.05    15.999
   22475      ob       1    MUSC   O03jr       1     -1.05    15.999
   22476      ob       1    MUSC   O03js       1     -1.05    15.999
   22477      ob       1    MUSC   O03jt       1     -1.05    15.999
   22478      ob       1    MUSC   O03ju       1     -1.05    15.999
   22479      ob       1    MUSC   O03jv       1     -1.05    15.999
   22480      ob       1    MUSC   O03jw       1     -1.05    15.999
   22481      oh       1    MUSC   O03jx       1     -0.95    15.999
   22482      oh       1    MUSC   O03jy       1     -0.95    15.999
   22483      oh       1    MUSC   O03jz       1     -0.95    15.999
   22484      oh       1    MUSC   O03k0       1     -0.95    15.999
   22485      ob       1    MUSC   O03k1       1     -1.05    15.999
   22486      ob       1    MUSC   O03k2       1     -1.05    15.999
   22487      ob       1    MUSC   O03k3       1     -1.05    15.999
   22488      ob       1    MUSC   O03k4       1     -1.05    15.999
   22489      ob       1    MUSC   O03k5       1     -1.05    15.999
   22490      ob       1    MUSC   O03k6       1     -1.05    15.999
   22491      ob       1    MUSC   O03k7       1     -1.05    15.999
   22492      ob       1    MUSC   O03k8       1     -1.05    15.999
   22493      ob       1    MUSC   O03k9       1     -1.05    15.999
   22494      ob       1    MUSC   O03kA       1     -1.05    15.999
   22495      ob       1    MUSC   O03kB       1     -1.05    15.999
   22496      ob       1    MUSC   O03kC       1     -1.05    15.999
   22497      ob       1    MUSC   O03kD       1     -1.05    15.999
   22498      ob       1    MUSC   O03kE       1     -1.05    15.999
   22499      ob       1    MUSC   O03kF       1     -1.05    15.999
   22500      ob       1    MUSC   O03kG       1     -1.05    15.999
   22501       K       1    MUSC   K00EX       1       1.0    39.098
   22502       K       1    MUSC   K00EY       1       1.0    39.098
   22503      ao       1    MUSC   Al0cj       1     1.575    26.982
   22504      ao       1    MUSC   Al0ck       1     1.575    26.982
   22505      ao       1    MUSC   Al0cl       1     1.575    26.982
   22506      ao       1    MUSC   Al0cm       1     1.575    26.982
   22507      ao       1    MUSC   Al0cn       1     1.575    26.982
   22508      ao       1    MUSC   Al0co       1     1.575    26.982
   22509      ao       1    MUSC   Al0cp       1     1.575    26.982
   22510      ao       1    MUSC   Al0cq       1     1.575    26.982
   22511      st       1    MUSC   Si1FR       1       2.1    28.086
   22512      st       1    MUSC   Si1FS       1       2.1    28.086
   22513      st       1    MUSC   Si1FT       1       2.1    28.086
   22514      st       1    MUSC   Si1FU       1       2.1    28.086
   22515      st       1    MUSC   Si1FV       1       2.1    28.086
   22516      st       1    MUSC   Si1FW       1       2.1    28.086
   22517      st       1    MUSC   Si1FX       1       2.1    28.086
   22518      st       1    MUSC   Si1FY       1       2.1    28.086
   22519      st       1    MUSC   Si1FZ       1       2.1    28.086
   22520      st       1    MUSC   Si1Fa       1       2.1    28.086
   22521      st       1    MUSC   Si1Fb       1       2.1    28.086
   22522      st       1    MUSC   Si1Fc       1       2.1    28.086
   22523      st       1    MUSC   Si1Fd       1       2.1    28.086
   22524      st       1    MUSC   Si1Fe       1       2.1    28.086
   22525      st       1    MUSC   Si1Ff       1       2.1    28.086
   22526      st       1    MUSC   Si1Fg       1       2.1    28.086
   22527      ob       1    MUSC   O03kH       1     -1.05    15.999
   22528      ob       1    MUSC   O03kI       1     -1.05    15.999
   22529      ob       1    MUSC   O03kJ       1     -1.05    15.999
   22530      ob       1    MUSC   O03kK       1     -1.05    15.999
   22531      oh       1    MUSC   O03kL       1     -0.95    15.999
   22532      oh       1    MUSC   O03kM       1     -0.95    15.999
   22533      oh       1    MUSC   O03kN       1     -0.95    15.999
   22534      oh       1    MUSC   O03kO       1     -0.95    15.999
   22535      ob       1    MUSC   O03kP       1     -1.05    15.999
   22536      ob       1    MUSC   O03kQ       1     -1.05    15.999
   22537      ob       1    MUSC   O03kR       1     -1.05    15.999
   22538      ob       1    MUSC   O03kS       1     -1.05    15.999
   22539      ob       1    MUSC   O03kT       1     -1.05    15.999
   22540      ob       1    MUSC   O03kU       1     -1.05    15.999
   22541      ob       1    MUSC   O03kV       1     -1.05    15.999
   22542      ob       1    MUSC   O03kW       1     -1.05    15.999
   22543      ob       1    MUSC   O03kX       1     -1.05    15.999
   22544      ob       1    MUSC   O03kY       1     -1.05    15.999
   22545      ob       1    MUSC   O03kZ       1     -1.05    15.999
   22546      ob       1    MUSC   O03ka       1     -1.05    15.999
   22547      ob       1    MUSC   O03kb       1     -1.05    15.999
   22548      ob       1    MUSC   O03kc       1     -1.05    15.999
   22549      ob       1    MUSC   O03kd       1     -1.05    15.999
   22550      ob       1    MUSC   O03ke       1     -1.05    15.999
   22551      ob       1    MUSC   O03kf       1     -1.05    15.999
   22552      ob       1    MUSC   O03kg       1     -1.05    15.999
   22553      ob       1    MUSC   O03kh       1     -1.05    15.999
   22554      ob       1    MUSC   O03ki       1     -1.05    15.999
   22555      oh       1    MUSC   O03kj       1     -0.95    15.999
   22556      oh       1    MUSC   O03kk       1     -0.95    15.999
   22557      oh       1    MUSC   O03kl       1     -0.95    15.999
   22558      oh       1    MUSC   O03km       1     -0.95    15.999
   22559      ob       1    MUSC   O03kn       1     -1.05    15.999
   22560      ob       1    MUSC   O03ko       1     -1.05    15.999
   22561      ob       1    MUSC   O03kp       1     -1.05    15.999
   22562      ob       1    MUSC   O03kq       1     -1.05    15.999
   22563      ob       1    MUSC   O03kr       1     -1.05    15.999
   22564      ob       1    MUSC   O03ks       1     -1.05    15.999
   22565      ob       1    MUSC   O03kt       1     -1.05    15.999
   22566      ob       1    MUSC   O03ku       1     -1.05    15.999
   22567      ob       1    MUSC   O03kv       1     -1.05    15.999
   22568      ob       1    MUSC   O03kw       1     -1.05    15.999
   22569      ob       1    MUSC   O03kx       1     -1.05    15.999
   22570      ob       1    MUSC   O03ky       1     -1.05    15.999
   22571      ob       1    MUSC   O03kz       1     -1.05    15.999
   22572      ob       1    MUSC   O03l0       1     -1.05    15.999
   22573      ob       1    MUSC   O03l1       1     -1.05    15.999
   22574      ob       1    MUSC   O03l2       1     -1.05    15.999
   22575       K       1    MUSC   K00EZ       1       1.0    39.098
   22576       K       1    MUSC   K00Ea       1       1.0    39.098
   22577       K       1    MUSC   K00Eb       1       1.0    39.098
   22578       K       1    MUSC   K00Ec       1       1.0    39.098
   22579      ao       1    MUSC   Al0cr       1     1.575    26.982
   22580      ao       1    MUSC   Al0cs       1     1.575    26.982
   22581      ao       1    MUSC   Al0ct       1     1.575    26.982
   22582      ao       1    MUSC   Al0cu       1     1.575    26.982
   22583      ao       1    MUSC   Al0cv       1     1.575    26.982
   22584      ao       1    MUSC   Al0cw       1     1.575    26.982
   22585      ao       1    MUSC   Al0cx       1     1.575    26.982
   22586      ao       1    MUSC   Al0cy       1     1.575    26.982
   22587      st       1    MUSC   Si1Fh       1       2.1    28.086
   22588      st       1    MUSC   Si1Fi       1       2.1    28.086
   22589      st       1    MUSC   Si1Fj       1       2.1    28.086
   22590      st       1    MUSC   Si1Fk       1       2.1    28.086
   22591      st       1    MUSC   Si1Fl       1       2.1    28.086
   22592      st       1    MUSC   Si1Fm       1       2.1    28.086
   22593      st       1    MUSC   Si1Fn       1       2.1    28.086
   22594      st       1    MUSC   Si1Fo       1       2.1    28.086
   22595      st       1    MUSC   Si1Fp       1       2.1    28.086
   22596      st       1    MUSC   Si1Fq       1       2.1    28.086
   22597      st       1    MUSC   Si1Fr       1       2.1    28.086
   22598      st       1    MUSC   Si1Fs       1       2.1    28.086
   22599      st       1    MUSC   Si1Ft       1       2.1    28.086
   22600      st       1    MUSC   Si1Fu       1       2.1    28.086
   22601      st       1    MUSC   Si1Fv       1       2.1    28.086
   22602      st       1    MUSC   Si1Fw       1       2.1    28.086
   22603      ob       1    MUSC   O03l3       1     -1.05    15.999
   22604      ob       1    MUSC   O03l4       1     -1.05    15.999
   22605      ob       1    MUSC   O03l5       1     -1.05    15.999
   22606      ob       1    MUSC   O03l6       1     -1.05    15.999
   22607      oh       1    MUSC   O03l7       1     -0.95    15.999
   22608      oh       1    MUSC   O03l8       1     -0.95    15.999
   22609      oh       1    MUSC   O03l9       1     -0.95    15.999
   22610      oh       1    MUSC   O03lA       1     -0.95    15.999
   22611      ob       1    MUSC   O03lB       1     -1.05    15.999
   22612      ob       1    MUSC   O03lC       1     -1.05    15.999
   22613      ob       1    MUSC   O03lD       1     -1.05    15.999
   22614      ob       1    MUSC   O03lE       1     -1.05    15.999
   22615      ob       1    MUSC   O03lF       1     -1.05    15.999
   22616      ob       1    MUSC   O03lG       1     -1.05    15.999
   22617      ob       1    MUSC   O03lH       1     -1.05    15.999
   22618      ob       1    MUSC   O03lI       1     -1.05    15.999
   22619      ob       1    MUSC   O03lJ       1     -1.05    15.999
   22620      ob       1    MUSC   O03lK       1     -1.05    15.999
   22621      ob       1    MUSC   O03lL       1     -1.05    15.999
   22622      ob       1    MUSC   O03lM       1     -1.05    15.999
   22623      ob       1    MUSC   O03lN       1     -1.05    15.999
   22624      ob       1    MUSC   O03lO       1     -1.05    15.999
   22625      ob       1    MUSC   O03lP       1     -1.05    15.999
   22626      ob       1    MUSC   O03lQ       1     -1.05    15.999
   22627      ob       1    MUSC   O03lR       1     -1.05    15.999
   22628      ob       1    MUSC   O03lS       1     -1.05    15.999
   22629      ob       1    MUSC   O03lT       1     -1.05    15.999
   22630      ob       1    MUSC   O03lU       1     -1.05    15.999
   22631      oh       1    MUSC   O03lV       1     -0.95    15.999
   22632      oh       1    MUSC   O03lW       1     -0.95    15.999
   22633      oh       1    MUSC   O03lX       1     -0.95    15.999
   22634      oh       1    MUSC   O03lY       1     -0.95    15.999
   22635      ob       1    MUSC   O03lZ       1     -1.05    15.999
   22636      ob       1    MUSC   O03la       1     -1.05    15.999
   22637      ob       1    MUSC   O03lb       1     -1.05    15.999
   22638      ob       1    MUSC   O03lc       1     -1.05    15.999
   22639      ob       1    MUSC   O03ld       1     -1.05    15.999
   22640      ob       1    MUSC   O03le       1     -1.05    15.999
   22641      ob       1    MUSC   O03lf       1     -1.05    15.999
   22642      ob       1    MUSC   O03lg       1     -1.05    15.999
   22643      ob       1    MUSC   O03lh       1     -1.05    15.999
   22644      ob       1    MUSC   O03li       1     -1.05    15.999
   22645      ob       1    MUSC   O03lj       1     -1.05    15.999
   22646      ob       1    MUSC   O03lk       1     -1.05    15.999
   22647      ob       1    MUSC   O03ll       1     -1.05    15.999
   22648      ob       1    MUSC   O03lm       1     -1.05    15.999
   22649      ob       1    MUSC   O03ln       1     -1.05    15.999
   22650      ob       1    MUSC   O03lo       1     -1.05    15.999
   22651       K       1    MUSC   K00Ed       1       1.0    39.098
   22652       K       1    MUSC   K00Ee       1       1.0    39.098
   22653      ao       1    MUSC   Al0cz       1     1.575    26.982
   22654      ao       1    MUSC   Al0d0       1     1.575    26.982
   22655      ao       1    MUSC   Al0d1       1     1.575    26.982
   22656      ao       1    MUSC   Al0d2       1     1.575    26.982
   22657      ao       1    MUSC   Al0d3       1     1.575    26.982
   22658      ao       1    MUSC   Al0d4       1     1.575    26.982
   22659      ao       1    MUSC   Al0d5       1     1.575    26.982
   22660      ao       1    MUSC   Al0d6       1     1.575    26.982
   22661      st       1    MUSC   Si1Fx       1       2.1    28.086
   22662      st       1    MUSC   Si1Fy       1       2.1    28.086
   22663      st       1    MUSC   Si1Fz       1       2.1    28.086
   22664      st       1    MUSC   Si1G0       1       2.1    28.086
   22665      st       1    MUSC   Si1G1       1       2.1    28.086
   22666      st       1    MUSC   Si1G2       1       2.1    28.086
   22667      st       1    MUSC   Si1G3       1       2.1    28.086
   22668      st       1    MUSC   Si1G4       1       2.1    28.086
   22669      st       1    MUSC   Si1G5       1       2.1    28.086
   22670      st       1    MUSC   Si1G6       1       2.1    28.086
   22671      st       1    MUSC   Si1G7       1       2.1    28.086
   22672      st       1    MUSC   Si1G8       1       2.1    28.086
   22673      st       1    MUSC   Si1G9       1       2.1    28.086
   22674      st       1    MUSC   Si1GA       1       2.1    28.086
   22675      st       1    MUSC   Si1GB       1       2.1    28.086
   22676      st       1    MUSC   Si1GC       1       2.1    28.086
   22677      ob       1    MUSC   O03lp       1     -1.05    15.999
   22678      ob       1    MUSC   O03lq       1     -1.05    15.999
   22679      ob       1    MUSC   O03lr       1     -1.05    15.999
   22680      ob       1    MUSC   O03ls       1     -1.05    15.999
   22681      oh       1    MUSC   O03lt       1     -0.95    15.999
   22682      oh       1    MUSC   O03lu       1     -0.95    15.999
   22683      oh       1    MUSC   O03lv       1     -0.95    15.999
   22684      oh       1    MUSC   O03lw       1     -0.95    15.999
   22685      ob       1    MUSC   O03lx       1     -1.05    15.999
   22686      ob       1    MUSC   O03ly       1     -1.05    15.999
   22687      ob       1    MUSC   O03lz       1     -1.05    15.999
   22688      ob       1    MUSC   O03m0       1     -1.05    15.999
   22689      ob       1    MUSC   O03m1       1     -1.05    15.999
   22690      ob       1    MUSC   O03m2       1     -1.05    15.999
   22691      ob       1    MUSC   O03m3       1     -1.05    15.999
   22692      ob       1    MUSC   O03m4       1     -1.05    15.999
   22693      ob       1    MUSC   O03m5       1     -1.05    15.999
   22694      ob       1    MUSC   O03m6       1     -1.05    15.999
   22695      ob       1    MUSC   O03m7       1     -1.05    15.999
   22696      ob       1    MUSC   O03m8       1     -1.05    15.999
   22697      ob       1    MUSC   O03m9       1     -1.05    15.999
   22698      ob       1    MUSC   O03mA       1     -1.05    15.999
   22699      ob       1    MUSC   O03mB       1     -1.05    15.999
   22700      ob       1    MUSC   O03mC       1     -1.05    15.999
   22701      ob       1    MUSC   O03mD       1     -1.05    15.999
   22702      ob       1    MUSC   O03mE       1     -1.05    15.999
   22703      ob       1    MUSC   O03mF       1     -1.05    15.999
   22704      ob       1    MUSC   O03mG       1     -1.05    15.999
   22705      oh       1    MUSC   O03mH       1     -0.95    15.999
   22706      oh       1    MUSC   O03mI       1     -0.95    15.999
   22707      oh       1    MUSC   O03mJ       1     -0.95    15.999
   22708      oh       1    MUSC   O03mK       1     -0.95    15.999
   22709      ob       1    MUSC   O03mL       1     -1.05    15.999
   22710      ob       1    MUSC   O03mM       1     -1.05    15.999
   22711      ob       1    MUSC   O03mN       1     -1.05    15.999
   22712      ob       1    MUSC   O03mO       1     -1.05    15.999
   22713      ob       1    MUSC   O03mP       1     -1.05    15.999
   22714      ob       1    MUSC   O03mQ       1     -1.05    15.999
   22715      ob       1    MUSC   O03mR       1     -1.05    15.999
   22716      ob       1    MUSC   O03mS       1     -1.05    15.999
   22717      ob       1    MUSC   O03mT       1     -1.05    15.999
   22718      ob       1    MUSC   O03mU       1     -1.05    15.999
   22719      ob       1    MUSC   O03mV       1     -1.05    15.999
   22720      ob       1    MUSC   O03mW       1     -1.05    15.999
   22721      ob       1    MUSC   O03mX       1     -1.05    15.999
   22722      ob       1    MUSC   O03mY       1     -1.05    15.999
   22723      ob       1    MUSC   O03mZ       1     -1.05    15.999
   22724      ob       1    MUSC   O03ma       1     -1.05    15.999
   22725       K       1    MUSC   K00Ef       1       1.0    39.098
   22726       K       1    MUSC   K00Eg       1       1.0    39.098
   22727       K       1    MUSC   K00Eh       1       1.0    39.098
   22728       K       1    MUSC   K00Ei       1       1.0    39.098
   22729      ao       1    MUSC   Al0d7       1     1.575    26.982
   22730      ao       1    MUSC   Al0d8       1     1.575    26.982
   22731      ao       1    MUSC   Al0d9       1     1.575    26.982
   22732      ao       1    MUSC   Al0dA       1     1.575    26.982
   22733      ao       1    MUSC   Al0dB       1     1.575    26.982
   22734      ao       1    MUSC   Al0dC       1     1.575    26.982
   22735      ao       1    MUSC   Al0dD       1     1.575    26.982
   22736      ao       1    MUSC   Al0dE       1     1.575    26.982
   22737      st       1    MUSC   Si1GD       1       2.1    28.086
   22738      st       1    MUSC   Si1GE       1       2.1    28.086
   22739      st       1    MUSC   Si1GF       1       2.1    28.086
   22740      st       1    MUSC   Si1GG       1       2.1    28.086
   22741      st       1    MUSC   Si1GH       1       2.1    28.086
   22742      st       1    MUSC   Si1GI       1       2.1    28.086
   22743      st       1    MUSC   Si1GJ       1       2.1    28.086
   22744      st       1    MUSC   Si1GK       1       2.1    28.086
   22745      st       1    MUSC   Si1GL       1       2.1    28.086
   22746      st       1    MUSC   Si1GM       1       2.1    28.086
   22747      st       1    MUSC   Si1GN       1       2.1    28.086
   22748      st       1    MUSC   Si1GO       1       2.1    28.086
   22749      st       1    MUSC   Si1GP       1       2.1    28.086
   22750      st       1    MUSC   Si1GQ       1       2.1    28.086
   22751      st       1    MUSC   Si1GR       1       2.1    28.086
   22752      st       1    MUSC   Si1GS       1       2.1    28.086
   22753      ob       1    MUSC   O03mb       1     -1.05    15.999
   22754      ob       1    MUSC   O03mc       1     -1.05    15.999
   22755      ob       1    MUSC   O03md       1     -1.05    15.999
   22756      ob       1    MUSC   O03me       1     -1.05    15.999
   22757      oh       1    MUSC   O03mf       1     -0.95    15.999
   22758      oh       1    MUSC   O03mg       1     -0.95    15.999
   22759      oh       1    MUSC   O03mh       1     -0.95    15.999
   22760      oh       1    MUSC   O03mi       1     -0.95    15.999
   22761      ob       1    MUSC   O03mj       1     -1.05    15.999
   22762      ob       1    MUSC   O03mk       1     -1.05    15.999
   22763      ob       1    MUSC   O03ml       1     -1.05    15.999
   22764      ob       1    MUSC   O03mm       1     -1.05    15.999
   22765      ob       1    MUSC   O03mn       1     -1.05    15.999
   22766      ob       1    MUSC   O03mo       1     -1.05    15.999
   22767      ob       1    MUSC   O03mp       1     -1.05    15.999
   22768      ob       1    MUSC   O03mq       1     -1.05    15.999
   22769      ob       1    MUSC   O03mr       1     -1.05    15.999
   22770      ob       1    MUSC   O03ms       1     -1.05    15.999
   22771      ob       1    MUSC   O03mt       1     -1.05    15.999
   22772      ob       1    MUSC   O03mu       1     -1.05    15.999
   22773      ob       1    MUSC   O03mv       1     -1.05    15.999
   22774      ob       1    MUSC   O03mw       1     -1.05    15.999
   22775      ob       1    MUSC   O03mx       1     -1.05    15.999
   22776      ob       1    MUSC   O03my       1     -1.05    15.999
   22777      ob       1    MUSC   O03mz       1     -1.05    15.999
   22778      ob       1    MUSC   O03n0       1     -1.05    15.999
   22779      ob       1    MUSC   O03n1       1     -1.05    15.999
   22780      ob       1    MUSC   O03n2       1     -1.05    15.999
   22781      oh       1    MUSC   O03n3       1     -0.95    15.999
   22782      oh       1    MUSC   O03n4       1     -0.95    15.999
   22783      oh       1    MUSC   O03n5       1     -0.95    15.999
   22784      oh       1    MUSC   O03n6       1     -0.95    15.999
   22785      ob       1    MUSC   O03n7       1     -1.05    15.999
   22786      ob       1    MUSC   O03n8       1     -1.05    15.999
   22787      ob       1    MUSC   O03n9       1     -1.05    15.999
   22788      ob       1    MUSC   O03nA       1     -1.05    15.999
   22789      ob       1    MUSC   O03nB       1     -1.05    15.999
   22790      ob       1    MUSC   O03nC       1     -1.05    15.999
   22791      ob       1    MUSC   O03nD       1     -1.05    15.999
   22792      ob       1    MUSC   O03nE       1     -1.05    15.999
   22793      ob       1    MUSC   O03nF       1     -1.05    15.999
   22794      ob       1    MUSC   O03nG       1     -1.05    15.999
   22795      ob       1    MUSC   O03nH       1     -1.05    15.999
   22796      ob       1    MUSC   O03nI       1     -1.05    15.999
   22797      ob       1    MUSC   O03nJ       1     -1.05    15.999
   22798      ob       1    MUSC   O03nK       1     -1.05    15.999
   22799      ob       1    MUSC   O03nL       1     -1.05    15.999
   22800      ob       1    MUSC   O03nM       1     -1.05    15.999
   22801       K       1    MUSC   K00Ej       1       1.0    39.098
   22802       K       1    MUSC   K00Ek       1       1.0    39.098
   22803      ao       1    MUSC   Al0dF       1     1.575    26.982
   22804      ao       1    MUSC   Al0dG       1     1.575    26.982
   22805      ao       1    MUSC   Al0dH       1     1.575    26.982
   22806      ao       1    MUSC   Al0dI       1     1.575    26.982
   22807      ao       1    MUSC   Al0dJ       1     1.575    26.982
   22808      ao       1    MUSC   Al0dK       1     1.575    26.982
   22809      ao       1    MUSC   Al0dL       1     1.575    26.982
   22810      ao       1    MUSC   Al0dM       1     1.575    26.982
   22811      st       1    MUSC   Si1GT       1       2.1    28.086
   22812      st       1    MUSC   Si1GU       1       2.1    28.086
   22813      st       1    MUSC   Si1GV       1       2.1    28.086
   22814      st       1    MUSC   Si1GW       1       2.1    28.086
   22815      st       1    MUSC   Si1GX       1       2.1    28.086
   22816      st       1    MUSC   Si1GY       1       2.1    28.086
   22817      st       1    MUSC   Si1GZ       1       2.1    28.086
   22818      st       1    MUSC   Si1Ga       1       2.1    28.086
   22819      st       1    MUSC   Si1Gb       1       2.1    28.086
   22820      st       1    MUSC   Si1Gc       1       2.1    28.086
   22821      st       1    MUSC   Si1Gd       1       2.1    28.086
   22822      st       1    MUSC   Si1Ge       1       2.1    28.086
   22823      st       1    MUSC   Si1Gf       1       2.1    28.086
   22824      st       1    MUSC   Si1Gg       1       2.1    28.086
   22825      st       1    MUSC   Si1Gh       1       2.1    28.086
   22826      st       1    MUSC   Si1Gi       1       2.1    28.086
   22827      ob       1    MUSC   O03nN       1     -1.05    15.999
   22828      ob       1    MUSC   O03nO       1     -1.05    15.999
   22829      ob       1    MUSC   O03nP       1     -1.05    15.999
   22830      ob       1    MUSC   O03nQ       1     -1.05    15.999
   22831      oh       1    MUSC   O03nR       1     -0.95    15.999
   22832      oh       1    MUSC   O03nS       1     -0.95    15.999
   22833      oh       1    MUSC   O03nT       1     -0.95    15.999
   22834      oh       1    MUSC   O03nU       1     -0.95    15.999
   22835      ob       1    MUSC   O03nV       1     -1.05    15.999
   22836      ob       1    MUSC   O03nW       1     -1.05    15.999
   22837      ob       1    MUSC   O03nX       1     -1.05    15.999
   22838      ob       1    MUSC   O03nY       1     -1.05    15.999
   22839      ob       1    MUSC   O03nZ       1     -1.05    15.999
   22840      ob       1    MUSC   O03na       1     -1.05    15.999
   22841      ob       1    MUSC   O03nb       1     -1.05    15.999
   22842      ob       1    MUSC   O03nc       1     -1.05    15.999
   22843      ob       1    MUSC   O03nd       1     -1.05    15.999
   22844      ob       1    MUSC   O03ne       1     -1.05    15.999
   22845      ob       1    MUSC   O03nf       1     -1.05    15.999
   22846      ob       1    MUSC   O03ng       1     -1.05    15.999
   22847      ob       1    MUSC   O03nh       1     -1.05    15.999
   22848      ob       1    MUSC   O03ni       1     -1.05    15.999
   22849      ob       1    MUSC   O03nj       1     -1.05    15.999
   22850      ob       1    MUSC   O03nk       1     -1.05    15.999
   22851      ob       1    MUSC   O03nl       1     -1.05    15.999
   22852      ob       1    MUSC   O03nm       1     -1.05    15.999
   22853      ob       1    MUSC   O03nn       1     -1.05    15.999
   22854      ob       1    MUSC   O03no       1     -1.05    15.999
   22855      oh       1    MUSC   O03np       1     -0.95    15.999
   22856      oh       1    MUSC   O03nq       1     -0.95    15.999
   22857      oh       1    MUSC   O03nr       1     -0.95    15.999
   22858      oh       1    MUSC   O03ns       1     -0.95    15.999
   22859      ob       1    MUSC   O03nt       1     -1.05    15.999
   22860      ob       1    MUSC   O03nu       1     -1.05    15.999
   22861      ob       1    MUSC   O03nv       1     -1.05    15.999
   22862      ob       1    MUSC   O03nw       1     -1.05    15.999
   22863      ob       1    MUSC   O03nx       1     -1.05    15.999
   22864      ob       1    MUSC   O03ny       1     -1.05    15.999
   22865      ob       1    MUSC   O03nz       1     -1.05    15.999
   22866      ob       1    MUSC   O03o0       1     -1.05    15.999
   22867      ob       1    MUSC   O03o1       1     -1.05    15.999
   22868      ob       1    MUSC   O03o2       1     -1.05    15.999
   22869      ob       1    MUSC   O03o3       1     -1.05    15.999
   22870      ob       1    MUSC   O03o4       1     -1.05    15.999
   22871      ob       1    MUSC   O03o5       1     -1.05    15.999
   22872      ob       1    MUSC   O03o6       1     -1.05    15.999
   22873      ob       1    MUSC   O03o7       1     -1.05    15.999
   22874      ob       1    MUSC   O03o8       1     -1.05    15.999
   22875       K       1    MUSC   K00El       1       1.0    39.098
   22876       K       1    MUSC   K00Em       1       1.0    39.098
   22877       K       1    MUSC   K00En       1       1.0    39.098
   22878       K       1    MUSC   K00Eo       1       1.0    39.098
   22879      ao       1    MUSC   Al0dN       1     1.575    26.982
   22880      ao       1    MUSC   Al0dO       1     1.575    26.982
   22881      ao       1    MUSC   Al0dP       1     1.575    26.982
   22882      ao       1    MUSC   Al0dQ       1     1.575    26.982
   22883      ao       1    MUSC   Al0dR       1     1.575    26.982
   22884      ao       1    MUSC   Al0dS       1     1.575    26.982
   22885      ao       1    MUSC   Al0dT       1     1.575    26.982
   22886      ao       1    MUSC   Al0dU       1     1.575    26.982
   22887      st       1    MUSC   Si1Gj       1       2.1    28.086
   22888      st       1    MUSC   Si1Gk       1       2.1    28.086
   22889      st       1    MUSC   Si1Gl       1       2.1    28.086
   22890      st       1    MUSC   Si1Gm       1       2.1    28.086
   22891      st       1    MUSC   Si1Gn       1       2.1    28.086
   22892      st       1    MUSC   Si1Go       1       2.1    28.086
   22893      st       1    MUSC   Si1Gp       1       2.1    28.086
   22894      st       1    MUSC   Si1Gq       1       2.1    28.086
   22895      st       1    MUSC   Si1Gr       1       2.1    28.086
   22896      st       1    MUSC   Si1Gs       1       2.1    28.086
   22897      st       1    MUSC   Si1Gt       1       2.1    28.086
   22898      st       1    MUSC   Si1Gu       1       2.1    28.086
   22899      st       1    MUSC   Si1Gv       1       2.1    28.086
   22900      st       1    MUSC   Si1Gw       1       2.1    28.086
   22901      st       1    MUSC   Si1Gx       1       2.1    28.086
   22902      st       1    MUSC   Si1Gy       1       2.1    28.086
   22903      ob       1    MUSC   O03o9       1     -1.05    15.999
   22904      ob       1    MUSC   O03oA       1     -1.05    15.999
   22905      ob       1    MUSC   O03oB       1     -1.05    15.999
   22906      ob       1    MUSC   O03oC       1     -1.05    15.999
   22907      oh       1    MUSC   O03oD       1     -0.95    15.999
   22908      oh       1    MUSC   O03oE       1     -0.95    15.999
   22909      oh       1    MUSC   O03oF       1     -0.95    15.999
   22910      oh       1    MUSC   O03oG       1     -0.95    15.999
   22911      ob       1    MUSC   O03oH       1     -1.05    15.999
   22912      ob       1    MUSC   O03oI       1     -1.05    15.999
   22913      ob       1    MUSC   O03oJ       1     -1.05    15.999
   22914      ob       1    MUSC   O03oK       1     -1.05    15.999
   22915      ob       1    MUSC   O03oL       1     -1.05    15.999
   22916      ob       1    MUSC   O03oM       1     -1.05    15.999
   22917      ob       1    MUSC   O03oN       1     -1.05    15.999
   22918      ob       1    MUSC   O03oO       1     -1.05    15.999
   22919      ob       1    MUSC   O03oP       1     -1.05    15.999
   22920      ob       1    MUSC   O03oQ       1     -1.05    15.999
   22921      ob       1    MUSC   O03oR       1     -1.05    15.999
   22922      ob       1    MUSC   O03oS       1     -1.05    15.999
   22923      ob       1    MUSC   O03oT       1     -1.05    15.999
   22924      ob       1    MUSC   O03oU       1     -1.05    15.999
   22925      ob       1    MUSC   O03oV       1     -1.05    15.999
   22926      ob       1    MUSC   O03oW       1     -1.05    15.999
   22927      ob       1    MUSC   O03oX       1     -1.05    15.999
   22928      ob       1    MUSC   O03oY       1     -1.05    15.999
   22929      ob       1    MUSC   O03oZ       1     -1.05    15.999
   22930      ob       1    MUSC   O03oa       1     -1.05    15.999
   22931      oh       1    MUSC   O03ob       1     -0.95    15.999
   22932      oh       1    MUSC   O03oc       1     -0.95    15.999
   22933      oh       1    MUSC   O03od       1     -0.95    15.999
   22934      oh       1    MUSC   O03oe       1     -0.95    15.999
   22935      ob       1    MUSC   O03of       1     -1.05    15.999
   22936      ob       1    MUSC   O03og       1     -1.05    15.999
   22937      ob       1    MUSC   O03oh       1     -1.05    15.999
   22938      ob       1    MUSC   O03oi       1     -1.05    15.999
   22939      ob       1    MUSC   O03oj       1     -1.05    15.999
   22940      ob       1    MUSC   O03ok       1     -1.05    15.999
   22941      ob       1    MUSC   O03ol       1     -1.05    15.999
   22942      ob       1    MUSC   O03om       1     -1.05    15.999
   22943      ob       1    MUSC   O03on       1     -1.05    15.999
   22944      ob       1    MUSC   O03oo       1     -1.05    15.999
   22945      ob       1    MUSC   O03op       1     -1.05    15.999
   22946      ob       1    MUSC   O03oq       1     -1.05    15.999
   22947      ob       1    MUSC   O03or       1     -1.05    15.999
   22948      ob       1    MUSC   O03os       1     -1.05    15.999
   22949      ob       1    MUSC   O03ot       1     -1.05    15.999
   22950      ob       1    MUSC   O03ou       1     -1.05    15.999
   22951       K       1    MUSC   K00Ep       1       1.0    39.098
   22952       K       1    MUSC   K00Eq       1       1.0    39.098
   22953      ao       1    MUSC   Al0dV       1     1.575    26.982
   22954      ao       1    MUSC   Al0dW       1     1.575    26.982
   22955      ao       1    MUSC   Al0dX       1     1.575    26.982
   22956      ao       1    MUSC   Al0dY       1     1.575    26.982
   22957      ao       1    MUSC   Al0dZ       1     1.575    26.982
   22958      ao       1    MUSC   Al0da       1     1.575    26.982
   22959      ao       1    MUSC   Al0db       1     1.575    26.982
   22960      ao       1    MUSC   Al0dc       1     1.575    26.982
   22961      st       1    MUSC   Si1Gz       1       2.1    28.086
   22962      st       1    MUSC   Si1H0       1       2.1    28.086
   22963      st       1    MUSC   Si1H1       1       2.1    28.086
   22964      st       1    MUSC   Si1H2       1       2.1    28.086
   22965      st       1    MUSC   Si1H3       1       2.1    28.086
   22966      st       1    MUSC   Si1H4       1       2.1    28.086
   22967      st       1    MUSC   Si1H5       1       2.1    28.086
   22968      st       1    MUSC   Si1H6       1       2.1    28.086
   22969      st       1    MUSC   Si1H7       1       2.1    28.086
   22970      st       1    MUSC   Si1H8       1       2.1    28.086
   22971      st       1    MUSC   Si1H9       1       2.1    28.086
   22972      st       1    MUSC   Si1HA       1       2.1    28.086
   22973      st       1    MUSC   Si1HB       1       2.1    28.086
   22974      st       1    MUSC   Si1HC       1       2.1    28.086
   22975      st       1    MUSC   Si1HD       1       2.1    28.086
   22976      st       1    MUSC   Si1HE       1       2.1    28.086
   22977      ob       1    MUSC   O03ov       1     -1.05    15.999
   22978      ob       1    MUSC   O03ow       1     -1.05    15.999
   22979      ob       1    MUSC   O03ox       1     -1.05    15.999
   22980      ob       1    MUSC   O03oy       1     -1.05    15.999
   22981      oh       1    MUSC   O03oz       1     -0.95    15.999
   22982      oh       1    MUSC   O03p0       1     -0.95    15.999
   22983      oh       1    MUSC   O03p1       1     -0.95    15.999
   22984      oh       1    MUSC   O03p2       1     -0.95    15.999
   22985      ob       1    MUSC   O03p3       1     -1.05    15.999
   22986      ob       1    MUSC   O03p4       1     -1.05    15.999
   22987      ob       1    MUSC   O03p5       1     -1.05    15.999
   22988      ob       1    MUSC   O03p6       1     -1.05    15.999
   22989      ob       1    MUSC   O03p7       1     -1.05    15.999
   22990      ob       1    MUSC   O03p8       1     -1.05    15.999
   22991      ob       1    MUSC   O03p9       1     -1.05    15.999
   22992      ob       1    MUSC   O03pA       1     -1.05    15.999
   22993      ob       1    MUSC   O03pB       1     -1.05    15.999
   22994      ob       1    MUSC   O03pC       1     -1.05    15.999
   22995      ob       1    MUSC   O03pD       1     -1.05    15.999
   22996      ob       1    MUSC   O03pE       1     -1.05    15.999
   22997      ob       1    MUSC   O03pF       1     -1.05    15.999
   22998      ob       1    MUSC   O03pG       1     -1.05    15.999
   22999      ob       1    MUSC   O03pH       1     -1.05    15.999
   23000      ob       1    MUSC   O03pI       1     -1.05    15.999
   23001      ob       1    MUSC   O03pJ       1     -1.05    15.999
   23002      ob       1    MUSC   O03pK       1     -1.05    15.999
   23003      ob       1    MUSC   O03pL       1     -1.05    15.999
   23004      ob       1    MUSC   O03pM       1     -1.05    15.999
   23005      oh       1    MUSC   O03pN       1     -0.95    15.999
   23006      oh       1    MUSC   O03pO       1     -0.95    15.999
   23007      oh       1    MUSC   O03pP       1     -0.95    15.999
   23008      oh       1    MUSC   O03pQ       1     -0.95    15.999
   23009      ob       1    MUSC   O03pR       1     -1.05    15.999
   23010      ob       1    MUSC   O03pS       1     -1.05    15.999
   23011      ob       1    MUSC   O03pT       1     -1.05    15.999
   23012      ob       1    MUSC   O03pU       1     -1.05    15.999
   23013      ob       1    MUSC   O03pV       1     -1.05    15.999
   23014      ob       1    MUSC   O03pW       1     -1.05    15.999
   23015      ob       1    MUSC   O03pX       1     -1.05    15.999
   23016      ob       1    MUSC   O03pY       1     -1.05    15.999
   23017      ob       1    MUSC   O03pZ       1     -1.05    15.999
   23018      ob       1    MUSC   O03pa       1     -1.05    15.999
   23019      ob       1    MUSC   O03pb       1     -1.05    15.999
   23020      ob       1    MUSC   O03pc       1     -1.05    15.999
   23021      ob       1    MUSC   O03pd       1     -1.05    15.999
   23022      ob       1    MUSC   O03pe       1     -1.05    15.999
   23023      ob       1    MUSC   O03pf       1     -1.05    15.999
   23024      ob       1    MUSC   O03pg       1     -1.05    15.999
   23025       K       1    MUSC   K00Er       1       1.0    39.098
   23026       K       1    MUSC   K00Es       1       1.0    39.098
   23027       K       1    MUSC   K00Et       1       1.0    39.098
   23028       K       1    MUSC   K00Eu       1       1.0    39.098
   23029      ao       1    MUSC   Al0dd       1     1.575    26.982
   23030      ao       1    MUSC   Al0de       1     1.575    26.982
   23031      ao       1    MUSC   Al0df       1     1.575    26.982
   23032      ao       1    MUSC   Al0dg       1     1.575    26.982
   23033      ao       1    MUSC   Al0dh       1     1.575    26.982
   23034      ao       1    MUSC   Al0di       1     1.575    26.982
   23035      ao       1    MUSC   Al0dj       1     1.575    26.982
   23036      ao       1    MUSC   Al0dk       1     1.575    26.982
   23037      st       1    MUSC   Si1HF       1       2.1    28.086
   23038      st       1    MUSC   Si1HG       1       2.1    28.086
   23039      st       1    MUSC   Si1HH       1       2.1    28.086
   23040      st       1    MUSC   Si1HI       1       2.1    28.086
   23041      st       1    MUSC   Si1HJ       1       2.1    28.086
   23042      st       1    MUSC   Si1HK       1       2.1    28.086
   23043      st       1    MUSC   Si1HL       1       2.1    28.086
   23044      st       1    MUSC   Si1HM       1       2.1    28.086
   23045      st       1    MUSC   Si1HN       1       2.1    28.086
   23046      st       1    MUSC   Si1HO       1       2.1    28.086
   23047      st       1    MUSC   Si1HP       1       2.1    28.086
   23048      st       1    MUSC   Si1HQ       1       2.1    28.086
   23049      st       1    MUSC   Si1HR       1       2.1    28.086
   23050      st       1    MUSC   Si1HS       1       2.1    28.086
   23051      st       1    MUSC   Si1HT       1       2.1    28.086
   23052      st       1    MUSC   Si1HU       1       2.1    28.086
   23053      ob       1    MUSC   O03ph       1     -1.05    15.999
   23054      ob       1    MUSC   O03pi       1     -1.05    15.999
   23055      ob       1    MUSC   O03pj       1     -1.05    15.999
   23056      ob       1    MUSC   O03pk       1     -1.05    15.999
   23057      oh       1    MUSC   O03pl       1     -0.95    15.999
   23058      oh       1    MUSC   O03pm       1     -0.95    15.999
   23059      oh       1    MUSC   O03pn       1     -0.95    15.999
   23060      oh       1    MUSC   O03po       1     -0.95    15.999
   23061      ob       1    MUSC   O03pp       1     -1.05    15.999
   23062      ob       1    MUSC   O03pq       1     -1.05    15.999
   23063      ob       1    MUSC   O03pr       1     -1.05    15.999
   23064      ob       1    MUSC   O03ps       1     -1.05    15.999
   23065      ob       1    MUSC   O03pt       1     -1.05    15.999
   23066      ob       1    MUSC   O03pu       1     -1.05    15.999
   23067      ob       1    MUSC   O03pv       1     -1.05    15.999
   23068      ob       1    MUSC   O03pw       1     -1.05    15.999
   23069      ob       1    MUSC   O03px       1     -1.05    15.999
   23070      ob       1    MUSC   O03py       1     -1.05    15.999
   23071      ob       1    MUSC   O03pz       1     -1.05    15.999
   23072      ob       1    MUSC   O03q0       1     -1.05    15.999
   23073      ob       1    MUSC   O03q1       1     -1.05    15.999
   23074      ob       1    MUSC   O03q2       1     -1.05    15.999
   23075      ob       1    MUSC   O03q3       1     -1.05    15.999
   23076      ob       1    MUSC   O03q4       1     -1.05    15.999
   23077      ob       1    MUSC   O03q5       1     -1.05    15.999
   23078      ob       1    MUSC   O03q6       1     -1.05    15.999
   23079      ob       1    MUSC   O03q7       1     -1.05    15.999
   23080      ob       1    MUSC   O03q8       1     -1.05    15.999
   23081      oh       1    MUSC   O03q9       1     -0.95    15.999
   23082      oh       1    MUSC   O03qA       1     -0.95    15.999
   23083      oh       1    MUSC   O03qB       1     -0.95    15.999
   23084      oh       1    MUSC   O03qC       1     -0.95    15.999
   23085      ob       1    MUSC   O03qD       1     -1.05    15.999
   23086      ob       1    MUSC   O03qE       1     -1.05    15.999
   23087      ob       1    MUSC   O03qF       1     -1.05    15.999
   23088      ob       1    MUSC   O03qG       1     -1.05    15.999
   23089      ob       1    MUSC   O03qH       1     -1.05    15.999
   23090      ob       1    MUSC   O03qI       1     -1.05    15.999
   23091      ob       1    MUSC   O03qJ       1     -1.05    15.999
   23092      ob       1    MUSC   O03qK       1     -1.05    15.999
   23093      ob       1    MUSC   O03qL       1     -1.05    15.999
   23094      ob       1    MUSC   O03qM       1     -1.05    15.999
   23095      ob       1    MUSC   O03qN       1     -1.05    15.999
   23096      ob       1    MUSC   O03qO       1     -1.05    15.999
   23097      ob       1    MUSC   O03qP       1     -1.05    15.999
   23098      ob       1    MUSC   O03qQ       1     -1.05    15.999
   23099      ob       1    MUSC   O03qR       1     -1.05    15.999
   23100      ob       1    MUSC   O03qS       1     -1.05    15.999
   23101       K       1    MUSC   K00Ev       1       1.0    39.098
   23102       K       1    MUSC   K00Ew       1       1.0    39.098
   23103      ao       1    MUSC   Al0dl       1     1.575    26.982
   23104      ao       1    MUSC   Al0dm       1     1.575    26.982
   23105      ao       1    MUSC   Al0dn       1     1.575    26.982
   23106      ao       1    MUSC   Al0do       1     1.575    26.982
   23107      ao       1    MUSC   Al0dp       1     1.575    26.982
   23108      ao       1    MUSC   Al0dq       1     1.575    26.982
   23109      ao       1    MUSC   Al0dr       1     1.575    26.982
   23110      ao       1    MUSC   Al0ds       1     1.575    26.982
   23111      st       1    MUSC   Si1HV       1       2.1    28.086
   23112      st       1    MUSC   Si1HW       1       2.1    28.086
   23113      st       1    MUSC   Si1HX       1       2.1    28.086
   23114      st       1    MUSC   Si1HY       1       2.1    28.086
   23115      st       1    MUSC   Si1HZ       1       2.1    28.086
   23116      st       1    MUSC   Si1Ha       1       2.1    28.086
   23117      st       1    MUSC   Si1Hb       1       2.1    28.086
   23118      st       1    MUSC   Si1Hc       1       2.1    28.086
   23119      st       1    MUSC   Si1Hd       1       2.1    28.086
   23120      st       1    MUSC   Si1He       1       2.1    28.086
   23121      st       1    MUSC   Si1Hf       1       2.1    28.086
   23122      st       1    MUSC   Si1Hg       1       2.1    28.086
   23123      st       1    MUSC   Si1Hh       1       2.1    28.086
   23124      st       1    MUSC   Si1Hi       1       2.1    28.086
   23125      st       1    MUSC   Si1Hj       1       2.1    28.086
   23126      st       1    MUSC   Si1Hk       1       2.1    28.086
   23127      ob       1    MUSC   O03qT       1     -1.05    15.999
   23128      ob       1    MUSC   O03qU       1     -1.05    15.999
   23129      ob       1    MUSC   O03qV       1     -1.05    15.999
   23130      ob       1    MUSC   O03qW       1     -1.05    15.999
   23131      oh       1    MUSC   O03qX       1     -0.95    15.999
   23132      oh       1    MUSC   O03qY       1     -0.95    15.999
   23133      oh       1    MUSC   O03qZ       1     -0.95    15.999
   23134      oh       1    MUSC   O03qa       1     -0.95    15.999
   23135      ob       1    MUSC   O03qb       1     -1.05    15.999
   23136      ob       1    MUSC   O03qc       1     -1.05    15.999
   23137      ob       1    MUSC   O03qd       1     -1.05    15.999
   23138      ob       1    MUSC   O03qe       1     -1.05    15.999
   23139      ob       1    MUSC   O03qf       1     -1.05    15.999
   23140      ob       1    MUSC   O03qg       1     -1.05    15.999
   23141      ob       1    MUSC   O03qh       1     -1.05    15.999
   23142      ob       1    MUSC   O03qi       1     -1.05    15.999
   23143      ob       1    MUSC   O03qj       1     -1.05    15.999
   23144      ob       1    MUSC   O03qk       1     -1.05    15.999
   23145      ob       1    MUSC   O03ql       1     -1.05    15.999
   23146      ob       1    MUSC   O03qm       1     -1.05    15.999
   23147      ob       1    MUSC   O03qn       1     -1.05    15.999
   23148      ob       1    MUSC   O03qo       1     -1.05    15.999
   23149      ob       1    MUSC   O03qp       1     -1.05    15.999
   23150      ob       1    MUSC   O03qq       1     -1.05    15.999
   23151      ob       1    MUSC   O03qr       1     -1.05    15.999
   23152      ob       1    MUSC   O03qs       1     -1.05    15.999
   23153      ob       1    MUSC   O03qt       1     -1.05    15.999
   23154      ob       1    MUSC   O03qu       1     -1.05    15.999
   23155      oh       1    MUSC   O03qv       1     -0.95    15.999
   23156      oh       1    MUSC   O03qw       1     -0.95    15.999
   23157      oh       1    MUSC   O03qx       1     -0.95    15.999
   23158      oh       1    MUSC   O03qy       1     -0.95    15.999
   23159      ob       1    MUSC   O03qz       1     -1.05    15.999
   23160      ob       1    MUSC   O03r0       1     -1.05    15.999
   23161      ob       1    MUSC   O03r1       1     -1.05    15.999
   23162      ob       1    MUSC   O03r2       1     -1.05    15.999
   23163      ob       1    MUSC   O03r3       1     -1.05    15.999
   23164      ob       1    MUSC   O03r4       1     -1.05    15.999
   23165      ob       1    MUSC   O03r5       1     -1.05    15.999
   23166      ob       1    MUSC   O03r6       1     -1.05    15.999
   23167      ob       1    MUSC   O03r7       1     -1.05    15.999
   23168      ob       1    MUSC   O03r8       1     -1.05    15.999
   23169      ob       1    MUSC   O03r9       1     -1.05    15.999
   23170      ob       1    MUSC   O03rA       1     -1.05    15.999
   23171      ob       1    MUSC   O03rB       1     -1.05    15.999
   23172      ob       1    MUSC   O03rC       1     -1.05    15.999
   23173      ob       1    MUSC   O03rD       1     -1.05    15.999
   23174      ob       1    MUSC   O03rE       1     -1.05    15.999
   23175       K       1    MUSC   K00Ex       1       1.0    39.098
   23176       K       1    MUSC   K00Ey       1       1.0    39.098
   23177       K       1    MUSC   K00Ez       1       1.0    39.098
   23178       K       1    MUSC   K00F0       1       1.0    39.098
   23179      ao       1    MUSC   Al0dt       1     1.575    26.982
   23180      ao       1    MUSC   Al0du       1     1.575    26.982
   23181      ao       1    MUSC   Al0dv       1     1.575    26.982
   23182      ao       1    MUSC   Al0dw       1     1.575    26.982
   23183      ao       1    MUSC   Al0dx       1     1.575    26.982
   23184      ao       1    MUSC   Al0dy       1     1.575    26.982
   23185      ao       1    MUSC   Al0dz       1     1.575    26.982
   23186      ao       1    MUSC   Al0e0       1     1.575    26.982
   23187      st       1    MUSC   Si1Hl       1       2.1    28.086
   23188      st       1    MUSC   Si1Hm       1       2.1    28.086
   23189      st       1    MUSC   Si1Hn       1       2.1    28.086
   23190      st       1    MUSC   Si1Ho       1       2.1    28.086
   23191      st       1    MUSC   Si1Hp       1       2.1    28.086
   23192      st       1    MUSC   Si1Hq       1       2.1    28.086
   23193      st       1    MUSC   Si1Hr       1       2.1    28.086
   23194      st       1    MUSC   Si1Hs       1       2.1    28.086
   23195      st       1    MUSC   Si1Ht       1       2.1    28.086
   23196      st       1    MUSC   Si1Hu       1       2.1    28.086
   23197      st       1    MUSC   Si1Hv       1       2.1    28.086
   23198      st       1    MUSC   Si1Hw       1       2.1    28.086
   23199      st       1    MUSC   Si1Hx       1       2.1    28.086
   23200      st       1    MUSC   Si1Hy       1       2.1    28.086
   23201      st       1    MUSC   Si1Hz       1       2.1    28.086
   23202      st       1    MUSC   Si1I0       1       2.1    28.086
   23203      ob       1    MUSC   O03rF       1     -1.05    15.999
   23204      ob       1    MUSC   O03rG       1     -1.05    15.999
   23205      ob       1    MUSC   O03rH       1     -1.05    15.999
   23206      ob       1    MUSC   O03rI       1     -1.05    15.999
   23207      oh       1    MUSC   O03rJ       1     -0.95    15.999
   23208      oh       1    MUSC   O03rK       1     -0.95    15.999
   23209      oh       1    MUSC   O03rL       1     -0.95    15.999
   23210      oh       1    MUSC   O03rM       1     -0.95    15.999
   23211      ob       1    MUSC   O03rN       1     -1.05    15.999
   23212      ob       1    MUSC   O03rO       1     -1.05    15.999
   23213      ob       1    MUSC   O03rP       1     -1.05    15.999
   23214      ob       1    MUSC   O03rQ       1     -1.05    15.999
   23215      ob       1    MUSC   O03rR       1     -1.05    15.999
   23216      ob       1    MUSC   O03rS       1     -1.05    15.999
   23217      ob       1    MUSC   O03rT       1     -1.05    15.999
   23218      ob       1    MUSC   O03rU       1     -1.05    15.999
   23219      ob       1    MUSC   O03rV       1     -1.05    15.999
   23220      ob       1    MUSC   O03rW       1     -1.05    15.999
   23221      ob       1    MUSC   O03rX       1     -1.05    15.999
   23222      ob       1    MUSC   O03rY       1     -1.05    15.999
   23223      ob       1    MUSC   O03rZ       1     -1.05    15.999
   23224      ob       1    MUSC   O03ra       1     -1.05    15.999
   23225      ob       1    MUSC   O03rb       1     -1.05    15.999
   23226      ob       1    MUSC   O03rc       1     -1.05    15.999
   23227      ob       1    MUSC   O03rd       1     -1.05    15.999
   23228      ob       1    MUSC   O03re       1     -1.05    15.999
   23229      ob       1    MUSC   O03rf       1     -1.05    15.999
   23230      ob       1    MUSC   O03rg       1     -1.05    15.999
   23231      oh       1    MUSC   O03rh       1     -0.95    15.999
   23232      oh       1    MUSC   O03ri       1     -0.95    15.999
   23233      oh       1    MUSC   O03rj       1     -0.95    15.999
   23234      oh       1    MUSC   O03rk       1     -0.95    15.999
   23235      ob       1    MUSC   O03rl       1     -1.05    15.999
   23236      ob       1    MUSC   O03rm       1     -1.05    15.999
   23237      ob       1    MUSC   O03rn       1     -1.05    15.999
   23238      ob       1    MUSC   O03ro       1     -1.05    15.999
   23239      ob       1    MUSC   O03rp       1     -1.05    15.999
   23240      ob       1    MUSC   O03rq       1     -1.05    15.999
   23241      ob       1    MUSC   O03rr       1     -1.05    15.999
   23242      ob       1    MUSC   O03rs       1     -1.05    15.999
   23243      ob       1    MUSC   O03rt       1     -1.05    15.999
   23244      ob       1    MUSC   O03ru       1     -1.05    15.999
   23245      ob       1    MUSC   O03rv       1     -1.05    15.999
   23246      ob       1    MUSC   O03rw       1     -1.05    15.999
   23247      ob       1    MUSC   O03rx       1     -1.05    15.999
   23248      ob       1    MUSC   O03ry       1     -1.05    15.999
   23249      ob       1    MUSC   O03rz       1     -1.05    15.999
   23250      ob       1    MUSC   O03s0       1     -1.05    15.999
   23251       K       1    MUSC   K00F1       1       1.0    39.098
   23252       K       1    MUSC   K00F2       1       1.0    39.098
   23253      ao       1    MUSC   Al0e1       1     1.575    26.982
   23254      ao       1    MUSC   Al0e2       1     1.575    26.982
   23255      ao       1    MUSC   Al0e3       1     1.575    26.982
   23256      ao       1    MUSC   Al0e4       1     1.575    26.982
   23257      ao       1    MUSC   Al0e5       1     1.575    26.982
   23258      ao       1    MUSC   Al0e6       1     1.575    26.982
   23259      ao       1    MUSC   Al0e7       1     1.575    26.982
   23260      ao       1    MUSC   Al0e8       1     1.575    26.982
   23261      st       1    MUSC   Si1I1       1       2.1    28.086
   23262      st       1    MUSC   Si1I2       1       2.1    28.086
   23263      st       1    MUSC   Si1I3       1       2.1    28.086
   23264      st       1    MUSC   Si1I4       1       2.1    28.086
   23265      st       1    MUSC   Si1I5       1       2.1    28.086
   23266      st       1    MUSC   Si1I6       1       2.1    28.086
   23267      st       1    MUSC   Si1I7       1       2.1    28.086
   23268      st       1    MUSC   Si1I8       1       2.1    28.086
   23269      st       1    MUSC   Si1I9       1       2.1    28.086
   23270      st       1    MUSC   Si1IA       1       2.1    28.086
   23271      st       1    MUSC   Si1IB       1       2.1    28.086
   23272      st       1    MUSC   Si1IC       1       2.1    28.086
   23273      st       1    MUSC   Si1ID       1       2.1    28.086
   23274      st       1    MUSC   Si1IE       1       2.1    28.086
   23275      st       1    MUSC   Si1IF       1       2.1    28.086
   23276      st       1    MUSC   Si1IG       1       2.1    28.086
   23277      ob       1    MUSC   O03s1       1     -1.05    15.999
   23278      ob       1    MUSC   O03s2       1     -1.05    15.999
   23279      ob       1    MUSC   O03s3       1     -1.05    15.999
   23280      ob       1    MUSC   O03s4       1     -1.05    15.999
   23281      oh       1    MUSC   O03s5       1     -0.95    15.999
   23282      oh       1    MUSC   O03s6       1     -0.95    15.999
   23283      oh       1    MUSC   O03s7       1     -0.95    15.999
   23284      oh       1    MUSC   O03s8       1     -0.95    15.999
   23285      ob       1    MUSC   O03s9       1     -1.05    15.999
   23286      ob       1    MUSC   O03sA       1     -1.05    15.999
   23287      ob       1    MUSC   O03sB       1     -1.05    15.999
   23288      ob       1    MUSC   O03sC       1     -1.05    15.999
   23289      ob       1    MUSC   O03sD       1     -1.05    15.999
   23290      ob       1    MUSC   O03sE       1     -1.05    15.999
   23291      ob       1    MUSC   O03sF       1     -1.05    15.999
   23292      ob       1    MUSC   O03sG       1     -1.05    15.999
   23293      ob       1    MUSC   O03sH       1     -1.05    15.999
   23294      ob       1    MUSC   O03sI       1     -1.05    15.999
   23295      ob       1    MUSC   O03sJ       1     -1.05    15.999
   23296      ob       1    MUSC   O03sK       1     -1.05    15.999
   23297      ob       1    MUSC   O03sL       1     -1.05    15.999
   23298      ob       1    MUSC   O03sM       1     -1.05    15.999
   23299      ob       1    MUSC   O03sN       1     -1.05    15.999
   23300      ob       1    MUSC   O03sO       1     -1.05    15.999
   23301      ob       1    MUSC   O03sP       1     -1.05    15.999
   23302      ob       1    MUSC   O03sQ       1     -1.05    15.999
   23303      ob       1    MUSC   O03sR       1     -1.05    15.999
   23304      ob       1    MUSC   O03sS       1     -1.05    15.999
   23305      oh       1    MUSC   O03sT       1     -0.95    15.999
   23306      oh       1    MUSC   O03sU       1     -0.95    15.999
   23307      oh       1    MUSC   O03sV       1     -0.95    15.999
   23308      oh       1    MUSC   O03sW       1     -0.95    15.999
   23309      ob       1    MUSC   O03sX       1     -1.05    15.999
   23310      ob       1    MUSC   O03sY       1     -1.05    15.999
   23311      ob       1    MUSC   O03sZ       1     -1.05    15.999
   23312      ob       1    MUSC   O03sa       1     -1.05    15.999
   23313      ob       1    MUSC   O03sb       1     -1.05    15.999
   23314      ob       1    MUSC   O03sc       1     -1.05    15.999
   23315      ob       1    MUSC   O03sd       1     -1.05    15.999
   23316      ob       1    MUSC   O03se       1     -1.05    15.999
   23317      ob       1    MUSC   O03sf       1     -1.05    15.999
   23318      ob       1    MUSC   O03sg       1     -1.05    15.999
   23319      ob       1    MUSC   O03sh       1     -1.05    15.999
   23320      ob       1    MUSC   O03si       1     -1.05    15.999
   23321      ob       1    MUSC   O03sj       1     -1.05    15.999
   23322      ob       1    MUSC   O03sk       1     -1.05    15.999
   23323      ob       1    MUSC   O03sl       1     -1.05    15.999
   23324      ob       1    MUSC   O03sm       1     -1.05    15.999
   23325       K       1    MUSC   K00F3       1       1.0    39.098
   23326       K       1    MUSC   K00F4       1       1.0    39.098
   23327       K       1    MUSC   K00F5       1       1.0    39.098
   23328       K       1    MUSC   K00F6       1       1.0    39.098
   23329      ao       1    MUSC   Al0e9       1     1.575    26.982
   23330      ao       1    MUSC   Al0eA       1     1.575    26.982
   23331      ao       1    MUSC   Al0eB       1     1.575    26.982
   23332      ao       1    MUSC   Al0eC       1     1.575    26.982
   23333      ao       1    MUSC   Al0eD       1     1.575    26.982
   23334      ao       1    MUSC   Al0eE       1     1.575    26.982
   23335      ao       1    MUSC   Al0eF       1     1.575    26.982
   23336      ao       1    MUSC   Al0eG       1     1.575    26.982
   23337      st       1    MUSC   Si1IH       1       2.1    28.086
   23338      st       1    MUSC   Si1II       1       2.1    28.086
   23339      st       1    MUSC   Si1IJ       1       2.1    28.086
   23340      st       1    MUSC   Si1IK       1       2.1    28.086
   23341      st       1    MUSC   Si1IL       1       2.1    28.086
   23342      st       1    MUSC   Si1IM       1       2.1    28.086
   23343      st       1    MUSC   Si1IN       1       2.1    28.086
   23344      st       1    MUSC   Si1IO       1       2.1    28.086
   23345      st       1    MUSC   Si1IP       1       2.1    28.086
   23346      st       1    MUSC   Si1IQ       1       2.1    28.086
   23347      st       1    MUSC   Si1IR       1       2.1    28.086
   23348      st       1    MUSC   Si1IS       1       2.1    28.086
   23349      st       1    MUSC   Si1IT       1       2.1    28.086
   23350      st       1    MUSC   Si1IU       1       2.1    28.086
   23351      st       1    MUSC   Si1IV       1       2.1    28.086
   23352      st       1    MUSC   Si1IW       1       2.1    28.086
   23353      ob       1    MUSC   O03sn       1     -1.05    15.999
   23354      ob       1    MUSC   O03so       1     -1.05    15.999
   23355      ob       1    MUSC   O03sp       1     -1.05    15.999
   23356      ob       1    MUSC   O03sq       1     -1.05    15.999
   23357      oh       1    MUSC   O03sr       1     -0.95    15.999
   23358      oh       1    MUSC   O03ss       1     -0.95    15.999
   23359      oh       1    MUSC   O03st       1     -0.95    15.999
   23360      oh       1    MUSC   O03su       1     -0.95    15.999
   23361      ob       1    MUSC   O03sv       1     -1.05    15.999
   23362      ob       1    MUSC   O03sw       1     -1.05    15.999
   23363      ob       1    MUSC   O03sx       1     -1.05    15.999
   23364      ob       1    MUSC   O03sy       1     -1.05    15.999
   23365      ob       1    MUSC   O03sz       1     -1.05    15.999
   23366      ob       1    MUSC   O03t0       1     -1.05    15.999
   23367      ob       1    MUSC   O03t1       1     -1.05    15.999
   23368      ob       1    MUSC   O03t2       1     -1.05    15.999
   23369      ob       1    MUSC   O03t3       1     -1.05    15.999
   23370      ob       1    MUSC   O03t4       1     -1.05    15.999
   23371      ob       1    MUSC   O03t5       1     -1.05    15.999
   23372      ob       1    MUSC   O03t6       1     -1.05    15.999
   23373      ob       1    MUSC   O03t7       1     -1.05    15.999
   23374      ob       1    MUSC   O03t8       1     -1.05    15.999
   23375      ob       1    MUSC   O03t9       1     -1.05    15.999
   23376      ob       1    MUSC   O03tA       1     -1.05    15.999
   23377      ob       1    MUSC   O03tB       1     -1.05    15.999
   23378      ob       1    MUSC   O03tC       1     -1.05    15.999
   23379      ob       1    MUSC   O03tD       1     -1.05    15.999
   23380      ob       1    MUSC   O03tE       1     -1.05    15.999
   23381      oh       1    MUSC   O03tF       1     -0.95    15.999
   23382      oh       1    MUSC   O03tG       1     -0.95    15.999
   23383      oh       1    MUSC   O03tH       1     -0.95    15.999
   23384      oh       1    MUSC   O03tI       1     -0.95    15.999
   23385      ob       1    MUSC   O03tJ       1     -1.05    15.999
   23386      ob       1    MUSC   O03tK       1     -1.05    15.999
   23387      ob       1    MUSC   O03tL       1     -1.05    15.999
   23388      ob       1    MUSC   O03tM       1     -1.05    15.999
   23389      ob       1    MUSC   O03tN       1     -1.05    15.999
   23390      ob       1    MUSC   O03tO       1     -1.05    15.999
   23391      ob       1    MUSC   O03tP       1     -1.05    15.999
   23392      ob       1    MUSC   O03tQ       1     -1.05    15.999
   23393      ob       1    MUSC   O03tR       1     -1.05    15.999
   23394      ob       1    MUSC   O03tS       1     -1.05    15.999
   23395      ob       1    MUSC   O03tT       1     -1.05    15.999
   23396      ob       1    MUSC   O03tU       1     -1.05    15.999
   23397      ob       1    MUSC   O03tV       1     -1.05    15.999
   23398      ob       1    MUSC   O03tW       1     -1.05    15.999
   23399      ob       1    MUSC   O03tX       1     -1.05    15.999
   23400      ob       1    MUSC   O03tY       1     -1.05    15.999
   23401       K       1    MUSC   K00F7       1       1.0    39.098
   23402       K       1    MUSC   K00F8       1       1.0    39.098
   23403      ao       1    MUSC   Al0eH       1     1.575    26.982
   23404      ao       1    MUSC   Al0eI       1     1.575    26.982
   23405      ao       1    MUSC   Al0eJ       1     1.575    26.982
   23406      ao       1    MUSC   Al0eK       1     1.575    26.982
   23407      ao       1    MUSC   Al0eL       1     1.575    26.982
   23408      ao       1    MUSC   Al0eM       1     1.575    26.982
   23409      ao       1    MUSC   Al0eN       1     1.575    26.982
   23410      ao       1    MUSC   Al0eO       1     1.575    26.982
   23411      st       1    MUSC   Si1IX       1       2.1    28.086
   23412      st       1    MUSC   Si1IY       1       2.1    28.086
   23413      st       1    MUSC   Si1IZ       1       2.1    28.086
   23414      st       1    MUSC   Si1Ia       1       2.1    28.086
   23415      st       1    MUSC   Si1Ib       1       2.1    28.086
   23416      st       1    MUSC   Si1Ic       1       2.1    28.086
   23417      st       1    MUSC   Si1Id       1       2.1    28.086
   23418      st       1    MUSC   Si1Ie       1       2.1    28.086
   23419      st       1    MUSC   Si1If       1       2.1    28.086
   23420      st       1    MUSC   Si1Ig       1       2.1    28.086
   23421      st       1    MUSC   Si1Ih       1       2.1    28.086
   23422      st       1    MUSC   Si1Ii       1       2.1    28.086
   23423      st       1    MUSC   Si1Ij       1       2.1    28.086
   23424      st       1    MUSC   Si1Ik       1       2.1    28.086
   23425      st       1    MUSC   Si1Il       1       2.1    28.086
   23426      st       1    MUSC   Si1Im       1       2.1    28.086
   23427      ob       1    MUSC   O03tZ       1     -1.05    15.999
   23428      ob       1    MUSC   O03ta       1     -1.05    15.999
   23429      ob       1    MUSC   O03tb       1     -1.05    15.999
   23430      ob       1    MUSC   O03tc       1     -1.05    15.999
   23431      oh       1    MUSC   O03td       1     -0.95    15.999
   23432      oh       1    MUSC   O03te       1     -0.95    15.999
   23433      oh       1    MUSC   O03tf       1     -0.95    15.999
   23434      oh       1    MUSC   O03tg       1     -0.95    15.999
   23435      ob       1    MUSC   O03th       1     -1.05    15.999
   23436      ob       1    MUSC   O03ti       1     -1.05    15.999
   23437      ob       1    MUSC   O03tj       1     -1.05    15.999
   23438      ob       1    MUSC   O03tk       1     -1.05    15.999
   23439      ob       1    MUSC   O03tl       1     -1.05    15.999
   23440      ob       1    MUSC   O03tm       1     -1.05    15.999
   23441      ob       1    MUSC   O03tn       1     -1.05    15.999
   23442      ob       1    MUSC   O03to       1     -1.05    15.999
   23443      ob       1    MUSC   O03tp       1     -1.05    15.999
   23444      ob       1    MUSC   O03tq       1     -1.05    15.999
   23445      ob       1    MUSC   O03tr       1     -1.05    15.999
   23446      ob       1    MUSC   O03ts       1     -1.05    15.999
   23447      ob       1    MUSC   O03tt       1     -1.05    15.999
   23448      ob       1    MUSC   O03tu       1     -1.05    15.999
   23449      ob       1    MUSC   O03tv       1     -1.05    15.999
   23450      ob       1    MUSC   O03tw       1     -1.05    15.999
   23451      ob       1    MUSC   O03tx       1     -1.05    15.999
   23452      ob       1    MUSC   O03ty       1     -1.05    15.999
   23453      ob       1    MUSC   O03tz       1     -1.05    15.999
   23454      ob       1    MUSC   O03u0       1     -1.05    15.999
   23455      oh       1    MUSC   O03u1       1     -0.95    15.999
   23456      oh       1    MUSC   O03u2       1     -0.95    15.999
   23457      oh       1    MUSC   O03u3       1     -0.95    15.999
   23458      oh       1    MUSC   O03u4       1     -0.95    15.999
   23459      ob       1    MUSC   O03u5       1     -1.05    15.999
   23460      ob       1    MUSC   O03u6       1     -1.05    15.999
   23461      ob       1    MUSC   O03u7       1     -1.05    15.999
   23462      ob       1    MUSC   O03u8       1     -1.05    15.999
   23463      ob       1    MUSC   O03u9       1     -1.05    15.999
   23464      ob       1    MUSC   O03uA       1     -1.05    15.999
   23465      ob       1    MUSC   O03uB       1     -1.05    15.999
   23466      ob       1    MUSC   O03uC       1     -1.05    15.999
   23467      ob       1    MUSC   O03uD       1     -1.05    15.999
   23468      ob       1    MUSC   O03uE       1     -1.05    15.999
   23469      ob       1    MUSC   O03uF       1     -1.05    15.999
   23470      ob       1    MUSC   O03uG       1     -1.05    15.999
   23471      ob       1    MUSC   O03uH       1     -1.05    15.999
   23472      ob       1    MUSC   O03uI       1     -1.05    15.999
   23473      ob       1    MUSC   O03uJ       1     -1.05    15.999
   23474      ob       1    MUSC   O03uK       1     -1.05    15.999
   23475       K       1    MUSC   K00F9       1       1.0    39.098
   23476       K       1    MUSC   K00FA       1       1.0    39.098
   23477       K       1    MUSC   K00FB       1       1.0    39.098
   23478       K       1    MUSC   K00FC       1       1.0    39.098
   23479      ao       1    MUSC   Al0eP       1     1.575    26.982
   23480      ao       1    MUSC   Al0eQ       1     1.575    26.982
   23481      ao       1    MUSC   Al0eR       1     1.575    26.982
   23482      ao       1    MUSC   Al0eS       1     1.575    26.982
   23483      ao       1    MUSC   Al0eT       1     1.575    26.982
   23484      ao       1    MUSC   Al0eU       1     1.575    26.982
   23485      ao       1    MUSC   Al0eV       1     1.575    26.982
   23486      ao       1    MUSC   Al0eW       1     1.575    26.982
   23487      st       1    MUSC   Si1In       1       2.1    28.086
   23488      st       1    MUSC   Si1Io       1       2.1    28.086
   23489      st       1    MUSC   Si1Ip       1       2.1    28.086
   23490      st       1    MUSC   Si1Iq       1       2.1    28.086
   23491      st       1    MUSC   Si1Ir       1       2.1    28.086
   23492      st       1    MUSC   Si1Is       1       2.1    28.086
   23493      st       1    MUSC   Si1It       1       2.1    28.086
   23494      st       1    MUSC   Si1Iu       1       2.1    28.086
   23495      st       1    MUSC   Si1Iv       1       2.1    28.086
   23496      st       1    MUSC   Si1Iw       1       2.1    28.086
   23497      st       1    MUSC   Si1Ix       1       2.1    28.086
   23498      st       1    MUSC   Si1Iy       1       2.1    28.086
   23499      st       1    MUSC   Si1Iz       1       2.1    28.086
   23500      st       1    MUSC   Si1J0       1       2.1    28.086
   23501      st       1    MUSC   Si1J1       1       2.1    28.086
   23502      st       1    MUSC   Si1J2       1       2.1    28.086
   23503      ob       1    MUSC   O03uL       1     -1.05    15.999
   23504      ob       1    MUSC   O03uM       1     -1.05    15.999
   23505      ob       1    MUSC   O03uN       1     -1.05    15.999
   23506      ob       1    MUSC   O03uO       1     -1.05    15.999
   23507      oh       1    MUSC   O03uP       1     -0.95    15.999
   23508      oh       1    MUSC   O03uQ       1     -0.95    15.999
   23509      oh       1    MUSC   O03uR       1     -0.95    15.999
   23510      oh       1    MUSC   O03uS       1     -0.95    15.999
   23511      ob       1    MUSC   O03uT       1     -1.05    15.999
   23512      ob       1    MUSC   O03uU       1     -1.05    15.999
   23513      ob       1    MUSC   O03uV       1     -1.05    15.999
   23514      ob       1    MUSC   O03uW       1     -1.05    15.999
   23515      ob       1    MUSC   O03uX       1     -1.05    15.999
   23516      ob       1    MUSC   O03uY       1     -1.05    15.999
   23517      ob       1    MUSC   O03uZ       1     -1.05    15.999
   23518      ob       1    MUSC   O03ua       1     -1.05    15.999
   23519      ob       1    MUSC   O03ub       1     -1.05    15.999
   23520      ob       1    MUSC   O03uc       1     -1.05    15.999
   23521      ob       1    MUSC   O03ud       1     -1.05    15.999
   23522      ob       1    MUSC   O03ue       1     -1.05    15.999
   23523      ob       1    MUSC   O03uf       1     -1.05    15.999
   23524      ob       1    MUSC   O03ug       1     -1.05    15.999
   23525      ob       1    MUSC   O03uh       1     -1.05    15.999
   23526      ob       1    MUSC   O03ui       1     -1.05    15.999
   23527      ob       1    MUSC   O03uj       1     -1.05    15.999
   23528      ob       1    MUSC   O03uk       1     -1.05    15.999
   23529      ob       1    MUSC   O03ul       1     -1.05    15.999
   23530      ob       1    MUSC   O03um       1     -1.05    15.999
   23531      oh       1    MUSC   O03un       1     -0.95    15.999
   23532      oh       1    MUSC   O03uo       1     -0.95    15.999
   23533      oh       1    MUSC   O03up       1     -0.95    15.999
   23534      oh       1    MUSC   O03uq       1     -0.95    15.999
   23535      ob       1    MUSC   O03ur       1     -1.05    15.999
   23536      ob       1    MUSC   O03us       1     -1.05    15.999
   23537      ob       1    MUSC   O03ut       1     -1.05    15.999
   23538      ob       1    MUSC   O03uu       1     -1.05    15.999
   23539      ob       1    MUSC   O03uv       1     -1.05    15.999
   23540      ob       1    MUSC   O03uw       1     -1.05    15.999
   23541      ob       1    MUSC   O03ux       1     -1.05    15.999
   23542      ob       1    MUSC   O03uy       1     -1.05    15.999
   23543      ob       1    MUSC   O03uz       1     -1.05    15.999
   23544      ob       1    MUSC   O03v0       1     -1.05    15.999
   23545      ob       1    MUSC   O03v1       1     -1.05    15.999
   23546      ob       1    MUSC   O03v2       1     -1.05    15.999
   23547      ob       1    MUSC   O03v3       1     -1.05    15.999
   23548      ob       1    MUSC   O03v4       1     -1.05    15.999
   23549      ob       1    MUSC   O03v5       1     -1.05    15.999
   23550      ob       1    MUSC   O03v6       1     -1.05    15.999
   23551       K       1    MUSC   K00FD       1       1.0    39.098
   23552       K       1    MUSC   K00FE       1       1.0    39.098
   23553      ao       1    MUSC   Al0eX       1     1.575    26.982
   23554      ao       1    MUSC   Al0eY       1     1.575    26.982
   23555      ao       1    MUSC   Al0eZ       1     1.575    26.982
   23556      ao       1    MUSC   Al0ea       1     1.575    26.982
   23557      ao       1    MUSC   Al0eb       1     1.575    26.982
   23558      ao       1    MUSC   Al0ec       1     1.575    26.982
   23559      ao       1    MUSC   Al0ed       1     1.575    26.982
   23560      ao       1    MUSC   Al0ee       1     1.575    26.982
   23561      st       1    MUSC   Si1J3       1       2.1    28.086
   23562      st       1    MUSC   Si1J4       1       2.1    28.086
   23563      st       1    MUSC   Si1J5       1       2.1    28.086
   23564      st       1    MUSC   Si1J6       1       2.1    28.086
   23565      st       1    MUSC   Si1J7       1       2.1    28.086
   23566      st       1    MUSC   Si1J8       1       2.1    28.086
   23567      st       1    MUSC   Si1J9       1       2.1    28.086
   23568      st       1    MUSC   Si1JA       1       2.1    28.086
   23569      st       1    MUSC   Si1JB       1       2.1    28.086
   23570      st       1    MUSC   Si1JC       1       2.1    28.086
   23571      st       1    MUSC   Si1JD       1       2.1    28.086
   23572      st       1    MUSC   Si1JE       1       2.1    28.086
   23573      st       1    MUSC   Si1JF       1       2.1    28.086
   23574      st       1    MUSC   Si1JG       1       2.1    28.086
   23575      st       1    MUSC   Si1JH       1       2.1    28.086
   23576      st       1    MUSC   Si1JI       1       2.1    28.086
   23577      ob       1    MUSC   O03v7       1     -1.05    15.999
   23578      ob       1    MUSC   O03v8       1     -1.05    15.999
   23579      ob       1    MUSC   O03v9       1     -1.05    15.999
   23580      ob       1    MUSC   O03vA       1     -1.05    15.999
   23581      oh       1    MUSC   O03vB       1     -0.95    15.999
   23582      oh       1    MUSC   O03vC       1     -0.95    15.999
   23583      oh       1    MUSC   O03vD       1     -0.95    15.999
   23584      oh       1    MUSC   O03vE       1     -0.95    15.999
   23585      ob       1    MUSC   O03vF       1     -1.05    15.999
   23586      ob       1    MUSC   O03vG       1     -1.05    15.999
   23587      ob       1    MUSC   O03vH       1     -1.05    15.999
   23588      ob       1    MUSC   O03vI       1     -1.05    15.999
   23589      ob       1    MUSC   O03vJ       1     -1.05    15.999
   23590      ob       1    MUSC   O03vK       1     -1.05    15.999
   23591      ob       1    MUSC   O03vL       1     -1.05    15.999
   23592      ob       1    MUSC   O03vM       1     -1.05    15.999
   23593      ob       1    MUSC   O03vN       1     -1.05    15.999
   23594      ob       1    MUSC   O03vO       1     -1.05    15.999
   23595      ob       1    MUSC   O03vP       1     -1.05    15.999
   23596      ob       1    MUSC   O03vQ       1     -1.05    15.999
   23597      ob       1    MUSC   O03vR       1     -1.05    15.999
   23598      ob       1    MUSC   O03vS       1     -1.05    15.999
   23599      ob       1    MUSC   O03vT       1     -1.05    15.999
   23600      ob       1    MUSC   O03vU       1     -1.05    15.999
   23601      ob       1    MUSC   O03vV       1     -1.05    15.999
   23602      ob       1    MUSC   O03vW       1     -1.05    15.999
   23603      ob       1    MUSC   O03vX       1     -1.05    15.999
   23604      ob       1    MUSC   O03vY       1     -1.05    15.999
   23605      oh       1    MUSC   O03vZ       1     -0.95    15.999
   23606      oh       1    MUSC   O03va       1     -0.95    15.999
   23607      oh       1    MUSC   O03vb       1     -0.95    15.999
   23608      oh       1    MUSC   O03vc       1     -0.95    15.999
   23609      ob       1    MUSC   O03vd       1     -1.05    15.999
   23610      ob       1    MUSC   O03ve       1     -1.05    15.999
   23611      ob       1    MUSC   O03vf       1     -1.05    15.999
   23612      ob       1    MUSC   O03vg       1     -1.05    15.999
   23613      ob       1    MUSC   O03vh       1     -1.05    15.999
   23614      ob       1    MUSC   O03vi       1     -1.05    15.999
   23615      ob       1    MUSC   O03vj       1     -1.05    15.999
   23616      ob       1    MUSC   O03vk       1     -1.05    15.999
   23617      ob       1    MUSC   O03vl       1     -1.05    15.999
   23618      ob       1    MUSC   O03vm       1     -1.05    15.999
   23619      ob       1    MUSC   O03vn       1     -1.05    15.999
   23620      ob       1    MUSC   O03vo       1     -1.05    15.999
   23621      ob       1    MUSC   O03vp       1     -1.05    15.999
   23622      ob       1    MUSC   O03vq       1     -1.05    15.999
   23623      ob       1    MUSC   O03vr       1     -1.05    15.999
   23624      ob       1    MUSC   O03vs       1     -1.05    15.999
   23625       K       1    MUSC   K00FF       1       1.0    39.098
   23626       K       1    MUSC   K00FG       1       1.0    39.098
   23627       K       1    MUSC   K00FH       1       1.0    39.098
   23628       K       1    MUSC   K00FI       1       1.0    39.098
   23629      ao       1    MUSC   Al0ef       1     1.575    26.982
   23630      ao       1    MUSC   Al0eg       1     1.575    26.982
   23631      ao       1    MUSC   Al0eh       1     1.575    26.982
   23632      ao       1    MUSC   Al0ei       1     1.575    26.982
   23633      ao       1    MUSC   Al0ej       1     1.575    26.982
   23634      ao       1    MUSC   Al0ek       1     1.575    26.982
   23635      ao       1    MUSC   Al0el       1     1.575    26.982
   23636      ao       1    MUSC   Al0em       1     1.575    26.982
   23637      st       1    MUSC   Si1JJ       1       2.1    28.086
   23638      st       1    MUSC   Si1JK       1       2.1    28.086
   23639      st       1    MUSC   Si1JL       1       2.1    28.086
   23640      st       1    MUSC   Si1JM       1       2.1    28.086
   23641      st       1    MUSC   Si1JN       1       2.1    28.086
   23642      st       1    MUSC   Si1JO       1       2.1    28.086
   23643      st       1    MUSC   Si1JP       1       2.1    28.086
   23644      st       1    MUSC   Si1JQ       1       2.1    28.086
   23645      st       1    MUSC   Si1JR       1       2.1    28.086
   23646      st       1    MUSC   Si1JS       1       2.1    28.086
   23647      st       1    MUSC   Si1JT       1       2.1    28.086
   23648      st       1    MUSC   Si1JU       1       2.1    28.086
   23649      st       1    MUSC   Si1JV       1       2.1    28.086
   23650      st       1    MUSC   Si1JW       1       2.1    28.086
   23651      st       1    MUSC   Si1JX       1       2.1    28.086
   23652      st       1    MUSC   Si1JY       1       2.1    28.086
   23653      ob       1    MUSC   O03vt       1     -1.05    15.999
   23654      ob       1    MUSC   O03vu       1     -1.05    15.999
   23655      ob       1    MUSC   O03vv       1     -1.05    15.999
   23656      ob       1    MUSC   O03vw       1     -1.05    15.999
   23657      oh       1    MUSC   O03vx       1     -0.95    15.999
   23658      oh       1    MUSC   O03vy       1     -0.95    15.999
   23659      oh       1    MUSC   O03vz       1     -0.95    15.999
   23660      oh       1    MUSC   O03w0       1     -0.95    15.999
   23661      ob       1    MUSC   O03w1       1     -1.05    15.999
   23662      ob       1    MUSC   O03w2       1     -1.05    15.999
   23663      ob       1    MUSC   O03w3       1     -1.05    15.999
   23664      ob       1    MUSC   O03w4       1     -1.05    15.999
   23665      ob       1    MUSC   O03w5       1     -1.05    15.999
   23666      ob       1    MUSC   O03w6       1     -1.05    15.999
   23667      ob       1    MUSC   O03w7       1     -1.05    15.999
   23668      ob       1    MUSC   O03w8       1     -1.05    15.999
   23669      ob       1    MUSC   O03w9       1     -1.05    15.999
   23670      ob       1    MUSC   O03wA       1     -1.05    15.999
   23671      ob       1    MUSC   O03wB       1     -1.05    15.999
   23672      ob       1    MUSC   O03wC       1     -1.05    15.999
   23673      ob       1    MUSC   O03wD       1     -1.05    15.999
   23674      ob       1    MUSC   O03wE       1     -1.05    15.999
   23675      ob       1    MUSC   O03wF       1     -1.05    15.999
   23676      ob       1    MUSC   O03wG       1     -1.05    15.999
   23677      ob       1    MUSC   O03wH       1     -1.05    15.999
   23678      ob       1    MUSC   O03wI       1     -1.05    15.999
   23679      ob       1    MUSC   O03wJ       1     -1.05    15.999
   23680      ob       1    MUSC   O03wK       1     -1.05    15.999
   23681      oh       1    MUSC   O03wL       1     -0.95    15.999
   23682      oh       1    MUSC   O03wM       1     -0.95    15.999
   23683      oh       1    MUSC   O03wN       1     -0.95    15.999
   23684      oh       1    MUSC   O03wO       1     -0.95    15.999
   23685      ob       1    MUSC   O03wP       1     -1.05    15.999
   23686      ob       1    MUSC   O03wQ       1     -1.05    15.999
   23687      ob       1    MUSC   O03wR       1     -1.05    15.999
   23688      ob       1    MUSC   O03wS       1     -1.05    15.999
   23689      ob       1    MUSC   O03wT       1     -1.05    15.999
   23690      ob       1    MUSC   O03wU       1     -1.05    15.999
   23691      ob       1    MUSC   O03wV       1     -1.05    15.999
   23692      ob       1    MUSC   O03wW       1     -1.05    15.999
   23693      ob       1    MUSC   O03wX       1     -1.05    15.999
   23694      ob       1    MUSC   O03wY       1     -1.05    15.999
   23695      ob       1    MUSC   O03wZ       1     -1.05    15.999
   23696      ob       1    MUSC   O03wa       1     -1.05    15.999
   23697      ob       1    MUSC   O03wb       1     -1.05    15.999
   23698      ob       1    MUSC   O03wc       1     -1.05    15.999
   23699      ob       1    MUSC   O03wd       1     -1.05    15.999
   23700      ob       1    MUSC   O03we       1     -1.05    15.999
   23701       K       1    MUSC   K00FJ       1       1.0    39.098
   23702       K       1    MUSC   K00FK       1       1.0    39.098
   23703      ao       1    MUSC   Al0en       1     1.575    26.982
   23704      ao       1    MUSC   Al0eo       1     1.575    26.982
   23705      ao       1    MUSC   Al0ep       1     1.575    26.982
   23706      ao       1    MUSC   Al0eq       1     1.575    26.982
   23707      ao       1    MUSC   Al0er       1     1.575    26.982
   23708      ao       1    MUSC   Al0es       1     1.575    26.982
   23709      ao       1    MUSC   Al0et       1     1.575    26.982
   23710      ao       1    MUSC   Al0eu       1     1.575    26.982
   23711      st       1    MUSC   Si1JZ       1       2.1    28.086
   23712      st       1    MUSC   Si1Ja       1       2.1    28.086
   23713      st       1    MUSC   Si1Jb       1       2.1    28.086
   23714      st       1    MUSC   Si1Jc       1       2.1    28.086
   23715      st       1    MUSC   Si1Jd       1       2.1    28.086
   23716      st       1    MUSC   Si1Je       1       2.1    28.086
   23717      st       1    MUSC   Si1Jf       1       2.1    28.086
   23718      st       1    MUSC   Si1Jg       1       2.1    28.086
   23719      st       1    MUSC   Si1Jh       1       2.1    28.086
   23720      st       1    MUSC   Si1Ji       1       2.1    28.086
   23721      st       1    MUSC   Si1Jj       1       2.1    28.086
   23722      st       1    MUSC   Si1Jk       1       2.1    28.086
   23723      st       1    MUSC   Si1Jl       1       2.1    28.086
   23724      st       1    MUSC   Si1Jm       1       2.1    28.086
   23725      st       1    MUSC   Si1Jn       1       2.1    28.086
   23726      st       1    MUSC   Si1Jo       1       2.1    28.086
   23727      ob       1    MUSC   O03wf       1     -1.05    15.999
   23728      ob       1    MUSC   O03wg       1     -1.05    15.999
   23729      ob       1    MUSC   O03wh       1     -1.05    15.999
   23730      ob       1    MUSC   O03wi       1     -1.05    15.999
   23731      oh       1    MUSC   O03wj       1     -0.95    15.999
   23732      oh       1    MUSC   O03wk       1     -0.95    15.999
   23733      oh       1    MUSC   O03wl       1     -0.95    15.999
   23734      oh       1    MUSC   O03wm       1     -0.95    15.999
   23735      ob       1    MUSC   O03wn       1     -1.05    15.999
   23736      ob       1    MUSC   O03wo       1     -1.05    15.999
   23737      ob       1    MUSC   O03wp       1     -1.05    15.999
   23738      ob       1    MUSC   O03wq       1     -1.05    15.999
   23739      ob       1    MUSC   O03wr       1     -1.05    15.999
   23740      ob       1    MUSC   O03ws       1     -1.05    15.999
   23741      ob       1    MUSC   O03wt       1     -1.05    15.999
   23742      ob       1    MUSC   O03wu       1     -1.05    15.999
   23743      ob       1    MUSC   O03wv       1     -1.05    15.999
   23744      ob       1    MUSC   O03ww       1     -1.05    15.999
   23745      ob       1    MUSC   O03wx       1     -1.05    15.999
   23746      ob       1    MUSC   O03wy       1     -1.05    15.999
   23747      ob       1    MUSC   O03wz       1     -1.05    15.999
   23748      ob       1    MUSC   O03x0       1     -1.05    15.999
   23749      ob       1    MUSC   O03x1       1     -1.05    15.999
   23750      ob       1    MUSC   O03x2       1     -1.05    15.999
   23751      ob       1    MUSC   O03x3       1     -1.05    15.999
   23752      ob       1    MUSC   O03x4       1     -1.05    15.999
   23753      ob       1    MUSC   O03x5       1     -1.05    15.999
   23754      ob       1    MUSC   O03x6       1     -1.05    15.999
   23755      oh       1    MUSC   O03x7       1     -0.95    15.999
   23756      oh       1    MUSC   O03x8       1     -0.95    15.999
   23757      oh       1    MUSC   O03x9       1     -0.95    15.999
   23758      oh       1    MUSC   O03xA       1     -0.95    15.999
   23759      ob       1    MUSC   O03xB       1     -1.05    15.999
   23760      ob       1    MUSC   O03xC       1     -1.05    15.999
   23761      ob       1    MUSC   O03xD       1     -1.05    15.999
   23762      ob       1    MUSC   O03xE       1     -1.05    15.999
   23763      ob       1    MUSC   O03xF       1     -1.05    15.999
   23764      ob       1    MUSC   O03xG       1     -1.05    15.999
   23765      ob       1    MUSC   O03xH       1     -1.05    15.999
   23766      ob       1    MUSC   O03xI       1     -1.05    15.999
   23767      ob       1    MUSC   O03xJ       1     -1.05    15.999
   23768      ob       1    MUSC   O03xK       1     -1.05    15.999
   23769      ob       1    MUSC   O03xL       1     -1.05    15.999
   23770      ob       1    MUSC   O03xM       1     -1.05    15.999
   23771      ob       1    MUSC   O03xN       1     -1.05    15.999
   23772      ob       1    MUSC   O03xO       1     -1.05    15.999
   23773      ob       1    MUSC   O03xP       1     -1.05    15.999
   23774      ob       1    MUSC   O03xQ       1     -1.05    15.999
   23775       K       1    MUSC   K00FL       1       1.0    39.098
   23776       K       1    MUSC   K00FM       1       1.0    39.098
   23777       K       1    MUSC   K00FN       1       1.0    39.098
   23778       K       1    MUSC   K00FO       1       1.0    39.098
   23779      ao       1    MUSC   Al0ev       1     1.575    26.982
   23780      ao       1    MUSC   Al0ew       1     1.575    26.982
   23781      ao       1    MUSC   Al0ex       1     1.575    26.982
   23782      ao       1    MUSC   Al0ey       1     1.575    26.982
   23783      ao       1    MUSC   Al0ez       1     1.575    26.982
   23784      ao       1    MUSC   Al0f0       1     1.575    26.982
   23785      ao       1    MUSC   Al0f1       1     1.575    26.982
   23786      ao       1    MUSC   Al0f2       1     1.575    26.982
   23787      st       1    MUSC   Si1Jp       1       2.1    28.086
   23788      st       1    MUSC   Si1Jq       1       2.1    28.086
   23789      st       1    MUSC   Si1Jr       1       2.1    28.086
   23790      st       1    MUSC   Si1Js       1       2.1    28.086
   23791      st       1    MUSC   Si1Jt       1       2.1    28.086
   23792      st       1    MUSC   Si1Ju       1       2.1    28.086
   23793      st       1    MUSC   Si1Jv       1       2.1    28.086
   23794      st       1    MUSC   Si1Jw       1       2.1    28.086
   23795      st       1    MUSC   Si1Jx       1       2.1    28.086
   23796      st       1    MUSC   Si1Jy       1       2.1    28.086
   23797      st       1    MUSC   Si1Jz       1       2.1    28.086
   23798      st       1    MUSC   Si1K0       1       2.1    28.086
   23799      st       1    MUSC   Si1K1       1       2.1    28.086
   23800      st       1    MUSC   Si1K2       1       2.1    28.086
   23801      st       1    MUSC   Si1K3       1       2.1    28.086
   23802      st       1    MUSC   Si1K4       1       2.1    28.086
   23803      ob       1    MUSC   O03xR       1     -1.05    15.999
   23804      ob       1    MUSC   O03xS       1     -1.05    15.999
   23805      ob       1    MUSC   O03xT       1     -1.05    15.999
   23806      ob       1    MUSC   O03xU       1     -1.05    15.999
   23807      oh       1    MUSC   O03xV       1     -0.95    15.999
   23808      oh       1    MUSC   O03xW       1     -0.95    15.999
   23809      oh       1    MUSC   O03xX       1     -0.95    15.999
   23810      oh       1    MUSC   O03xY       1     -0.95    15.999
   23811      ob       1    MUSC   O03xZ       1     -1.05    15.999
   23812      ob       1    MUSC   O03xa       1     -1.05    15.999
   23813      ob       1    MUSC   O03xb       1     -1.05    15.999
   23814      ob       1    MUSC   O03xc       1     -1.05    15.999
   23815      ob       1    MUSC   O03xd       1     -1.05    15.999
   23816      ob       1    MUSC   O03xe       1     -1.05    15.999
   23817      ob       1    MUSC   O03xf       1     -1.05    15.999
   23818      ob       1    MUSC   O03xg       1     -1.05    15.999
   23819      ob       1    MUSC   O03xh       1     -1.05    15.999
   23820      ob       1    MUSC   O03xi       1     -1.05    15.999
   23821      ob       1    MUSC   O03xj       1     -1.05    15.999
   23822      ob       1    MUSC   O03xk       1     -1.05    15.999
   23823      ob       1    MUSC   O03xl       1     -1.05    15.999
   23824      ob       1    MUSC   O03xm       1     -1.05    15.999
   23825      ob       1    MUSC   O03xn       1     -1.05    15.999
   23826      ob       1    MUSC   O03xo       1     -1.05    15.999
   23827      ob       1    MUSC   O03xp       1     -1.05    15.999
   23828      ob       1    MUSC   O03xq       1     -1.05    15.999
   23829      ob       1    MUSC   O03xr       1     -1.05    15.999
   23830      ob       1    MUSC   O03xs       1     -1.05    15.999
   23831      oh       1    MUSC   O03xt       1     -0.95    15.999
   23832      oh       1    MUSC   O03xu       1     -0.95    15.999
   23833      oh       1    MUSC   O03xv       1     -0.95    15.999
   23834      oh       1    MUSC   O03xw       1     -0.95    15.999
   23835      ob       1    MUSC   O03xx       1     -1.05    15.999
   23836      ob       1    MUSC   O03xy       1     -1.05    15.999
   23837      ob       1    MUSC   O03xz       1     -1.05    15.999
   23838      ob       1    MUSC   O03y0       1     -1.05    15.999
   23839      ob       1    MUSC   O03y1       1     -1.05    15.999
   23840      ob       1    MUSC   O03y2       1     -1.05    15.999
   23841      ob       1    MUSC   O03y3       1     -1.05    15.999
   23842      ob       1    MUSC   O03y4       1     -1.05    15.999
   23843      ob       1    MUSC   O03y5       1     -1.05    15.999
   23844      ob       1    MUSC   O03y6       1     -1.05    15.999
   23845      ob       1    MUSC   O03y7       1     -1.05    15.999
   23846      ob       1    MUSC   O03y8       1     -1.05    15.999
   23847      ob       1    MUSC   O03y9       1     -1.05    15.999
   23848      ob       1    MUSC   O03yA       1     -1.05    15.999
   23849      ob       1    MUSC   O03yB       1     -1.05    15.999
   23850      ob       1    MUSC   O03yC       1     -1.05    15.999
   23851       K       1    MUSC   K00FP       1       1.0    39.098
   23852       K       1    MUSC   K00FQ       1       1.0    39.098
   23853      ao       1    MUSC   Al0f3       1     1.575    26.982
   23854      ao       1    MUSC   Al0f4       1     1.575    26.982
   23855      ao       1    MUSC   Al0f5       1     1.575    26.982
   23856      ao       1    MUSC   Al0f6       1     1.575    26.982
   23857      ao       1    MUSC   Al0f7       1     1.575    26.982
   23858      ao       1    MUSC   Al0f8       1     1.575    26.982
   23859      ao       1    MUSC   Al0f9       1     1.575    26.982
   23860      ao       1    MUSC   Al0fA       1     1.575    26.982
   23861      st       1    MUSC   Si1K5       1       2.1    28.086
   23862      st       1    MUSC   Si1K6       1       2.1    28.086
   23863      st       1    MUSC   Si1K7       1       2.1    28.086
   23864      st       1    MUSC   Si1K8       1       2.1    28.086
   23865      st       1    MUSC   Si1K9       1       2.1    28.086
   23866      st       1    MUSC   Si1KA       1       2.1    28.086
   23867      st       1    MUSC   Si1KB       1       2.1    28.086
   23868      st       1    MUSC   Si1KC       1       2.1    28.086
   23869      st       1    MUSC   Si1KD       1       2.1    28.086
   23870      st       1    MUSC   Si1KE       1       2.1    28.086
   23871      st       1    MUSC   Si1KF       1       2.1    28.086
   23872      st       1    MUSC   Si1KG       1       2.1    28.086
   23873      st       1    MUSC   Si1KH       1       2.1    28.086
   23874      st       1    MUSC   Si1KI       1       2.1    28.086
   23875      st       1    MUSC   Si1KJ       1       2.1    28.086
   23876      st       1    MUSC   Si1KK       1       2.1    28.086
   23877      ob       1    MUSC   O03yD       1     -1.05    15.999
   23878      ob       1    MUSC   O03yE       1     -1.05    15.999
   23879      ob       1    MUSC   O03yF       1     -1.05    15.999
   23880      ob       1    MUSC   O03yG       1     -1.05    15.999
   23881      oh       1    MUSC   O03yH       1     -0.95    15.999
   23882      oh       1    MUSC   O03yI       1     -0.95    15.999
   23883      oh       1    MUSC   O03yJ       1     -0.95    15.999
   23884      oh       1    MUSC   O03yK       1     -0.95    15.999
   23885      ob       1    MUSC   O03yL       1     -1.05    15.999
   23886      ob       1    MUSC   O03yM       1     -1.05    15.999
   23887      ob       1    MUSC   O03yN       1     -1.05    15.999
   23888      ob       1    MUSC   O03yO       1     -1.05    15.999
   23889      ob       1    MUSC   O03yP       1     -1.05    15.999
   23890      ob       1    MUSC   O03yQ       1     -1.05    15.999
   23891      ob       1    MUSC   O03yR       1     -1.05    15.999
   23892      ob       1    MUSC   O03yS       1     -1.05    15.999
   23893      ob       1    MUSC   O03yT       1     -1.05    15.999
   23894      ob       1    MUSC   O03yU       1     -1.05    15.999
   23895      ob       1    MUSC   O03yV       1     -1.05    15.999
   23896      ob       1    MUSC   O03yW       1     -1.05    15.999
   23897      ob       1    MUSC   O03yX       1     -1.05    15.999
   23898      ob       1    MUSC   O03yY       1     -1.05    15.999
   23899      ob       1    MUSC   O03yZ       1     -1.05    15.999
   23900      ob       1    MUSC   O03ya       1     -1.05    15.999
   23901      ob       1    MUSC   O03yb       1     -1.05    15.999
   23902      ob       1    MUSC   O03yc       1     -1.05    15.999
   23903      ob       1    MUSC   O03yd       1     -1.05    15.999
   23904      ob       1    MUSC   O03ye       1     -1.05    15.999
   23905      oh       1    MUSC   O03yf       1     -0.95    15.999
   23906      oh       1    MUSC   O03yg       1     -0.95    15.999
   23907      oh       1    MUSC   O03yh       1     -0.95    15.999
   23908      oh       1    MUSC   O03yi       1     -0.95    15.999
   23909      ob       1    MUSC   O03yj       1     -1.05    15.999
   23910      ob       1    MUSC   O03yk       1     -1.05    15.999
   23911      ob       1    MUSC   O03yl       1     -1.05    15.999
   23912      ob       1    MUSC   O03ym       1     -1.05    15.999
   23913      ob       1    MUSC   O03yn       1     -1.05    15.999
   23914      ob       1    MUSC   O03yo       1     -1.05    15.999
   23915      ob       1    MUSC   O03yp       1     -1.05    15.999
   23916      ob       1    MUSC   O03yq       1     -1.05    15.999
   23917      ob       1    MUSC   O03yr       1     -1.05    15.999
   23918      ob       1    MUSC   O03ys       1     -1.05    15.999
   23919      ob       1    MUSC   O03yt       1     -1.05    15.999
   23920      ob       1    MUSC   O03yu       1     -1.05    15.999
   23921      ob       1    MUSC   O03yv       1     -1.05    15.999
   23922      ob       1    MUSC   O03yw       1     -1.05    15.999
   23923      ob       1    MUSC   O03yx       1     -1.05    15.999
   23924      ob       1    MUSC   O03yy       1     -1.05    15.999
   23925       K       1    MUSC   K00FR       1       1.0    39.098
   23926       K       1    MUSC   K00FS       1       1.0    39.098
   23927       K       1    MUSC   K00FT       1       1.0    39.098
   23928       K       1    MUSC   K00FU       1       1.0    39.098
   23929      ao       1    MUSC   Al0fB       1     1.575    26.982
   23930      ao       1    MUSC   Al0fC       1     1.575    26.982
   23931      ao       1    MUSC   Al0fD       1     1.575    26.982
   23932      ao       1    MUSC   Al0fE       1     1.575    26.982
   23933      ao       1    MUSC   Al0fF       1     1.575    26.982
   23934      ao       1    MUSC   Al0fG       1     1.575    26.982
   23935      ao       1    MUSC   Al0fH       1     1.575    26.982
   23936      ao       1    MUSC   Al0fI       1     1.575    26.982
   23937      st       1    MUSC   Si1KL       1       2.1    28.086
   23938      st       1    MUSC   Si1KM       1       2.1    28.086
   23939      st       1    MUSC   Si1KN       1       2.1    28.086
   23940      st       1    MUSC   Si1KO       1       2.1    28.086
   23941      st       1    MUSC   Si1KP       1       2.1    28.086
   23942      st       1    MUSC   Si1KQ       1       2.1    28.086
   23943      st       1    MUSC   Si1KR       1       2.1    28.086
   23944      st       1    MUSC   Si1KS       1       2.1    28.086
   23945      st       1    MUSC   Si1KT       1       2.1    28.086
   23946      st       1    MUSC   Si1KU       1       2.1    28.086
   23947      st       1    MUSC   Si1KV       1       2.1    28.086
   23948      st       1    MUSC   Si1KW       1       2.1    28.086
   23949      st       1    MUSC   Si1KX       1       2.1    28.086
   23950      st       1    MUSC   Si1KY       1       2.1    28.086
   23951      st       1    MUSC   Si1KZ       1       2.1    28.086
   23952      st       1    MUSC   Si1Ka       1       2.1    28.086
   23953      ob       1    MUSC   O03yz       1     -1.05    15.999
   23954      ob       1    MUSC   O03z0       1     -1.05    15.999
   23955      ob       1    MUSC   O03z1       1     -1.05    15.999
   23956      ob       1    MUSC   O03z2       1     -1.05    15.999
   23957      oh       1    MUSC   O03z3       1     -0.95    15.999
   23958      oh       1    MUSC   O03z4       1     -0.95    15.999
   23959      oh       1    MUSC   O03z5       1     -0.95    15.999
   23960      oh       1    MUSC   O03z6       1     -0.95    15.999
   23961      ob       1    MUSC   O03z7       1     -1.05    15.999
   23962      ob       1    MUSC   O03z8       1     -1.05    15.999
   23963      ob       1    MUSC   O03z9       1     -1.05    15.999
   23964      ob       1    MUSC   O03zA       1     -1.05    15.999
   23965      ob       1    MUSC   O03zB       1     -1.05    15.999
   23966      ob       1    MUSC   O03zC       1     -1.05    15.999
   23967      ob       1    MUSC   O03zD       1     -1.05    15.999
   23968      ob       1    MUSC   O03zE       1     -1.05    15.999
   23969      ob       1    MUSC   O03zF       1     -1.05    15.999
   23970      ob       1    MUSC   O03zG       1     -1.05    15.999
   23971      ob       1    MUSC   O03zH       1     -1.05    15.999
   23972      ob       1    MUSC   O03zI       1     -1.05    15.999
   23973      ob       1    MUSC   O03zJ       1     -1.05    15.999
   23974      ob       1    MUSC   O03zK       1     -1.05    15.999
   23975      ob       1    MUSC   O03zL       1     -1.05    15.999
   23976      ob       1    MUSC   O03zM       1     -1.05    15.999
   23977      ob       1    MUSC   O03zN       1     -1.05    15.999
   23978      ob       1    MUSC   O03zO       1     -1.05    15.999
   23979      ob       1    MUSC   O03zP       1     -1.05    15.999
   23980      ob       1    MUSC   O03zQ       1     -1.05    15.999
   23981      oh       1    MUSC   O03zR       1     -0.95    15.999
   23982      oh       1    MUSC   O03zS       1     -0.95    15.999
   23983      oh       1    MUSC   O03zT       1     -0.95    15.999
   23984      oh       1    MUSC   O03zU       1     -0.95    15.999
   23985      ob       1    MUSC   O03zV       1     -1.05    15.999
   23986      ob       1    MUSC   O03zW       1     -1.05    15.999
   23987      ob       1    MUSC   O03zX       1     -1.05    15.999
   23988      ob       1    MUSC   O03zY       1     -1.05    15.999
   23989      ob       1    MUSC   O03zZ       1     -1.05    15.999
   23990      ob       1    MUSC   O03za       1     -1.05    15.999
   23991      ob       1    MUSC   O03zb       1     -1.05    15.999
   23992      ob       1    MUSC   O03zc       1     -1.05    15.999
   23993      ob       1    MUSC   O03zd       1     -1.05    15.999
   23994      ob       1    MUSC   O03ze       1     -1.05    15.999
   23995      ob       1    MUSC   O03zf       1     -1.05    15.999
   23996      ob       1    MUSC   O03zg       1     -1.05    15.999
   23997      ob       1    MUSC   O03zh       1     -1.05    15.999
   23998      ob       1    MUSC   O03zi       1     -1.05    15.999
   23999      ob       1    MUSC   O03zj       1     -1.05    15.999
   24000      ob       1    MUSC   O03zk       1     -1.05    15.999
   24001       K       1    MUSC   K00FV       1       1.0    39.098
   24002       K       1    MUSC   K00FW       1       1.0    39.098
   24003      ao       1    MUSC   Al0fJ       1     1.575    26.982
   24004      ao       1    MUSC   Al0fK       1     1.575    26.982
   24005      ao       1    MUSC   Al0fL       1     1.575    26.982
   24006      ao       1    MUSC   Al0fM       1     1.575    26.982
   24007      ao       1    MUSC   Al0fN       1     1.575    26.982
   24008      ao       1    MUSC   Al0fO       1     1.575    26.982
   24009      ao       1    MUSC   Al0fP       1     1.575    26.982
   24010      ao       1    MUSC   Al0fQ       1     1.575    26.982
   24011      st       1    MUSC   Si1Kb       1       2.1    28.086
   24012      st       1    MUSC   Si1Kc       1       2.1    28.086
   24013      st       1    MUSC   Si1Kd       1       2.1    28.086
   24014      st       1    MUSC   Si1Ke       1       2.1    28.086
   24015      st       1    MUSC   Si1Kf       1       2.1    28.086
   24016      st       1    MUSC   Si1Kg       1       2.1    28.086
   24017      st       1    MUSC   Si1Kh       1       2.1    28.086
   24018      st       1    MUSC   Si1Ki       1       2.1    28.086
   24019      st       1    MUSC   Si1Kj       1       2.1    28.086
   24020      st       1    MUSC   Si1Kk       1       2.1    28.086
   24021      st       1    MUSC   Si1Kl       1       2.1    28.086
   24022      st       1    MUSC   Si1Km       1       2.1    28.086
   24023      st       1    MUSC   Si1Kn       1       2.1    28.086
   24024      st       1    MUSC   Si1Ko       1       2.1    28.086
   24025      st       1    MUSC   Si1Kp       1       2.1    28.086
   24026      st       1    MUSC   Si1Kq       1       2.1    28.086
   24027      ob       1    MUSC   O03zl       1     -1.05    15.999
   24028      ob       1    MUSC   O03zm       1     -1.05    15.999
   24029      ob       1    MUSC   O03zn       1     -1.05    15.999
   24030      ob       1    MUSC   O03zo       1     -1.05    15.999
   24031      oh       1    MUSC   O03zp       1     -0.95    15.999
   24032      oh       1    MUSC   O03zq       1     -0.95    15.999
   24033      oh       1    MUSC   O03zr       1     -0.95    15.999
   24034      oh       1    MUSC   O03zs       1     -0.95    15.999
   24035      ob       1    MUSC   O03zt       1     -1.05    15.999
   24036      ob       1    MUSC   O03zu       1     -1.05    15.999
   24037      ob       1    MUSC   O03zv       1     -1.05    15.999
   24038      ob       1    MUSC   O03zw       1     -1.05    15.999
   24039      ob       1    MUSC   O03zx       1     -1.05    15.999
   24040      ob       1    MUSC   O03zy       1     -1.05    15.999
   24041      ob       1    MUSC   O03zz       1     -1.05    15.999
   24042      ob       1    MUSC   O0400       1     -1.05    15.999
   24043      ob       1    MUSC   O0401       1     -1.05    15.999
   24044      ob       1    MUSC   O0402       1     -1.05    15.999
   24045      ob       1    MUSC   O0403       1     -1.05    15.999
   24046      ob       1    MUSC   O0404       1     -1.05    15.999
   24047      ob       1    MUSC   O0405       1     -1.05    15.999
   24048      ob       1    MUSC   O0406       1     -1.05    15.999
   24049      ob       1    MUSC   O0407       1     -1.05    15.999
   24050      ob       1    MUSC   O0408       1     -1.05    15.999
   24051      ob       1    MUSC   O0409       1     -1.05    15.999
   24052      ob       1    MUSC   O040A       1     -1.05    15.999
   24053      ob       1    MUSC   O040B       1     -1.05    15.999
   24054      ob       1    MUSC   O040C       1     -1.05    15.999
   24055      oh       1    MUSC   O040D       1     -0.95    15.999
   24056      oh       1    MUSC   O040E       1     -0.95    15.999
   24057      oh       1    MUSC   O040F       1     -0.95    15.999
   24058      oh       1    MUSC   O040G       1     -0.95    15.999
   24059      ob       1    MUSC   O040H       1     -1.05    15.999
   24060      ob       1    MUSC   O040I       1     -1.05    15.999
   24061      ob       1    MUSC   O040J       1     -1.05    15.999
   24062      ob       1    MUSC   O040K       1     -1.05    15.999
   24063      ob       1    MUSC   O040L       1     -1.05    15.999
   24064      ob       1    MUSC   O040M       1     -1.05    15.999
   24065      ob       1    MUSC   O040N       1     -1.05    15.999
   24066      ob       1    MUSC   O040O       1     -1.05    15.999
   24067      ob       1    MUSC   O040P       1     -1.05    15.999
   24068      ob       1    MUSC   O040Q       1     -1.05    15.999
   24069      ob       1    MUSC   O040R       1     -1.05    15.999
   24070      ob       1    MUSC   O040S       1     -1.05    15.999
   24071      ob       1    MUSC   O040T       1     -1.05    15.999
   24072      ob       1    MUSC   O040U       1     -1.05    15.999
   24073      ob       1    MUSC   O040V       1     -1.05    15.999
   24074      ob       1    MUSC   O040W       1     -1.05    15.999
   24075       K       1    MUSC   K00FX       1       1.0    39.098
   24076       K       1    MUSC   K00FY       1       1.0    39.098
   24077       K       1    MUSC   K00FZ       1       1.0    39.098
   24078       K       1    MUSC   K00Fa       1       1.0    39.098
   24079      ao       1    MUSC   Al0fR       1     1.575    26.982
   24080      ao       1    MUSC   Al0fS       1     1.575    26.982
   24081      ao       1    MUSC   Al0fT       1     1.575    26.982
   24082      ao       1    MUSC   Al0fU       1     1.575    26.982
   24083      ao       1    MUSC   Al0fV       1     1.575    26.982
   24084      ao       1    MUSC   Al0fW       1     1.575    26.982
   24085      ao       1    MUSC   Al0fX       1     1.575    26.982
   24086      ao       1    MUSC   Al0fY       1     1.575    26.982
   24087      st       1    MUSC   Si1Kr       1       2.1    28.086
   24088      st       1    MUSC   Si1Ks       1       2.1    28.086
   24089      st       1    MUSC   Si1Kt       1       2.1    28.086
   24090      st       1    MUSC   Si1Ku       1       2.1    28.086
   24091      st       1    MUSC   Si1Kv       1       2.1    28.086
   24092      st       1    MUSC   Si1Kw       1       2.1    28.086
   24093      st       1    MUSC   Si1Kx       1       2.1    28.086
   24094      st       1    MUSC   Si1Ky       1       2.1    28.086
   24095      st       1    MUSC   Si1Kz       1       2.1    28.086
   24096      st       1    MUSC   Si1L0       1       2.1    28.086
   24097      st       1    MUSC   Si1L1       1       2.1    28.086
   24098      st       1    MUSC   Si1L2       1       2.1    28.086
   24099      st       1    MUSC   Si1L3       1       2.1    28.086
   24100      st       1    MUSC   Si1L4       1       2.1    28.086
   24101      st       1    MUSC   Si1L5       1       2.1    28.086
   24102      st       1    MUSC   Si1L6       1       2.1    28.086
   24103      ob       1    MUSC   O040X       1     -1.05    15.999
   24104      ob       1    MUSC   O040Y       1     -1.05    15.999
   24105      ob       1    MUSC   O040Z       1     -1.05    15.999
   24106      ob       1    MUSC   O040a       1     -1.05    15.999
   24107      oh       1    MUSC   O040b       1     -0.95    15.999
   24108      oh       1    MUSC   O040c       1     -0.95    15.999
   24109      oh       1    MUSC   O040d       1     -0.95    15.999
   24110      oh       1    MUSC   O040e       1     -0.95    15.999
   24111      ob       1    MUSC   O040f       1     -1.05    15.999
   24112      ob       1    MUSC   O040g       1     -1.05    15.999
   24113      ob       1    MUSC   O040h       1     -1.05    15.999
   24114      ob       1    MUSC   O040i       1     -1.05    15.999
   24115      ob       1    MUSC   O040j       1     -1.05    15.999
   24116      ob       1    MUSC   O040k       1     -1.05    15.999
   24117      ob       1    MUSC   O040l       1     -1.05    15.999
   24118      ob       1    MUSC   O040m       1     -1.05    15.999
   24119      ob       1    MUSC   O040n       1     -1.05    15.999
   24120      ob       1    MUSC   O040o       1     -1.05    15.999
   24121      ob       1    MUSC   O040p       1     -1.05    15.999
   24122      ob       1    MUSC   O040q       1     -1.05    15.999
   24123      ob       1    MUSC   O040r       1     -1.05    15.999
   24124      ob       1    MUSC   O040s       1     -1.05    15.999
   24125      ob       1    MUSC   O040t       1     -1.05    15.999
   24126      ob       1    MUSC   O040u       1     -1.05    15.999
   24127      ob       1    MUSC   O040v       1     -1.05    15.999
   24128      ob       1    MUSC   O040w       1     -1.05    15.999
   24129      ob       1    MUSC   O040x       1     -1.05    15.999
   24130      ob       1    MUSC   O040y       1     -1.05    15.999
   24131      oh       1    MUSC   O040z       1     -0.95    15.999
   24132      oh       1    MUSC   O0410       1     -0.95    15.999
   24133      oh       1    MUSC   O0411       1     -0.95    15.999
   24134      oh       1    MUSC   O0412       1     -0.95    15.999
   24135      ob       1    MUSC   O0413       1     -1.05    15.999
   24136      ob       1    MUSC   O0414       1     -1.05    15.999
   24137      ob       1    MUSC   O0415       1     -1.05    15.999
   24138      ob       1    MUSC   O0416       1     -1.05    15.999
   24139      ob       1    MUSC   O0417       1     -1.05    15.999
   24140      ob       1    MUSC   O0418       1     -1.05    15.999
   24141      ob       1    MUSC   O0419       1     -1.05    15.999
   24142      ob       1    MUSC   O041A       1     -1.05    15.999
   24143      ob       1    MUSC   O041B       1     -1.05    15.999
   24144      ob       1    MUSC   O041C       1     -1.05    15.999
   24145      ob       1    MUSC   O041D       1     -1.05    15.999
   24146      ob       1    MUSC   O041E       1     -1.05    15.999
   24147      ob       1    MUSC   O041F       1     -1.05    15.999
   24148      ob       1    MUSC   O041G       1     -1.05    15.999
   24149      ob       1    MUSC   O041H       1     -1.05    15.999
   24150      ob       1    MUSC   O041I       1     -1.05    15.999
   24151       K       1    MUSC   K00Fb       1       1.0    39.098
   24152       K       1    MUSC   K00Fc       1       1.0    39.098
   24153      ao       1    MUSC   Al0fZ       1     1.575    26.982
   24154      ao       1    MUSC   Al0fa       1     1.575    26.982
   24155      ao       1    MUSC   Al0fb       1     1.575    26.982
   24156      ao       1    MUSC   Al0fc       1     1.575    26.982
   24157      ao       1    MUSC   Al0fd       1     1.575    26.982
   24158      ao       1    MUSC   Al0fe       1     1.575    26.982
   24159      ao       1    MUSC   Al0ff       1     1.575    26.982
   24160      ao       1    MUSC   Al0fg       1     1.575    26.982
   24161      st       1    MUSC   Si1L7       1       2.1    28.086
   24162      st       1    MUSC   Si1L8       1       2.1    28.086
   24163      st       1    MUSC   Si1L9       1       2.1    28.086
   24164      st       1    MUSC   Si1LA       1       2.1    28.086
   24165      st       1    MUSC   Si1LB       1       2.1    28.086
   24166      st       1    MUSC   Si1LC       1       2.1    28.086
   24167      st       1    MUSC   Si1LD       1       2.1    28.086
   24168      st       1    MUSC   Si1LE       1       2.1    28.086
   24169      st       1    MUSC   Si1LF       1       2.1    28.086
   24170      st       1    MUSC   Si1LG       1       2.1    28.086
   24171      st       1    MUSC   Si1LH       1       2.1    28.086
   24172      st       1    MUSC   Si1LI       1       2.1    28.086
   24173      st       1    MUSC   Si1LJ       1       2.1    28.086
   24174      st       1    MUSC   Si1LK       1       2.1    28.086
   24175      st       1    MUSC   Si1LL       1       2.1    28.086
   24176      st       1    MUSC   Si1LM       1       2.1    28.086
   24177      ob       1    MUSC   O041J       1     -1.05    15.999
   24178      ob       1    MUSC   O041K       1     -1.05    15.999
   24179      ob       1    MUSC   O041L       1     -1.05    15.999
   24180      ob       1    MUSC   O041M       1     -1.05    15.999
   24181      oh       1    MUSC   O041N       1     -0.95    15.999
   24182      oh       1    MUSC   O041O       1     -0.95    15.999
   24183      oh       1    MUSC   O041P       1     -0.95    15.999
   24184      oh       1    MUSC   O041Q       1     -0.95    15.999
   24185      ob       1    MUSC   O041R       1     -1.05    15.999
   24186      ob       1    MUSC   O041S       1     -1.05    15.999
   24187      ob       1    MUSC   O041T       1     -1.05    15.999
   24188      ob       1    MUSC   O041U       1     -1.05    15.999
   24189      ob       1    MUSC   O041V       1     -1.05    15.999
   24190      ob       1    MUSC   O041W       1     -1.05    15.999
   24191      ob       1    MUSC   O041X       1     -1.05    15.999
   24192      ob       1    MUSC   O041Y       1     -1.05    15.999
   24193      ob       1    MUSC   O041Z       1     -1.05    15.999
   24194      ob       1    MUSC   O041a       1     -1.05    15.999
   24195      ob       1    MUSC   O041b       1     -1.05    15.999
   24196      ob       1    MUSC   O041c       1     -1.05    15.999
   24197      ob       1    MUSC   O041d       1     -1.05    15.999
   24198      ob       1    MUSC   O041e       1     -1.05    15.999
   24199      ob       1    MUSC   O041f       1     -1.05    15.999
   24200      ob       1    MUSC   O041g       1     -1.05    15.999
   24201      ob       1    MUSC   O041h       1     -1.05    15.999
   24202      ob       1    MUSC   O041i       1     -1.05    15.999
   24203      ob       1    MUSC   O041j       1     -1.05    15.999
   24204      ob       1    MUSC   O041k       1     -1.05    15.999
   24205      oh       1    MUSC   O041l       1     -0.95    15.999
   24206      oh       1    MUSC   O041m       1     -0.95    15.999
   24207      oh       1    MUSC   O041n       1     -0.95    15.999
   24208      oh       1    MUSC   O041o       1     -0.95    15.999
   24209      ob       1    MUSC   O041p       1     -1.05    15.999
   24210      ob       1    MUSC   O041q       1     -1.05    15.999
   24211      ob       1    MUSC   O041r       1     -1.05    15.999
   24212      ob       1    MUSC   O041s       1     -1.05    15.999
   24213      ob       1    MUSC   O041t       1     -1.05    15.999
   24214      ob       1    MUSC   O041u       1     -1.05    15.999
   24215      ob       1    MUSC   O041v       1     -1.05    15.999
   24216      ob       1    MUSC   O041w       1     -1.05    15.999
   24217      ob       1    MUSC   O041x       1     -1.05    15.999
   24218      ob       1    MUSC   O041y       1     -1.05    15.999
   24219      ob       1    MUSC   O041z       1     -1.05    15.999
   24220      ob       1    MUSC   O0420       1     -1.05    15.999
   24221      ob       1    MUSC   O0421       1     -1.05    15.999
   24222      ob       1    MUSC   O0422       1     -1.05    15.999
   24223      ob       1    MUSC   O0423       1     -1.05    15.999
   24224      ob       1    MUSC   O0424       1     -1.05    15.999
   24225       K       1    MUSC   K00Fd       1       1.0    39.098
   24226       K       1    MUSC   K00Fe       1       1.0    39.098
   24227       K       1    MUSC   K00Ff       1       1.0    39.098
   24228       K       1    MUSC   K00Fg       1       1.0    39.098
   24229      ao       1    MUSC   Al0fh       1     1.575    26.982
   24230      ao       1    MUSC   Al0fi       1     1.575    26.982
   24231      ao       1    MUSC   Al0fj       1     1.575    26.982
   24232      ao       1    MUSC   Al0fk       1     1.575    26.982
   24233      ao       1    MUSC   Al0fl       1     1.575    26.982
   24234      ao       1    MUSC   Al0fm       1     1.575    26.982
   24235      ao       1    MUSC   Al0fn       1     1.575    26.982
   24236      ao       1    MUSC   Al0fo       1     1.575    26.982
   24237      st       1    MUSC   Si1LN       1       2.1    28.086
   24238      st       1    MUSC   Si1LO       1       2.1    28.086
   24239      st       1    MUSC   Si1LP       1       2.1    28.086
   24240      st       1    MUSC   Si1LQ       1       2.1    28.086
   24241      st       1    MUSC   Si1LR       1       2.1    28.086
   24242      st       1    MUSC   Si1LS       1       2.1    28.086
   24243      st       1    MUSC   Si1LT       1       2.1    28.086
   24244      st       1    MUSC   Si1LU       1       2.1    28.086
   24245      st       1    MUSC   Si1LV       1       2.1    28.086
   24246      st       1    MUSC   Si1LW       1       2.1    28.086
   24247      st       1    MUSC   Si1LX       1       2.1    28.086
   24248      st       1    MUSC   Si1LY       1       2.1    28.086
   24249      st       1    MUSC   Si1LZ       1       2.1    28.086
   24250      st       1    MUSC   Si1La       1       2.1    28.086
   24251      st       1    MUSC   Si1Lb       1       2.1    28.086
   24252      st       1    MUSC   Si1Lc       1       2.1    28.086
   24253      ob       1    MUSC   O0425       1     -1.05    15.999
   24254      ob       1    MUSC   O0426       1     -1.05    15.999
   24255      ob       1    MUSC   O0427       1     -1.05    15.999
   24256      ob       1    MUSC   O0428       1     -1.05    15.999
   24257      oh       1    MUSC   O0429       1     -0.95    15.999
   24258      oh       1    MUSC   O042A       1     -0.95    15.999
   24259      oh       1    MUSC   O042B       1     -0.95    15.999
   24260      oh       1    MUSC   O042C       1     -0.95    15.999
   24261      ob       1    MUSC   O042D       1     -1.05    15.999
   24262      ob       1    MUSC   O042E       1     -1.05    15.999
   24263      ob       1    MUSC   O042F       1     -1.05    15.999
   24264      ob       1    MUSC   O042G       1     -1.05    15.999
   24265      ob       1    MUSC   O042H       1     -1.05    15.999
   24266      ob       1    MUSC   O042I       1     -1.05    15.999
   24267      ob       1    MUSC   O042J       1     -1.05    15.999
   24268      ob       1    MUSC   O042K       1     -1.05    15.999
   24269      ob       1    MUSC   O042L       1     -1.05    15.999
   24270      ob       1    MUSC   O042M       1     -1.05    15.999
   24271      ob       1    MUSC   O042N       1     -1.05    15.999
   24272      ob       1    MUSC   O042O       1     -1.05    15.999
   24273      ob       1    MUSC   O042P       1     -1.05    15.999
   24274      ob       1    MUSC   O042Q       1     -1.05    15.999
   24275      ob       1    MUSC   O042R       1     -1.05    15.999
   24276      ob       1    MUSC   O042S       1     -1.05    15.999
   24277      ob       1    MUSC   O042T       1     -1.05    15.999
   24278      ob       1    MUSC   O042U       1     -1.05    15.999
   24279      ob       1    MUSC   O042V       1     -1.05    15.999
   24280      ob       1    MUSC   O042W       1     -1.05    15.999
   24281      oh       1    MUSC   O042X       1     -0.95    15.999
   24282      oh       1    MUSC   O042Y       1     -0.95    15.999
   24283      oh       1    MUSC   O042Z       1     -0.95    15.999
   24284      oh       1    MUSC   O042a       1     -0.95    15.999
   24285      ob       1    MUSC   O042b       1     -1.05    15.999
   24286      ob       1    MUSC   O042c       1     -1.05    15.999
   24287      ob       1    MUSC   O042d       1     -1.05    15.999
   24288      ob       1    MUSC   O042e       1     -1.05    15.999
   24289      ob       1    MUSC   O042f       1     -1.05    15.999
   24290      ob       1    MUSC   O042g       1     -1.05    15.999
   24291      ob       1    MUSC   O042h       1     -1.05    15.999
   24292      ob       1    MUSC   O042i       1     -1.05    15.999
   24293      ob       1    MUSC   O042j       1     -1.05    15.999
   24294      ob       1    MUSC   O042k       1     -1.05    15.999
   24295      ob       1    MUSC   O042l       1     -1.05    15.999
   24296      ob       1    MUSC   O042m       1     -1.05    15.999
   24297      ob       1    MUSC   O042n       1     -1.05    15.999
   24298      ob       1    MUSC   O042o       1     -1.05    15.999
   24299      ob       1    MUSC   O042p       1     -1.05    15.999
   24300      ob       1    MUSC   O042q       1     -1.05    15.999
   24301       K       1    MUSC   K00Fh       1       1.0    39.098
   24302       K       1    MUSC   K00Fi       1       1.0    39.098
   24303      ao       1    MUSC   Al0fp       1     1.575    26.982
   24304      ao       1    MUSC   Al0fq       1     1.575    26.982
   24305      ao       1    MUSC   Al0fr       1     1.575    26.982
   24306      ao       1    MUSC   Al0fs       1     1.575    26.982
   24307      ao       1    MUSC   Al0ft       1     1.575    26.982
   24308      ao       1    MUSC   Al0fu       1     1.575    26.982
   24309      ao       1    MUSC   Al0fv       1     1.575    26.982
   24310      ao       1    MUSC   Al0fw       1     1.575    26.982
   24311      st       1    MUSC   Si1Ld       1       2.1    28.086
   24312      st       1    MUSC   Si1Le       1       2.1    28.086
   24313      st       1    MUSC   Si1Lf       1       2.1    28.086
   24314      st       1    MUSC   Si1Lg       1       2.1    28.086
   24315      st       1    MUSC   Si1Lh       1       2.1    28.086
   24316      st       1    MUSC   Si1Li       1       2.1    28.086
   24317      st       1    MUSC   Si1Lj       1       2.1    28.086
   24318      st       1    MUSC   Si1Lk       1       2.1    28.086
   24319      st       1    MUSC   Si1Ll       1       2.1    28.086
   24320      st       1    MUSC   Si1Lm       1       2.1    28.086
   24321      st       1    MUSC   Si1Ln       1       2.1    28.086
   24322      st       1    MUSC   Si1Lo       1       2.1    28.086
   24323      st       1    MUSC   Si1Lp       1       2.1    28.086
   24324      st       1    MUSC   Si1Lq       1       2.1    28.086
   24325      st       1    MUSC   Si1Lr       1       2.1    28.086
   24326      st       1    MUSC   Si1Ls       1       2.1    28.086
   24327      ob       1    MUSC   O042r       1     -1.05    15.999
   24328      ob       1    MUSC   O042s       1     -1.05    15.999
   24329      ob       1    MUSC   O042t       1     -1.05    15.999
   24330      ob       1    MUSC   O042u       1     -1.05    15.999
   24331      oh       1    MUSC   O042v       1     -0.95    15.999
   24332      oh       1    MUSC   O042w       1     -0.95    15.999
   24333      oh       1    MUSC   O042x       1     -0.95    15.999
   24334      oh       1    MUSC   O042y       1     -0.95    15.999
   24335      ob       1    MUSC   O042z       1     -1.05    15.999
   24336      ob       1    MUSC   O0430       1     -1.05    15.999
   24337      ob       1    MUSC   O0431       1     -1.05    15.999
   24338      ob       1    MUSC   O0432       1     -1.05    15.999
   24339      ob       1    MUSC   O0433       1     -1.05    15.999
   24340      ob       1    MUSC   O0434       1     -1.05    15.999
   24341      ob       1    MUSC   O0435       1     -1.05    15.999
   24342      ob       1    MUSC   O0436       1     -1.05    15.999
   24343      ob       1    MUSC   O0437       1     -1.05    15.999
   24344      ob       1    MUSC   O0438       1     -1.05    15.999
   24345      ob       1    MUSC   O0439       1     -1.05    15.999
   24346      ob       1    MUSC   O043A       1     -1.05    15.999
   24347      ob       1    MUSC   O043B       1     -1.05    15.999
   24348      ob       1    MUSC   O043C       1     -1.05    15.999
   24349      ob       1    MUSC   O043D       1     -1.05    15.999
   24350      ob       1    MUSC   O043E       1     -1.05    15.999
   24351      ob       1    MUSC   O043F       1     -1.05    15.999
   24352      ob       1    MUSC   O043G       1     -1.05    15.999
   24353      ob       1    MUSC   O043H       1     -1.05    15.999
   24354      ob       1    MUSC   O043I       1     -1.05    15.999
   24355      oh       1    MUSC   O043J       1     -0.95    15.999
   24356      oh       1    MUSC   O043K       1     -0.95    15.999
   24357      oh       1    MUSC   O043L       1     -0.95    15.999
   24358      oh       1    MUSC   O043M       1     -0.95    15.999
   24359      ob       1    MUSC   O043N       1     -1.05    15.999
   24360      ob       1    MUSC   O043O       1     -1.05    15.999
   24361      ob       1    MUSC   O043P       1     -1.05    15.999
   24362      ob       1    MUSC   O043Q       1     -1.05    15.999
   24363      ob       1    MUSC   O043R       1     -1.05    15.999
   24364      ob       1    MUSC   O043S       1     -1.05    15.999
   24365      ob       1    MUSC   O043T       1     -1.05    15.999
   24366      ob       1    MUSC   O043U       1     -1.05    15.999
   24367      ob       1    MUSC   O043V       1     -1.05    15.999
   24368      ob       1    MUSC   O043W       1     -1.05    15.999
   24369      ob       1    MUSC   O043X       1     -1.05    15.999
   24370      ob       1    MUSC   O043Y       1     -1.05    15.999
   24371      ob       1    MUSC   O043Z       1     -1.05    15.999
   24372      ob       1    MUSC   O043a       1     -1.05    15.999
   24373      ob       1    MUSC   O043b       1     -1.05    15.999
   24374      ob       1    MUSC   O043c       1     -1.05    15.999
   24375       K       1    MUSC   K00Fj       1       1.0    39.098
   24376       K       1    MUSC   K00Fk       1       1.0    39.098
   24377       K       1    MUSC   K00Fl       1       1.0    39.098
   24378       K       1    MUSC   K00Fm       1       1.0    39.098
   24379      ao       1    MUSC   Al0fx       1     1.575    26.982
   24380      ao       1    MUSC   Al0fy       1     1.575    26.982
   24381      ao       1    MUSC   Al0fz       1     1.575    26.982
   24382      ao       1    MUSC   Al0g0       1     1.575    26.982
   24383      ao       1    MUSC   Al0g1       1     1.575    26.982
   24384      ao       1    MUSC   Al0g2       1     1.575    26.982
   24385      ao       1    MUSC   Al0g3       1     1.575    26.982
   24386      ao       1    MUSC   Al0g4       1     1.575    26.982
   24387      st       1    MUSC   Si1Lt       1       2.1    28.086
   24388      st       1    MUSC   Si1Lu       1       2.1    28.086
   24389      st       1    MUSC   Si1Lv       1       2.1    28.086
   24390      st       1    MUSC   Si1Lw       1       2.1    28.086
   24391      st       1    MUSC   Si1Lx       1       2.1    28.086
   24392      st       1    MUSC   Si1Ly       1       2.1    28.086
   24393      st       1    MUSC   Si1Lz       1       2.1    28.086
   24394      st       1    MUSC   Si1M0       1       2.1    28.086
   24395      st       1    MUSC   Si1M1       1       2.1    28.086
   24396      st       1    MUSC   Si1M2       1       2.1    28.086
   24397      st       1    MUSC   Si1M3       1       2.1    28.086
   24398      st       1    MUSC   Si1M4       1       2.1    28.086
   24399      st       1    MUSC   Si1M5       1       2.1    28.086
   24400      st       1    MUSC   Si1M6       1       2.1    28.086
   24401      st       1    MUSC   Si1M7       1       2.1    28.086
   24402      st       1    MUSC   Si1M8       1       2.1    28.086
   24403      ob       1    MUSC   O043d       1     -1.05    15.999
   24404      ob       1    MUSC   O043e       1     -1.05    15.999
   24405      ob       1    MUSC   O043f       1     -1.05    15.999
   24406      ob       1    MUSC   O043g       1     -1.05    15.999
   24407      oh       1    MUSC   O043h       1     -0.95    15.999
   24408      oh       1    MUSC   O043i       1     -0.95    15.999
   24409      oh       1    MUSC   O043j       1     -0.95    15.999
   24410      oh       1    MUSC   O043k       1     -0.95    15.999
   24411      ob       1    MUSC   O043l       1     -1.05    15.999
   24412      ob       1    MUSC   O043m       1     -1.05    15.999
   24413      ob       1    MUSC   O043n       1     -1.05    15.999
   24414      ob       1    MUSC   O043o       1     -1.05    15.999
   24415      ob       1    MUSC   O043p       1     -1.05    15.999
   24416      ob       1    MUSC   O043q       1     -1.05    15.999
   24417      ob       1    MUSC   O043r       1     -1.05    15.999
   24418      ob       1    MUSC   O043s       1     -1.05    15.999
   24419      ob       1    MUSC   O043t       1     -1.05    15.999
   24420      ob       1    MUSC   O043u       1     -1.05    15.999
   24421      ob       1    MUSC   O043v       1     -1.05    15.999
   24422      ob       1    MUSC   O043w       1     -1.05    15.999
   24423      ob       1    MUSC   O043x       1     -1.05    15.999
   24424      ob       1    MUSC   O043y       1     -1.05    15.999
   24425      ob       1    MUSC   O043z       1     -1.05    15.999
   24426      ob       1    MUSC   O0440       1     -1.05    15.999
   24427      ob       1    MUSC   O0441       1     -1.05    15.999
   24428      ob       1    MUSC   O0442       1     -1.05    15.999
   24429      ob       1    MUSC   O0443       1     -1.05    15.999
   24430      ob       1    MUSC   O0444       1     -1.05    15.999
   24431      oh       1    MUSC   O0445       1     -0.95    15.999
   24432      oh       1    MUSC   O0446       1     -0.95    15.999
   24433      oh       1    MUSC   O0447       1     -0.95    15.999
   24434      oh       1    MUSC   O0448       1     -0.95    15.999
   24435      ob       1    MUSC   O0449       1     -1.05    15.999
   24436      ob       1    MUSC   O044A       1     -1.05    15.999
   24437      ob       1    MUSC   O044B       1     -1.05    15.999
   24438      ob       1    MUSC   O044C       1     -1.05    15.999
   24439      ob       1    MUSC   O044D       1     -1.05    15.999
   24440      ob       1    MUSC   O044E       1     -1.05    15.999
   24441      ob       1    MUSC   O044F       1     -1.05    15.999
   24442      ob       1    MUSC   O044G       1     -1.05    15.999
   24443      ob       1    MUSC   O044H       1     -1.05    15.999
   24444      ob       1    MUSC   O044I       1     -1.05    15.999
   24445      ob       1    MUSC   O044J       1     -1.05    15.999
   24446      ob       1    MUSC   O044K       1     -1.05    15.999
   24447      ob       1    MUSC   O044L       1     -1.05    15.999
   24448      ob       1    MUSC   O044M       1     -1.05    15.999
   24449      ob       1    MUSC   O044N       1     -1.05    15.999
   24450      ob       1    MUSC   O044O       1     -1.05    15.999
   24451       K       1    MUSC   K00Fn       1       1.0    39.098
   24452       K       1    MUSC   K00Fo       1       1.0    39.098
   24453      ao       1    MUSC   Al0g5       1     1.575    26.982
   24454      ao       1    MUSC   Al0g6       1     1.575    26.982
   24455      ao       1    MUSC   Al0g7       1     1.575    26.982
   24456      ao       1    MUSC   Al0g8       1     1.575    26.982
   24457      ao       1    MUSC   Al0g9       1     1.575    26.982
   24458      ao       1    MUSC   Al0gA       1     1.575    26.982
   24459      ao       1    MUSC   Al0gB       1     1.575    26.982
   24460      ao       1    MUSC   Al0gC       1     1.575    26.982
   24461      st       1    MUSC   Si1M9       1       2.1    28.086
   24462      st       1    MUSC   Si1MA       1       2.1    28.086
   24463      st       1    MUSC   Si1MB       1       2.1    28.086
   24464      st       1    MUSC   Si1MC       1       2.1    28.086
   24465      st       1    MUSC   Si1MD       1       2.1    28.086
   24466      st       1    MUSC   Si1ME       1       2.1    28.086
   24467      st       1    MUSC   Si1MF       1       2.1    28.086
   24468      st       1    MUSC   Si1MG       1       2.1    28.086
   24469      st       1    MUSC   Si1MH       1       2.1    28.086
   24470      st       1    MUSC   Si1MI       1       2.1    28.086
   24471      st       1    MUSC   Si1MJ       1       2.1    28.086
   24472      st       1    MUSC   Si1MK       1       2.1    28.086
   24473      st       1    MUSC   Si1ML       1       2.1    28.086
   24474      st       1    MUSC   Si1MM       1       2.1    28.086
   24475      st       1    MUSC   Si1MN       1       2.1    28.086
   24476      st       1    MUSC   Si1MO       1       2.1    28.086
   24477      ob       1    MUSC   O044P       1     -1.05    15.999
   24478      ob       1    MUSC   O044Q       1     -1.05    15.999
   24479      ob       1    MUSC   O044R       1     -1.05    15.999
   24480      ob       1    MUSC   O044S       1     -1.05    15.999
   24481      oh       1    MUSC   O044T       1     -0.95    15.999
   24482      oh       1    MUSC   O044U       1     -0.95    15.999
   24483      oh       1    MUSC   O044V       1     -0.95    15.999
   24484      oh       1    MUSC   O044W       1     -0.95    15.999
   24485      ob       1    MUSC   O044X       1     -1.05    15.999
   24486      ob       1    MUSC   O044Y       1     -1.05    15.999
   24487      ob       1    MUSC   O044Z       1     -1.05    15.999
   24488      ob       1    MUSC   O044a       1     -1.05    15.999
   24489      ob       1    MUSC   O044b       1     -1.05    15.999
   24490      ob       1    MUSC   O044c       1     -1.05    15.999
   24491      ob       1    MUSC   O044d       1     -1.05    15.999
   24492      ob       1    MUSC   O044e       1     -1.05    15.999
   24493      ob       1    MUSC   O044f       1     -1.05    15.999
   24494      ob       1    MUSC   O044g       1     -1.05    15.999
   24495      ob       1    MUSC   O044h       1     -1.05    15.999
   24496      ob       1    MUSC   O044i       1     -1.05    15.999
   24497      ob       1    MUSC   O044j       1     -1.05    15.999
   24498      ob       1    MUSC   O044k       1     -1.05    15.999
   24499      ob       1    MUSC   O044l       1     -1.05    15.999
   24500      ob       1    MUSC   O044m       1     -1.05    15.999
   24501      ob       1    MUSC   O044n       1     -1.05    15.999
   24502      ob       1    MUSC   O044o       1     -1.05    15.999
   24503      ob       1    MUSC   O044p       1     -1.05    15.999
   24504      ob       1    MUSC   O044q       1     -1.05    15.999
   24505      oh       1    MUSC   O044r       1     -0.95    15.999
   24506      oh       1    MUSC   O044s       1     -0.95    15.999
   24507      oh       1    MUSC   O044t       1     -0.95    15.999
   24508      oh       1    MUSC   O044u       1     -0.95    15.999
   24509      ob       1    MUSC   O044v       1     -1.05    15.999
   24510      ob       1    MUSC   O044w       1     -1.05    15.999
   24511      ob       1    MUSC   O044x       1     -1.05    15.999
   24512      ob       1    MUSC   O044y       1     -1.05    15.999
   24513      ob       1    MUSC   O044z       1     -1.05    15.999
   24514      ob       1    MUSC   O0450       1     -1.05    15.999
   24515      ob       1    MUSC   O0451       1     -1.05    15.999
   24516      ob       1    MUSC   O0452       1     -1.05    15.999
   24517      ob       1    MUSC   O0453       1     -1.05    15.999
   24518      ob       1    MUSC   O0454       1     -1.05    15.999
   24519      ob       1    MUSC   O0455       1     -1.05    15.999
   24520      ob       1    MUSC   O0456       1     -1.05    15.999
   24521      ob       1    MUSC   O0457       1     -1.05    15.999
   24522      ob       1    MUSC   O0458       1     -1.05    15.999
   24523      ob       1    MUSC   O0459       1     -1.05    15.999
   24524      ob       1    MUSC   O045A       1     -1.05    15.999
   24525       K       1    MUSC   K00Fp       1       1.0    39.098
   24526       K       1    MUSC   K00Fq       1       1.0    39.098
   24527       K       1    MUSC   K00Fr       1       1.0    39.098
   24528       K       1    MUSC   K00Fs       1       1.0    39.098
   24529      ao       1    MUSC   Al0gD       1     1.575    26.982
   24530      ao       1    MUSC   Al0gE       1     1.575    26.982
   24531      ao       1    MUSC   Al0gF       1     1.575    26.982
   24532      ao       1    MUSC   Al0gG       1     1.575    26.982
   24533      ao       1    MUSC   Al0gH       1     1.575    26.982
   24534      ao       1    MUSC   Al0gI       1     1.575    26.982
   24535      ao       1    MUSC   Al0gJ       1     1.575    26.982
   24536      ao       1    MUSC   Al0gK       1     1.575    26.982
   24537      st       1    MUSC   Si1MP       1       2.1    28.086
   24538      st       1    MUSC   Si1MQ       1       2.1    28.086
   24539      st       1    MUSC   Si1MR       1       2.1    28.086
   24540      st       1    MUSC   Si1MS       1       2.1    28.086
   24541      st       1    MUSC   Si1MT       1       2.1    28.086
   24542      st       1    MUSC   Si1MU       1       2.1    28.086
   24543      st       1    MUSC   Si1MV       1       2.1    28.086
   24544      st       1    MUSC   Si1MW       1       2.1    28.086
   24545      st       1    MUSC   Si1MX       1       2.1    28.086
   24546      st       1    MUSC   Si1MY       1       2.1    28.086
   24547      st       1    MUSC   Si1MZ       1       2.1    28.086
   24548      st       1    MUSC   Si1Ma       1       2.1    28.086
   24549      st       1    MUSC   Si1Mb       1       2.1    28.086
   24550      st       1    MUSC   Si1Mc       1       2.1    28.086
   24551      st       1    MUSC   Si1Md       1       2.1    28.086
   24552      st       1    MUSC   Si1Me       1       2.1    28.086
   24553      ob       1    MUSC   O045B       1     -1.05    15.999
   24554      ob       1    MUSC   O045C       1     -1.05    15.999
   24555      ob       1    MUSC   O045D       1     -1.05    15.999
   24556      ob       1    MUSC   O045E       1     -1.05    15.999
   24557      oh       1    MUSC   O045F       1     -0.95    15.999
   24558      oh       1    MUSC   O045G       1     -0.95    15.999
   24559      oh       1    MUSC   O045H       1     -0.95    15.999
   24560      oh       1    MUSC   O045I       1     -0.95    15.999
   24561      ob       1    MUSC   O045J       1     -1.05    15.999
   24562      ob       1    MUSC   O045K       1     -1.05    15.999
   24563      ob       1    MUSC   O045L       1     -1.05    15.999
   24564      ob       1    MUSC   O045M       1     -1.05    15.999
   24565      ob       1    MUSC   O045N       1     -1.05    15.999
   24566      ob       1    MUSC   O045O       1     -1.05    15.999
   24567      ob       1    MUSC   O045P       1     -1.05    15.999
   24568      ob       1    MUSC   O045Q       1     -1.05    15.999
   24569      ob       1    MUSC   O045R       1     -1.05    15.999
   24570      ob       1    MUSC   O045S       1     -1.05    15.999
   24571      ob       1    MUSC   O045T       1     -1.05    15.999
   24572      ob       1    MUSC   O045U       1     -1.05    15.999
   24573      ob       1    MUSC   O045V       1     -1.05    15.999
   24574      ob       1    MUSC   O045W       1     -1.05    15.999
   24575      ob       1    MUSC   O045X       1     -1.05    15.999
   24576      ob       1    MUSC   O045Y       1     -1.05    15.999
   24577      ob       1    MUSC   O045Z       1     -1.05    15.999
   24578      ob       1    MUSC   O045a       1     -1.05    15.999
   24579      ob       1    MUSC   O045b       1     -1.05    15.999
   24580      ob       1    MUSC   O045c       1     -1.05    15.999
   24581      oh       1    MUSC   O045d       1     -0.95    15.999
   24582      oh       1    MUSC   O045e       1     -0.95    15.999
   24583      oh       1    MUSC   O045f       1     -0.95    15.999
   24584      oh       1    MUSC   O045g       1     -0.95    15.999
   24585      ob       1    MUSC   O045h       1     -1.05    15.999
   24586      ob       1    MUSC   O045i       1     -1.05    15.999
   24587      ob       1    MUSC   O045j       1     -1.05    15.999
   24588      ob       1    MUSC   O045k       1     -1.05    15.999
   24589      ob       1    MUSC   O045l       1     -1.05    15.999
   24590      ob       1    MUSC   O045m       1     -1.05    15.999
   24591      ob       1    MUSC   O045n       1     -1.05    15.999
   24592      ob       1    MUSC   O045o       1     -1.05    15.999
   24593      ob       1    MUSC   O045p       1     -1.05    15.999
   24594      ob       1    MUSC   O045q       1     -1.05    15.999
   24595      ob       1    MUSC   O045r       1     -1.05    15.999
   24596      ob       1    MUSC   O045s       1     -1.05    15.999
   24597      ob       1    MUSC   O045t       1     -1.05    15.999
   24598      ob       1    MUSC   O045u       1     -1.05    15.999
   24599      ob       1    MUSC   O045v       1     -1.05    15.999
   24600      ob       1    MUSC   O045w       1     -1.05    15.999
   24601       K       1    MUSC   K00Ft       1       1.0    39.098
   24602       K       1    MUSC   K00Fu       1       1.0    39.098
   24603      ao       1    MUSC   Al0gL       1     1.575    26.982
   24604      ao       1    MUSC   Al0gM       1     1.575    26.982
   24605      ao       1    MUSC   Al0gN       1     1.575    26.982
   24606      ao       1    MUSC   Al0gO       1     1.575    26.982
   24607      ao       1    MUSC   Al0gP       1     1.575    26.982
   24608      ao       1    MUSC   Al0gQ       1     1.575    26.982
   24609      ao       1    MUSC   Al0gR       1     1.575    26.982
   24610      ao       1    MUSC   Al0gS       1     1.575    26.982
   24611      st       1    MUSC   Si1Mf       1       2.1    28.086
   24612      st       1    MUSC   Si1Mg       1       2.1    28.086
   24613      st       1    MUSC   Si1Mh       1       2.1    28.086
   24614      st       1    MUSC   Si1Mi       1       2.1    28.086
   24615      st       1    MUSC   Si1Mj       1       2.1    28.086
   24616      st       1    MUSC   Si1Mk       1       2.1    28.086
   24617      st       1    MUSC   Si1Ml       1       2.1    28.086
   24618      st       1    MUSC   Si1Mm       1       2.1    28.086
   24619      st       1    MUSC   Si1Mn       1       2.1    28.086
   24620      st       1    MUSC   Si1Mo       1       2.1    28.086
   24621      st       1    MUSC   Si1Mp       1       2.1    28.086
   24622      st       1    MUSC   Si1Mq       1       2.1    28.086
   24623      st       1    MUSC   Si1Mr       1       2.1    28.086
   24624      st       1    MUSC   Si1Ms       1       2.1    28.086
   24625      st       1    MUSC   Si1Mt       1       2.1    28.086
   24626      st       1    MUSC   Si1Mu       1       2.1    28.086
   24627      ob       1    MUSC   O045x       1     -1.05    15.999
   24628      ob       1    MUSC   O045y       1     -1.05    15.999
   24629      ob       1    MUSC   O045z       1     -1.05    15.999
   24630      ob       1    MUSC   O0460       1     -1.05    15.999
   24631      oh       1    MUSC   O0461       1     -0.95    15.999
   24632      oh       1    MUSC   O0462       1     -0.95    15.999
   24633      oh       1    MUSC   O0463       1     -0.95    15.999
   24634      oh       1    MUSC   O0464       1     -0.95    15.999
   24635      ob       1    MUSC   O0465       1     -1.05    15.999
   24636      ob       1    MUSC   O0466       1     -1.05    15.999
   24637      ob       1    MUSC   O0467       1     -1.05    15.999
   24638      ob       1    MUSC   O0468       1     -1.05    15.999
   24639      ob       1    MUSC   O0469       1     -1.05    15.999
   24640      ob       1    MUSC   O046A       1     -1.05    15.999
   24641      ob       1    MUSC   O046B       1     -1.05    15.999
   24642      ob       1    MUSC   O046C       1     -1.05    15.999
   24643      ob       1    MUSC   O046D       1     -1.05    15.999
   24644      ob       1    MUSC   O046E       1     -1.05    15.999
   24645      ob       1    MUSC   O046F       1     -1.05    15.999
   24646      ob       1    MUSC   O046G       1     -1.05    15.999
   24647      ob       1    MUSC   O046H       1     -1.05    15.999
   24648      ob       1    MUSC   O046I       1     -1.05    15.999
   24649      ob       1    MUSC   O046J       1     -1.05    15.999
   24650      ob       1    MUSC   O046K       1     -1.05    15.999
   24651      ob       1    MUSC   O046L       1     -1.05    15.999
   24652      ob       1    MUSC   O046M       1     -1.05    15.999
   24653      ob       1    MUSC   O046N       1     -1.05    15.999
   24654      ob       1    MUSC   O046O       1     -1.05    15.999
   24655      oh       1    MUSC   O046P       1     -0.95    15.999
   24656      oh       1    MUSC   O046Q       1     -0.95    15.999
   24657      oh       1    MUSC   O046R       1     -0.95    15.999
   24658      oh       1    MUSC   O046S       1     -0.95    15.999
   24659      ob       1    MUSC   O046T       1     -1.05    15.999
   24660      ob       1    MUSC   O046U       1     -1.05    15.999
   24661      ob       1    MUSC   O046V       1     -1.05    15.999
   24662      ob       1    MUSC   O046W       1     -1.05    15.999
   24663      ob       1    MUSC   O046X       1     -1.05    15.999
   24664      ob       1    MUSC   O046Y       1     -1.05    15.999
   24665      ob       1    MUSC   O046Z       1     -1.05    15.999
   24666      ob       1    MUSC   O046a       1     -1.05    15.999
   24667      ob       1    MUSC   O046b       1     -1.05    15.999
   24668      ob       1    MUSC   O046c       1     -1.05    15.999
   24669      ob       1    MUSC   O046d       1     -1.05    15.999
   24670      ob       1    MUSC   O046e       1     -1.05    15.999
   24671      ob       1    MUSC   O046f       1     -1.05    15.999
   24672      ob       1    MUSC   O046g       1     -1.05    15.999
   24673      ob       1    MUSC   O046h       1     -1.05    15.999
   24674      ob       1    MUSC   O046i       1     -1.05    15.999
   24675       K       1    MUSC   K00Fv       1       1.0    39.098
   24676       K       1    MUSC   K00Fw       1       1.0    39.098
   24677       K       1    MUSC   K00Fx       1       1.0    39.098
   24678       K       1    MUSC   K00Fy       1       1.0    39.098
   24679      ao       1    MUSC   Al0gT       1     1.575    26.982
   24680      ao       1    MUSC   Al0gU       1     1.575    26.982
   24681      ao       1    MUSC   Al0gV       1     1.575    26.982
   24682      ao       1    MUSC   Al0gW       1     1.575    26.982
   24683      ao       1    MUSC   Al0gX       1     1.575    26.982
   24684      ao       1    MUSC   Al0gY       1     1.575    26.982
   24685      ao       1    MUSC   Al0gZ       1     1.575    26.982
   24686      ao       1    MUSC   Al0ga       1     1.575    26.982
   24687      st       1    MUSC   Si1Mv       1       2.1    28.086
   24688      st       1    MUSC   Si1Mw       1       2.1    28.086
   24689      st       1    MUSC   Si1Mx       1       2.1    28.086
   24690      st       1    MUSC   Si1My       1       2.1    28.086
   24691      st       1    MUSC   Si1Mz       1       2.1    28.086
   24692      st       1    MUSC   Si1N0       1       2.1    28.086
   24693      st       1    MUSC   Si1N1       1       2.1    28.086
   24694      st       1    MUSC   Si1N2       1       2.1    28.086
   24695      st       1    MUSC   Si1N3       1       2.1    28.086
   24696      st       1    MUSC   Si1N4       1       2.1    28.086
   24697      st       1    MUSC   Si1N5       1       2.1    28.086
   24698      st       1    MUSC   Si1N6       1       2.1    28.086
   24699      st       1    MUSC   Si1N7       1       2.1    28.086
   24700      st       1    MUSC   Si1N8       1       2.1    28.086
   24701      st       1    MUSC   Si1N9       1       2.1    28.086
   24702      st       1    MUSC   Si1NA       1       2.1    28.086
   24703      ob       1    MUSC   O046j       1     -1.05    15.999
   24704      ob       1    MUSC   O046k       1     -1.05    15.999
   24705      ob       1    MUSC   O046l       1     -1.05    15.999
   24706      ob       1    MUSC   O046m       1     -1.05    15.999
   24707      oh       1    MUSC   O046n       1     -0.95    15.999
   24708      oh       1    MUSC   O046o       1     -0.95    15.999
   24709      oh       1    MUSC   O046p       1     -0.95    15.999
   24710      oh       1    MUSC   O046q       1     -0.95    15.999
   24711      ob       1    MUSC   O046r       1     -1.05    15.999
   24712      ob       1    MUSC   O046s       1     -1.05    15.999
   24713      ob       1    MUSC   O046t       1     -1.05    15.999
   24714      ob       1    MUSC   O046u       1     -1.05    15.999
   24715      ob       1    MUSC   O046v       1     -1.05    15.999
   24716      ob       1    MUSC   O046w       1     -1.05    15.999
   24717      ob       1    MUSC   O046x       1     -1.05    15.999
   24718      ob       1    MUSC   O046y       1     -1.05    15.999
   24719      ob       1    MUSC   O046z       1     -1.05    15.999
   24720      ob       1    MUSC   O0470       1     -1.05    15.999
   24721      ob       1    MUSC   O0471       1     -1.05    15.999
   24722      ob       1    MUSC   O0472       1     -1.05    15.999
   24723      ob       1    MUSC   O0473       1     -1.05    15.999
   24724      ob       1    MUSC   O0474       1     -1.05    15.999
   24725      ob       1    MUSC   O0475       1     -1.05    15.999
   24726      ob       1    MUSC   O0476       1     -1.05    15.999
   24727      ob       1    MUSC   O0477       1     -1.05    15.999
   24728      ob       1    MUSC   O0478       1     -1.05    15.999
   24729      ob       1    MUSC   O0479       1     -1.05    15.999
   24730      ob       1    MUSC   O047A       1     -1.05    15.999
   24731      oh       1    MUSC   O047B       1     -0.95    15.999
   24732      oh       1    MUSC   O047C       1     -0.95    15.999
   24733      oh       1    MUSC   O047D       1     -0.95    15.999
   24734      oh       1    MUSC   O047E       1     -0.95    15.999
   24735      ob       1    MUSC   O047F       1     -1.05    15.999
   24736      ob       1    MUSC   O047G       1     -1.05    15.999
   24737      ob       1    MUSC   O047H       1     -1.05    15.999
   24738      ob       1    MUSC   O047I       1     -1.05    15.999
   24739      ob       1    MUSC   O047J       1     -1.05    15.999
   24740      ob       1    MUSC   O047K       1     -1.05    15.999
   24741      ob       1    MUSC   O047L       1     -1.05    15.999
   24742      ob       1    MUSC   O047M       1     -1.05    15.999
   24743      ob       1    MUSC   O047N       1     -1.05    15.999
   24744      ob       1    MUSC   O047O       1     -1.05    15.999
   24745      ob       1    MUSC   O047P       1     -1.05    15.999
   24746      ob       1    MUSC   O047Q       1     -1.05    15.999
   24747      ob       1    MUSC   O047R       1     -1.05    15.999
   24748      ob       1    MUSC   O047S       1     -1.05    15.999
   24749      ob       1    MUSC   O047T       1     -1.05    15.999
   24750      ob       1    MUSC   O047U       1     -1.05    15.999
   24751       K       1    MUSC   K00Fz       1       1.0    39.098
   24752       K       1    MUSC   K00G0       1       1.0    39.098
   24753      ao       1    MUSC   Al0gb       1     1.575    26.982
   24754      ao       1    MUSC   Al0gc       1     1.575    26.982
   24755      ao       1    MUSC   Al0gd       1     1.575    26.982
   24756      ao       1    MUSC   Al0ge       1     1.575    26.982
   24757      ao       1    MUSC   Al0gf       1     1.575    26.982
   24758      ao       1    MUSC   Al0gg       1     1.575    26.982
   24759      ao       1    MUSC   Al0gh       1     1.575    26.982
   24760      ao       1    MUSC   Al0gi       1     1.575    26.982
   24761      st       1    MUSC   Si1NB       1       2.1    28.086
   24762      st       1    MUSC   Si1NC       1       2.1    28.086
   24763      st       1    MUSC   Si1ND       1       2.1    28.086
   24764      st       1    MUSC   Si1NE       1       2.1    28.086
   24765      st       1    MUSC   Si1NF       1       2.1    28.086
   24766      st       1    MUSC   Si1NG       1       2.1    28.086
   24767      st       1    MUSC   Si1NH       1       2.1    28.086
   24768      st       1    MUSC   Si1NI       1       2.1    28.086
   24769      st       1    MUSC   Si1NJ       1       2.1    28.086
   24770      st       1    MUSC   Si1NK       1       2.1    28.086
   24771      st       1    MUSC   Si1NL       1       2.1    28.086
   24772      st       1    MUSC   Si1NM       1       2.1    28.086
   24773      st       1    MUSC   Si1NN       1       2.1    28.086
   24774      st       1    MUSC   Si1NO       1       2.1    28.086
   24775      st       1    MUSC   Si1NP       1       2.1    28.086
   24776      st       1    MUSC   Si1NQ       1       2.1    28.086
   24777      ob       1    MUSC   O047V       1     -1.05    15.999
   24778      ob       1    MUSC   O047W       1     -1.05    15.999
   24779      ob       1    MUSC   O047X       1     -1.05    15.999
   24780      ob       1    MUSC   O047Y       1     -1.05    15.999
   24781      oh       1    MUSC   O047Z       1     -0.95    15.999
   24782      oh       1    MUSC   O047a       1     -0.95    15.999
   24783      oh       1    MUSC   O047b       1     -0.95    15.999
   24784      oh       1    MUSC   O047c       1     -0.95    15.999
   24785      ob       1    MUSC   O047d       1     -1.05    15.999
   24786      ob       1    MUSC   O047e       1     -1.05    15.999
   24787      ob       1    MUSC   O047f       1     -1.05    15.999
   24788      ob       1    MUSC   O047g       1     -1.05    15.999
   24789      ob       1    MUSC   O047h       1     -1.05    15.999
   24790      ob       1    MUSC   O047i       1     -1.05    15.999
   24791      ob       1    MUSC   O047j       1     -1.05    15.999
   24792      ob       1    MUSC   O047k       1     -1.05    15.999
   24793      ob       1    MUSC   O047l       1     -1.05    15.999
   24794      ob       1    MUSC   O047m       1     -1.05    15.999
   24795      ob       1    MUSC   O047n       1     -1.05    15.999
   24796      ob       1    MUSC   O047o       1     -1.05    15.999
   24797      ob       1    MUSC   O047p       1     -1.05    15.999
   24798      ob       1    MUSC   O047q       1     -1.05    15.999
   24799      ob       1    MUSC   O047r       1     -1.05    15.999
   24800      ob       1    MUSC   O047s       1     -1.05    15.999
   24801      ob       1    MUSC   O047t       1     -1.05    15.999
   24802      ob       1    MUSC   O047u       1     -1.05    15.999
   24803      ob       1    MUSC   O047v       1     -1.05    15.999
   24804      ob       1    MUSC   O047w       1     -1.05    15.999
   24805      oh       1    MUSC   O047x       1     -0.95    15.999
   24806      oh       1    MUSC   O047y       1     -0.95    15.999
   24807      oh       1    MUSC   O047z       1     -0.95    15.999
   24808      oh       1    MUSC   O0480       1     -0.95    15.999
   24809      ob       1    MUSC   O0481       1     -1.05    15.999
   24810      ob       1    MUSC   O0482       1     -1.05    15.999
   24811      ob       1    MUSC   O0483       1     -1.05    15.999
   24812      ob       1    MUSC   O0484       1     -1.05    15.999
   24813      ob       1    MUSC   O0485       1     -1.05    15.999
   24814      ob       1    MUSC   O0486       1     -1.05    15.999
   24815      ob       1    MUSC   O0487       1     -1.05    15.999
   24816      ob       1    MUSC   O0488       1     -1.05    15.999
   24817      ob       1    MUSC   O0489       1     -1.05    15.999
   24818      ob       1    MUSC   O048A       1     -1.05    15.999
   24819      ob       1    MUSC   O048B       1     -1.05    15.999
   24820      ob       1    MUSC   O048C       1     -1.05    15.999
   24821      ob       1    MUSC   O048D       1     -1.05    15.999
   24822      ob       1    MUSC   O048E       1     -1.05    15.999
   24823      ob       1    MUSC   O048F       1     -1.05    15.999
   24824      ob       1    MUSC   O048G       1     -1.05    15.999
   24825       K       1    MUSC   K00G1       1       1.0    39.098
   24826       K       1    MUSC   K00G2       1       1.0    39.098
   24827       K       1    MUSC   K00G3       1       1.0    39.098
   24828       K       1    MUSC   K00G4       1       1.0    39.098
   24829      ao       1    MUSC   Al0gj       1     1.575    26.982
   24830      ao       1    MUSC   Al0gk       1     1.575    26.982
   24831      ao       1    MUSC   Al0gl       1     1.575    26.982
   24832      ao       1    MUSC   Al0gm       1     1.575    26.982
   24833      ao       1    MUSC   Al0gn       1     1.575    26.982
   24834      ao       1    MUSC   Al0go       1     1.575    26.982
   24835      ao       1    MUSC   Al0gp       1     1.575    26.982
   24836      ao       1    MUSC   Al0gq       1     1.575    26.982
   24837      st       1    MUSC   Si1NR       1       2.1    28.086
   24838      st       1    MUSC   Si1NS       1       2.1    28.086
   24839      st       1    MUSC   Si1NT       1       2.1    28.086
   24840      st       1    MUSC   Si1NU       1       2.1    28.086
   24841      st       1    MUSC   Si1NV       1       2.1    28.086
   24842      st       1    MUSC   Si1NW       1       2.1    28.086
   24843      st       1    MUSC   Si1NX       1       2.1    28.086
   24844      st       1    MUSC   Si1NY       1       2.1    28.086
   24845      st       1    MUSC   Si1NZ       1       2.1    28.086
   24846      st       1    MUSC   Si1Na       1       2.1    28.086
   24847      st       1    MUSC   Si1Nb       1       2.1    28.086
   24848      st       1    MUSC   Si1Nc       1       2.1    28.086
   24849      st       1    MUSC   Si1Nd       1       2.1    28.086
   24850      st       1    MUSC   Si1Ne       1       2.1    28.086
   24851      st       1    MUSC   Si1Nf       1       2.1    28.086
   24852      st       1    MUSC   Si1Ng       1       2.1    28.086
   24853      ob       1    MUSC   O048H       1     -1.05    15.999
   24854      ob       1    MUSC   O048I       1     -1.05    15.999
   24855      ob       1    MUSC   O048J       1     -1.05    15.999
   24856      ob       1    MUSC   O048K       1     -1.05    15.999
   24857      oh       1    MUSC   O048L       1     -0.95    15.999
   24858      oh       1    MUSC   O048M       1     -0.95    15.999
   24859      oh       1    MUSC   O048N       1     -0.95    15.999
   24860      oh       1    MUSC   O048O       1     -0.95    15.999
   24861      ob       1    MUSC   O048P       1     -1.05    15.999
   24862      ob       1    MUSC   O048Q       1     -1.05    15.999
   24863      ob       1    MUSC   O048R       1     -1.05    15.999
   24864      ob       1    MUSC   O048S       1     -1.05    15.999
   24865      ob       1    MUSC   O048T       1     -1.05    15.999
   24866      ob       1    MUSC   O048U       1     -1.05    15.999
   24867      ob       1    MUSC   O048V       1     -1.05    15.999
   24868      ob       1    MUSC   O048W       1     -1.05    15.999
   24869      ob       1    MUSC   O048X       1     -1.05    15.999
   24870      ob       1    MUSC   O048Y       1     -1.05    15.999
   24871      ob       1    MUSC   O048Z       1     -1.05    15.999
   24872      ob       1    MUSC   O048a       1     -1.05    15.999
   24873      ob       1    MUSC   O048b       1     -1.05    15.999
   24874      ob       1    MUSC   O048c       1     -1.05    15.999
   24875      ob       1    MUSC   O048d       1     -1.05    15.999
   24876      ob       1    MUSC   O048e       1     -1.05    15.999
   24877      ob       1    MUSC   O048f       1     -1.05    15.999
   24878      ob       1    MUSC   O048g       1     -1.05    15.999
   24879      ob       1    MUSC   O048h       1     -1.05    15.999
   24880      ob       1    MUSC   O048i       1     -1.05    15.999
   24881      oh       1    MUSC   O048j       1     -0.95    15.999
   24882      oh       1    MUSC   O048k       1     -0.95    15.999
   24883      oh       1    MUSC   O048l       1     -0.95    15.999
   24884      oh       1    MUSC   O048m       1     -0.95    15.999
   24885      ob       1    MUSC   O048n       1     -1.05    15.999
   24886      ob       1    MUSC   O048o       1     -1.05    15.999
   24887      ob       1    MUSC   O048p       1     -1.05    15.999
   24888      ob       1    MUSC   O048q       1     -1.05    15.999
   24889      ob       1    MUSC   O048r       1     -1.05    15.999
   24890      ob       1    MUSC   O048s       1     -1.05    15.999
   24891      ob       1    MUSC   O048t       1     -1.05    15.999
   24892      ob       1    MUSC   O048u       1     -1.05    15.999
   24893      ob       1    MUSC   O048v       1     -1.05    15.999
   24894      ob       1    MUSC   O048w       1     -1.05    15.999
   24895      ob       1    MUSC   O048x       1     -1.05    15.999
   24896      ob       1    MUSC   O048y       1     -1.05    15.999
   24897      ob       1    MUSC   O048z       1     -1.05    15.999
   24898      ob       1    MUSC   O0490       1     -1.05    15.999
   24899      ob       1    MUSC   O0491       1     -1.05    15.999
   24900      ob       1    MUSC   O0492       1     -1.05    15.999
   24901       K       1    MUSC   K00G5       1       1.0    39.098
   24902       K       1    MUSC   K00G6       1       1.0    39.098
   24903      ao       1    MUSC   Al0gr       1     1.575    26.982
   24904      ao       1    MUSC   Al0gs       1     1.575    26.982
   24905      ao       1    MUSC   Al0gt       1     1.575    26.982
   24906      ao       1    MUSC   Al0gu       1     1.575    26.982
   24907      ao       1    MUSC   Al0gv       1     1.575    26.982
   24908      ao       1    MUSC   Al0gw       1     1.575    26.982
   24909      ao       1    MUSC   Al0gx       1     1.575    26.982
   24910      ao       1    MUSC   Al0gy       1     1.575    26.982
   24911      st       1    MUSC   Si1Nh       1       2.1    28.086
   24912      st       1    MUSC   Si1Ni       1       2.1    28.086
   24913      st       1    MUSC   Si1Nj       1       2.1    28.086
   24914      st       1    MUSC   Si1Nk       1       2.1    28.086
   24915      st       1    MUSC   Si1Nl       1       2.1    28.086
   24916      st       1    MUSC   Si1Nm       1       2.1    28.086
   24917      st       1    MUSC   Si1Nn       1       2.1    28.086
   24918      st       1    MUSC   Si1No       1       2.1    28.086
   24919      st       1    MUSC   Si1Np       1       2.1    28.086
   24920      st       1    MUSC   Si1Nq       1       2.1    28.086
   24921      st       1    MUSC   Si1Nr       1       2.1    28.086
   24922      st       1    MUSC   Si1Ns       1       2.1    28.086
   24923      st       1    MUSC   Si1Nt       1       2.1    28.086
   24924      st       1    MUSC   Si1Nu       1       2.1    28.086
   24925      st       1    MUSC   Si1Nv       1       2.1    28.086
   24926      st       1    MUSC   Si1Nw       1       2.1    28.086
   24927      ob       1    MUSC   O0493       1     -1.05    15.999
   24928      ob       1    MUSC   O0494       1     -1.05    15.999
   24929      ob       1    MUSC   O0495       1     -1.05    15.999
   24930      ob       1    MUSC   O0496       1     -1.05    15.999
   24931      oh       1    MUSC   O0497       1     -0.95    15.999
   24932      oh       1    MUSC   O0498       1     -0.95    15.999
   24933      oh       1    MUSC   O0499       1     -0.95    15.999
   24934      oh       1    MUSC   O049A       1     -0.95    15.999
   24935      ob       1    MUSC   O049B       1     -1.05    15.999
   24936      ob       1    MUSC   O049C       1     -1.05    15.999
   24937      ob       1    MUSC   O049D       1     -1.05    15.999
   24938      ob       1    MUSC   O049E       1     -1.05    15.999
   24939      ob       1    MUSC   O049F       1     -1.05    15.999
   24940      ob       1    MUSC   O049G       1     -1.05    15.999
   24941      ob       1    MUSC   O049H       1     -1.05    15.999
   24942      ob       1    MUSC   O049I       1     -1.05    15.999
   24943      ob       1    MUSC   O049J       1     -1.05    15.999
   24944      ob       1    MUSC   O049K       1     -1.05    15.999
   24945      ob       1    MUSC   O049L       1     -1.05    15.999
   24946      ob       1    MUSC   O049M       1     -1.05    15.999
   24947      ob       1    MUSC   O049N       1     -1.05    15.999
   24948      ob       1    MUSC   O049O       1     -1.05    15.999
   24949      ob       1    MUSC   O049P       1     -1.05    15.999
   24950      ob       1    MUSC   O049Q       1     -1.05    15.999
   24951      ob       1    MUSC   O049R       1     -1.05    15.999
   24952      ob       1    MUSC   O049S       1     -1.05    15.999
   24953      ob       1    MUSC   O049T       1     -1.05    15.999
   24954      ob       1    MUSC   O049U       1     -1.05    15.999
   24955      oh       1    MUSC   O049V       1     -0.95    15.999
   24956      oh       1    MUSC   O049W       1     -0.95    15.999
   24957      oh       1    MUSC   O049X       1     -0.95    15.999
   24958      oh       1    MUSC   O049Y       1     -0.95    15.999
   24959      ob       1    MUSC   O049Z       1     -1.05    15.999
   24960      ob       1    MUSC   O049a       1     -1.05    15.999
   24961      ob       1    MUSC   O049b       1     -1.05    15.999
   24962      ob       1    MUSC   O049c       1     -1.05    15.999
   24963      ob       1    MUSC   O049d       1     -1.05    15.999
   24964      ob       1    MUSC   O049e       1     -1.05    15.999
   24965      ob       1    MUSC   O049f       1     -1.05    15.999
   24966      ob       1    MUSC   O049g       1     -1.05    15.999
   24967      ob       1    MUSC   O049h       1     -1.05    15.999
   24968      ob       1    MUSC   O049i       1     -1.05    15.999
   24969      ob       1    MUSC   O049j       1     -1.05    15.999
   24970      ob       1    MUSC   O049k       1     -1.05    15.999
   24971      ob       1    MUSC   O049l       1     -1.05    15.999
   24972      ob       1    MUSC   O049m       1     -1.05    15.999
   24973      ob       1    MUSC   O049n       1     -1.05    15.999
   24974      ob       1    MUSC   O049o       1     -1.05    15.999
   24975       K       1    MUSC   K00G7       1       1.0    39.098
   24976       K       1    MUSC   K00G8       1       1.0    39.098
   24977       K       1    MUSC   K00G9       1       1.0    39.098
   24978       K       1    MUSC   K00GA       1       1.0    39.098
   24979      ao       1    MUSC   Al0gz       1     1.575    26.982
   24980      ao       1    MUSC   Al0h0       1     1.575    26.982
   24981      ao       1    MUSC   Al0h1       1     1.575    26.982
   24982      ao       1    MUSC   Al0h2       1     1.575    26.982
   24983      ao       1    MUSC   Al0h3       1     1.575    26.982
   24984      ao       1    MUSC   Al0h4       1     1.575    26.982
   24985      ao       1    MUSC   Al0h5       1     1.575    26.982
   24986      ao       1    MUSC   Al0h6       1     1.575    26.982
   24987      st       1    MUSC   Si1Nx       1       2.1    28.086
   24988      st       1    MUSC   Si1Ny       1       2.1    28.086
   24989      st       1    MUSC   Si1Nz       1       2.1    28.086
   24990      st       1    MUSC   Si1O0       1       2.1    28.086
   24991      st       1    MUSC   Si1O1       1       2.1    28.086
   24992      st       1    MUSC   Si1O2       1       2.1    28.086
   24993      st       1    MUSC   Si1O3       1       2.1    28.086
   24994      st       1    MUSC   Si1O4       1       2.1    28.086
   24995      st       1    MUSC   Si1O5       1       2.1    28.086
   24996      st       1    MUSC   Si1O6       1       2.1    28.086
   24997      st       1    MUSC   Si1O7       1       2.1    28.086
   24998      st       1    MUSC   Si1O8       1       2.1    28.086
   24999      st       1    MUSC   Si1O9       1       2.1    28.086
   25000      st       1    MUSC   Si1OA       1       2.1    28.086
   25001      st       1    MUSC   Si1OB       1       2.1    28.086
   25002      st       1    MUSC   Si1OC       1       2.1    28.086
   25003      ob       1    MUSC   O049p       1     -1.05    15.999
   25004      ob       1    MUSC   O049q       1     -1.05    15.999
   25005      ob       1    MUSC   O049r       1     -1.05    15.999
   25006      ob       1    MUSC   O049s       1     -1.05    15.999
   25007      oh       1    MUSC   O049t       1     -0.95    15.999
   25008      oh       1    MUSC   O049u       1     -0.95    15.999
   25009      oh       1    MUSC   O049v       1     -0.95    15.999
   25010      oh       1    MUSC   O049w       1     -0.95    15.999
   25011      ob       1    MUSC   O049x       1     -1.05    15.999
   25012      ob       1    MUSC   O049y       1     -1.05    15.999
   25013      ob       1    MUSC   O049z       1     -1.05    15.999
   25014      ob       1    MUSC   O04A0       1     -1.05    15.999
   25015      ob       1    MUSC   O04A1       1     -1.05    15.999
   25016      ob       1    MUSC   O04A2       1     -1.05    15.999
   25017      ob       1    MUSC   O04A3       1     -1.05    15.999
   25018      ob       1    MUSC   O04A4       1     -1.05    15.999
   25019      ob       1    MUSC   O04A5       1     -1.05    15.999
   25020      ob       1    MUSC   O04A6       1     -1.05    15.999
   25021      ob       1    MUSC   O04A7       1     -1.05    15.999
   25022      ob       1    MUSC   O04A8       1     -1.05    15.999
   25023      ob       1    MUSC   O04A9       1     -1.05    15.999
   25024      ob       1    MUSC   O04AA       1     -1.05    15.999
   25025      ob       1    MUSC   O04AB       1     -1.05    15.999
   25026      ob       1    MUSC   O04AC       1     -1.05    15.999
   25027      ob       1    MUSC   O04AD       1     -1.05    15.999
   25028      ob       1    MUSC   O04AE       1     -1.05    15.999
   25029      ob       1    MUSC   O04AF       1     -1.05    15.999
   25030      ob       1    MUSC   O04AG       1     -1.05    15.999
   25031      oh       1    MUSC   O04AH       1     -0.95    15.999
   25032      oh       1    MUSC   O04AI       1     -0.95    15.999
   25033      oh       1    MUSC   O04AJ       1     -0.95    15.999
   25034      oh       1    MUSC   O04AK       1     -0.95    15.999
   25035      ob       1    MUSC   O04AL       1     -1.05    15.999
   25036      ob       1    MUSC   O04AM       1     -1.05    15.999
   25037      ob       1    MUSC   O04AN       1     -1.05    15.999
   25038      ob       1    MUSC   O04AO       1     -1.05    15.999
   25039      ob       1    MUSC   O04AP       1     -1.05    15.999
   25040      ob       1    MUSC   O04AQ       1     -1.05    15.999
   25041      ob       1    MUSC   O04AR       1     -1.05    15.999
   25042      ob       1    MUSC   O04AS       1     -1.05    15.999
   25043      ob       1    MUSC   O04AT       1     -1.05    15.999
   25044      ob       1    MUSC   O04AU       1     -1.05    15.999
   25045      ob       1    MUSC   O04AV       1     -1.05    15.999
   25046      ob       1    MUSC   O04AW       1     -1.05    15.999
   25047      ob       1    MUSC   O04AX       1     -1.05    15.999
   25048      ob       1    MUSC   O04AY       1     -1.05    15.999
   25049      ob       1    MUSC   O04AZ       1     -1.05    15.999
   25050      ob       1    MUSC   O04Aa       1     -1.05    15.999
   25051       K       1    MUSC   K00GB       1       1.0    39.098
   25052       K       1    MUSC   K00GC       1       1.0    39.098
   25053      ao       1    MUSC   Al0h7       1     1.575    26.982
   25054      ao       1    MUSC   Al0h8       1     1.575    26.982
   25055      ao       1    MUSC   Al0h9       1     1.575    26.982
   25056      ao       1    MUSC   Al0hA       1     1.575    26.982
   25057      ao       1    MUSC   Al0hB       1     1.575    26.982
   25058      ao       1    MUSC   Al0hC       1     1.575    26.982
   25059      ao       1    MUSC   Al0hD       1     1.575    26.982
   25060      ao       1    MUSC   Al0hE       1     1.575    26.982
   25061      st       1    MUSC   Si1OD       1       2.1    28.086
   25062      st       1    MUSC   Si1OE       1       2.1    28.086
   25063      st       1    MUSC   Si1OF       1       2.1    28.086
   25064      st       1    MUSC   Si1OG       1       2.1    28.086
   25065      st       1    MUSC   Si1OH       1       2.1    28.086
   25066      st       1    MUSC   Si1OI       1       2.1    28.086
   25067      st       1    MUSC   Si1OJ       1       2.1    28.086
   25068      st       1    MUSC   Si1OK       1       2.1    28.086
   25069      st       1    MUSC   Si1OL       1       2.1    28.086
   25070      st       1    MUSC   Si1OM       1       2.1    28.086
   25071      st       1    MUSC   Si1ON       1       2.1    28.086
   25072      st       1    MUSC   Si1OO       1       2.1    28.086
   25073      st       1    MUSC   Si1OP       1       2.1    28.086
   25074      st       1    MUSC   Si1OQ       1       2.1    28.086
   25075      st       1    MUSC   Si1OR       1       2.1    28.086
   25076      st       1    MUSC   Si1OS       1       2.1    28.086
   25077      ob       1    MUSC   O04Ab       1     -1.05    15.999
   25078      ob       1    MUSC   O04Ac       1     -1.05    15.999
   25079      ob       1    MUSC   O04Ad       1     -1.05    15.999
   25080      ob       1    MUSC   O04Ae       1     -1.05    15.999
   25081      oh       1    MUSC   O04Af       1     -0.95    15.999
   25082      oh       1    MUSC   O04Ag       1     -0.95    15.999
   25083      oh       1    MUSC   O04Ah       1     -0.95    15.999
   25084      oh       1    MUSC   O04Ai       1     -0.95    15.999
   25085      ob       1    MUSC   O04Aj       1     -1.05    15.999
   25086      ob       1    MUSC   O04Ak       1     -1.05    15.999
   25087      ob       1    MUSC   O04Al       1     -1.05    15.999
   25088      ob       1    MUSC   O04Am       1     -1.05    15.999
   25089      ob       1    MUSC   O04An       1     -1.05    15.999
   25090      ob       1    MUSC   O04Ao       1     -1.05    15.999
   25091      ob       1    MUSC   O04Ap       1     -1.05    15.999
   25092      ob       1    MUSC   O04Aq       1     -1.05    15.999
   25093      ob       1    MUSC   O04Ar       1     -1.05    15.999
   25094      ob       1    MUSC   O04As       1     -1.05    15.999
   25095      ob       1    MUSC   O04At       1     -1.05    15.999
   25096      ob       1    MUSC   O04Au       1     -1.05    15.999
   25097      ob       1    MUSC   O04Av       1     -1.05    15.999
   25098      ob       1    MUSC   O04Aw       1     -1.05    15.999
   25099      ob       1    MUSC   O04Ax       1     -1.05    15.999
   25100      ob       1    MUSC   O04Ay       1     -1.05    15.999
   25101      ob       1    MUSC   O04Az       1     -1.05    15.999
   25102      ob       1    MUSC   O04B0       1     -1.05    15.999
   25103      ob       1    MUSC   O04B1       1     -1.05    15.999
   25104      ob       1    MUSC   O04B2       1     -1.05    15.999
   25105      oh       1    MUSC   O04B3       1     -0.95    15.999
   25106      oh       1    MUSC   O04B4       1     -0.95    15.999
   25107      oh       1    MUSC   O04B5       1     -0.95    15.999
   25108      oh       1    MUSC   O04B6       1     -0.95    15.999
   25109      ob       1    MUSC   O04B7       1     -1.05    15.999
   25110      ob       1    MUSC   O04B8       1     -1.05    15.999
   25111      ob       1    MUSC   O04B9       1     -1.05    15.999
   25112      ob       1    MUSC   O04BA       1     -1.05    15.999
   25113      ob       1    MUSC   O04BB       1     -1.05    15.999
   25114      ob       1    MUSC   O04BC       1     -1.05    15.999
   25115      ob       1    MUSC   O04BD       1     -1.05    15.999
   25116      ob       1    MUSC   O04BE       1     -1.05    15.999
   25117      ob       1    MUSC   O04BF       1     -1.05    15.999
   25118      ob       1    MUSC   O04BG       1     -1.05    15.999
   25119      ob       1    MUSC   O04BH       1     -1.05    15.999
   25120      ob       1    MUSC   O04BI       1     -1.05    15.999
   25121      ob       1    MUSC   O04BJ       1     -1.05    15.999
   25122      ob       1    MUSC   O04BK       1     -1.05    15.999
   25123      ob       1    MUSC   O04BL       1     -1.05    15.999
   25124      ob       1    MUSC   O04BM       1     -1.05    15.999
   25125       K       1    MUSC   K00GD       1       1.0    39.098
   25126       K       1    MUSC   K00GE       1       1.0    39.098
   25127       K       1    MUSC   K00GF       1       1.0    39.098
   25128       K       1    MUSC   K00GG       1       1.0    39.098
   25129      ao       1    MUSC   Al0hF       1     1.575    26.982
   25130      ao       1    MUSC   Al0hG       1     1.575    26.982
   25131      ao       1    MUSC   Al0hH       1     1.575    26.982
   25132      ao       1    MUSC   Al0hI       1     1.575    26.982
   25133      ao       1    MUSC   Al0hJ       1     1.575    26.982
   25134      ao       1    MUSC   Al0hK       1     1.575    26.982
   25135      ao       1    MUSC   Al0hL       1     1.575    26.982
   25136      ao       1    MUSC   Al0hM       1     1.575    26.982
   25137      st       1    MUSC   Si1OT       1       2.1    28.086
   25138      st       1    MUSC   Si1OU       1       2.1    28.086
   25139      st       1    MUSC   Si1OV       1       2.1    28.086
   25140      st       1    MUSC   Si1OW       1       2.1    28.086
   25141      st       1    MUSC   Si1OX       1       2.1    28.086
   25142      st       1    MUSC   Si1OY       1       2.1    28.086
   25143      st       1    MUSC   Si1OZ       1       2.1    28.086
   25144      st       1    MUSC   Si1Oa       1       2.1    28.086
   25145      st       1    MUSC   Si1Ob       1       2.1    28.086
   25146      st       1    MUSC   Si1Oc       1       2.1    28.086
   25147      st       1    MUSC   Si1Od       1       2.1    28.086
   25148      st       1    MUSC   Si1Oe       1       2.1    28.086
   25149      st       1    MUSC   Si1Of       1       2.1    28.086
   25150      st       1    MUSC   Si1Og       1       2.1    28.086
   25151      st       1    MUSC   Si1Oh       1       2.1    28.086
   25152      st       1    MUSC   Si1Oi       1       2.1    28.086
   25153      ob       1    MUSC   O04BN       1     -1.05    15.999
   25154      ob       1    MUSC   O04BO       1     -1.05    15.999
   25155      ob       1    MUSC   O04BP       1     -1.05    15.999
   25156      ob       1    MUSC   O04BQ       1     -1.05    15.999
   25157      oh       1    MUSC   O04BR       1     -0.95    15.999
   25158      oh       1    MUSC   O04BS       1     -0.95    15.999
   25159      oh       1    MUSC   O04BT       1     -0.95    15.999
   25160      oh       1    MUSC   O04BU       1     -0.95    15.999
   25161      ob       1    MUSC   O04BV       1     -1.05    15.999
   25162      ob       1    MUSC   O04BW       1     -1.05    15.999
   25163      ob       1    MUSC   O04BX       1     -1.05    15.999
   25164      ob       1    MUSC   O04BY       1     -1.05    15.999
   25165      ob       1    MUSC   O04BZ       1     -1.05    15.999
   25166      ob       1    MUSC   O04Ba       1     -1.05    15.999
   25167      ob       1    MUSC   O04Bb       1     -1.05    15.999
   25168      ob       1    MUSC   O04Bc       1     -1.05    15.999
   25169      ob       1    MUSC   O04Bd       1     -1.05    15.999
   25170      ob       1    MUSC   O04Be       1     -1.05    15.999
   25171      ob       1    MUSC   O04Bf       1     -1.05    15.999
   25172      ob       1    MUSC   O04Bg       1     -1.05    15.999
   25173      ob       1    MUSC   O04Bh       1     -1.05    15.999
   25174      ob       1    MUSC   O04Bi       1     -1.05    15.999
   25175      ob       1    MUSC   O04Bj       1     -1.05    15.999
   25176      ob       1    MUSC   O04Bk       1     -1.05    15.999
   25177      ob       1    MUSC   O04Bl       1     -1.05    15.999
   25178      ob       1    MUSC   O04Bm       1     -1.05    15.999
   25179      ob       1    MUSC   O04Bn       1     -1.05    15.999
   25180      ob       1    MUSC   O04Bo       1     -1.05    15.999
   25181      oh       1    MUSC   O04Bp       1     -0.95    15.999
   25182      oh       1    MUSC   O04Bq       1     -0.95    15.999
   25183      oh       1    MUSC   O04Br       1     -0.95    15.999
   25184      oh       1    MUSC   O04Bs       1     -0.95    15.999
   25185      ob       1    MUSC   O04Bt       1     -1.05    15.999
   25186      ob       1    MUSC   O04Bu       1     -1.05    15.999
   25187      ob       1    MUSC   O04Bv       1     -1.05    15.999
   25188      ob       1    MUSC   O04Bw       1     -1.05    15.999
   25189      ob       1    MUSC   O04Bx       1     -1.05    15.999
   25190      ob       1    MUSC   O04By       1     -1.05    15.999
   25191      ob       1    MUSC   O04Bz       1     -1.05    15.999
   25192      ob       1    MUSC   O04C0       1     -1.05    15.999
   25193      ob       1    MUSC   O04C1       1     -1.05    15.999
   25194      ob       1    MUSC   O04C2       1     -1.05    15.999
   25195      ob       1    MUSC   O04C3       1     -1.05    15.999
   25196      ob       1    MUSC   O04C4       1     -1.05    15.999
   25197      ob       1    MUSC   O04C5       1     -1.05    15.999
   25198      ob       1    MUSC   O04C6       1     -1.05    15.999
   25199      ob       1    MUSC   O04C7       1     -1.05    15.999
   25200      ob       1    MUSC   O04C8       1     -1.05    15.999
   25201       K       1    MUSC   K00GH       1       1.0    39.098
   25202       K       1    MUSC   K00GI       1       1.0    39.098
   25203      ao       1    MUSC   Al0hN       1     1.575    26.982
   25204      ao       1    MUSC   Al0hO       1     1.575    26.982
   25205      ao       1    MUSC   Al0hP       1     1.575    26.982
   25206      ao       1    MUSC   Al0hQ       1     1.575    26.982
   25207      ao       1    MUSC   Al0hR       1     1.575    26.982
   25208      ao       1    MUSC   Al0hS       1     1.575    26.982
   25209      ao       1    MUSC   Al0hT       1     1.575    26.982
   25210      ao       1    MUSC   Al0hU       1     1.575    26.982
   25211      st       1    MUSC   Si1Oj       1       2.1    28.086
   25212      st       1    MUSC   Si1Ok       1       2.1    28.086
   25213      st       1    MUSC   Si1Ol       1       2.1    28.086
   25214      st       1    MUSC   Si1Om       1       2.1    28.086
   25215      st       1    MUSC   Si1On       1       2.1    28.086
   25216      st       1    MUSC   Si1Oo       1       2.1    28.086
   25217      st       1    MUSC   Si1Op       1       2.1    28.086
   25218      st       1    MUSC   Si1Oq       1       2.1    28.086
   25219      st       1    MUSC   Si1Or       1       2.1    28.086
   25220      st       1    MUSC   Si1Os       1       2.1    28.086
   25221      st       1    MUSC   Si1Ot       1       2.1    28.086
   25222      st       1    MUSC   Si1Ou       1       2.1    28.086
   25223      st       1    MUSC   Si1Ov       1       2.1    28.086
   25224      st       1    MUSC   Si1Ow       1       2.1    28.086
   25225      st       1    MUSC   Si1Ox       1       2.1    28.086
   25226      st       1    MUSC   Si1Oy       1       2.1    28.086
   25227      ob       1    MUSC   O04C9       1     -1.05    15.999
   25228      ob       1    MUSC   O04CA       1     -1.05    15.999
   25229      ob       1    MUSC   O04CB       1     -1.05    15.999
   25230      ob       1    MUSC   O04CC       1     -1.05    15.999
   25231      oh       1    MUSC   O04CD       1     -0.95    15.999
   25232      oh       1    MUSC   O04CE       1     -0.95    15.999
   25233      oh       1    MUSC   O04CF       1     -0.95    15.999
   25234      oh       1    MUSC   O04CG       1     -0.95    15.999
   25235      ob       1    MUSC   O04CH       1     -1.05    15.999
   25236      ob       1    MUSC   O04CI       1     -1.05    15.999
   25237      ob       1    MUSC   O04CJ       1     -1.05    15.999
   25238      ob       1    MUSC   O04CK       1     -1.05    15.999
   25239      ob       1    MUSC   O04CL       1     -1.05    15.999
   25240      ob       1    MUSC   O04CM       1     -1.05    15.999
   25241      ob       1    MUSC   O04CN       1     -1.05    15.999
   25242      ob       1    MUSC   O04CO       1     -1.05    15.999
   25243      ob       1    MUSC   O04CP       1     -1.05    15.999
   25244      ob       1    MUSC   O04CQ       1     -1.05    15.999
   25245      ob       1    MUSC   O04CR       1     -1.05    15.999
   25246      ob       1    MUSC   O04CS       1     -1.05    15.999
   25247      ob       1    MUSC   O04CT       1     -1.05    15.999
   25248      ob       1    MUSC   O04CU       1     -1.05    15.999
   25249      ob       1    MUSC   O04CV       1     -1.05    15.999
   25250      ob       1    MUSC   O04CW       1     -1.05    15.999
   25251      ob       1    MUSC   O04CX       1     -1.05    15.999
   25252      ob       1    MUSC   O04CY       1     -1.05    15.999
   25253      ob       1    MUSC   O04CZ       1     -1.05    15.999
   25254      ob       1    MUSC   O04Ca       1     -1.05    15.999
   25255      oh       1    MUSC   O04Cb       1     -0.95    15.999
   25256      oh       1    MUSC   O04Cc       1     -0.95    15.999
   25257      oh       1    MUSC   O04Cd       1     -0.95    15.999
   25258      oh       1    MUSC   O04Ce       1     -0.95    15.999
   25259      ob       1    MUSC   O04Cf       1     -1.05    15.999
   25260      ob       1    MUSC   O04Cg       1     -1.05    15.999
   25261      ob       1    MUSC   O04Ch       1     -1.05    15.999
   25262      ob       1    MUSC   O04Ci       1     -1.05    15.999
   25263      ob       1    MUSC   O04Cj       1     -1.05    15.999
   25264      ob       1    MUSC   O04Ck       1     -1.05    15.999
   25265      ob       1    MUSC   O04Cl       1     -1.05    15.999
   25266      ob       1    MUSC   O04Cm       1     -1.05    15.999
   25267      ob       1    MUSC   O04Cn       1     -1.05    15.999
   25268      ob       1    MUSC   O04Co       1     -1.05    15.999
   25269      ob       1    MUSC   O04Cp       1     -1.05    15.999
   25270      ob       1    MUSC   O04Cq       1     -1.05    15.999
   25271      ob       1    MUSC   O04Cr       1     -1.05    15.999
   25272      ob       1    MUSC   O04Cs       1     -1.05    15.999
   25273      ob       1    MUSC   O04Ct       1     -1.05    15.999
   25274      ob       1    MUSC   O04Cu       1     -1.05    15.999
   25275       K       1    MUSC   K00GJ       1       1.0    39.098
   25276       K       1    MUSC   K00GK       1       1.0    39.098
   25277       K       1    MUSC   K00GL       1       1.0    39.098
   25278       K       1    MUSC   K00GM       1       1.0    39.098
   25279      ao       1    MUSC   Al0hV       1     1.575    26.982
   25280      ao       1    MUSC   Al0hW       1     1.575    26.982
   25281      ao       1    MUSC   Al0hX       1     1.575    26.982
   25282      ao       1    MUSC   Al0hY       1     1.575    26.982
   25283      ao       1    MUSC   Al0hZ       1     1.575    26.982
   25284      ao       1    MUSC   Al0ha       1     1.575    26.982
   25285      ao       1    MUSC   Al0hb       1     1.575    26.982
   25286      ao       1    MUSC   Al0hc       1     1.575    26.982
   25287      st       1    MUSC   Si1Oz       1       2.1    28.086
   25288      st       1    MUSC   Si1P0       1       2.1    28.086
   25289      st       1    MUSC   Si1P1       1       2.1    28.086
   25290      st       1    MUSC   Si1P2       1       2.1    28.086
   25291      st       1    MUSC   Si1P3       1       2.1    28.086
   25292      st       1    MUSC   Si1P4       1       2.1    28.086
   25293      st       1    MUSC   Si1P5       1       2.1    28.086
   25294      st       1    MUSC   Si1P6       1       2.1    28.086
   25295      st       1    MUSC   Si1P7       1       2.1    28.086
   25296      st       1    MUSC   Si1P8       1       2.1    28.086
   25297      st       1    MUSC   Si1P9       1       2.1    28.086
   25298      st       1    MUSC   Si1PA       1       2.1    28.086
   25299      st       1    MUSC   Si1PB       1       2.1    28.086
   25300      st       1    MUSC   Si1PC       1       2.1    28.086
   25301      st       1    MUSC   Si1PD       1       2.1    28.086
   25302      st       1    MUSC   Si1PE       1       2.1    28.086
   25303      ob       1    MUSC   O04Cv       1     -1.05    15.999
   25304      ob       1    MUSC   O04Cw       1     -1.05    15.999
   25305      ob       1    MUSC   O04Cx       1     -1.05    15.999
   25306      ob       1    MUSC   O04Cy       1     -1.05    15.999
   25307      oh       1    MUSC   O04Cz       1     -0.95    15.999
   25308      oh       1    MUSC   O04D0       1     -0.95    15.999
   25309      oh       1    MUSC   O04D1       1     -0.95    15.999
   25310      oh       1    MUSC   O04D2       1     -0.95    15.999
   25311      ob       1    MUSC   O04D3       1     -1.05    15.999
   25312      ob       1    MUSC   O04D4       1     -1.05    15.999
   25313      ob       1    MUSC   O04D5       1     -1.05    15.999
   25314      ob       1    MUSC   O04D6       1     -1.05    15.999
   25315      ob       1    MUSC   O04D7       1     -1.05    15.999
   25316      ob       1    MUSC   O04D8       1     -1.05    15.999
   25317      ob       1    MUSC   O04D9       1     -1.05    15.999
   25318      ob       1    MUSC   O04DA       1     -1.05    15.999
   25319      ob       1    MUSC   O04DB       1     -1.05    15.999
   25320      ob       1    MUSC   O04DC       1     -1.05    15.999
   25321      ob       1    MUSC   O04DD       1     -1.05    15.999
   25322      ob       1    MUSC   O04DE       1     -1.05    15.999
   25323      ob       1    MUSC   O04DF       1     -1.05    15.999
   25324      ob       1    MUSC   O04DG       1     -1.05    15.999
   25325      ob       1    MUSC   O04DH       1     -1.05    15.999
   25326      ob       1    MUSC   O04DI       1     -1.05    15.999
   25327      ob       1    MUSC   O04DJ       1     -1.05    15.999
   25328      ob       1    MUSC   O04DK       1     -1.05    15.999
   25329      ob       1    MUSC   O04DL       1     -1.05    15.999
   25330      ob       1    MUSC   O04DM       1     -1.05    15.999
   25331      oh       1    MUSC   O04DN       1     -0.95    15.999
   25332      oh       1    MUSC   O04DO       1     -0.95    15.999
   25333      oh       1    MUSC   O04DP       1     -0.95    15.999
   25334      oh       1    MUSC   O04DQ       1     -0.95    15.999
   25335      ob       1    MUSC   O04DR       1     -1.05    15.999
   25336      ob       1    MUSC   O04DS       1     -1.05    15.999
   25337      ob       1    MUSC   O04DT       1     -1.05    15.999
   25338      ob       1    MUSC   O04DU       1     -1.05    15.999
   25339      ob       1    MUSC   O04DV       1     -1.05    15.999
   25340      ob       1    MUSC   O04DW       1     -1.05    15.999
   25341      ob       1    MUSC   O04DX       1     -1.05    15.999
   25342      ob       1    MUSC   O04DY       1     -1.05    15.999
   25343      ob       1    MUSC   O04DZ       1     -1.05    15.999
   25344      ob       1    MUSC   O04Da       1     -1.05    15.999
   25345      ob       1    MUSC   O04Db       1     -1.05    15.999
   25346      ob       1    MUSC   O04Dc       1     -1.05    15.999
   25347      ob       1    MUSC   O04Dd       1     -1.05    15.999
   25348      ob       1    MUSC   O04De       1     -1.05    15.999
   25349      ob       1    MUSC   O04Df       1     -1.05    15.999
   25350      ob       1    MUSC   O04Dg       1     -1.05    15.999
   25351       K       1    MUSC   K00GN       1       1.0    39.098
   25352       K       1    MUSC   K00GO       1       1.0    39.098
   25353      ao       1    MUSC   Al0hd       1     1.575    26.982
   25354      ao       1    MUSC   Al0he       1     1.575    26.982
   25355      ao       1    MUSC   Al0hf       1     1.575    26.982
   25356      ao       1    MUSC   Al0hg       1     1.575    26.982
   25357      ao       1    MUSC   Al0hh       1     1.575    26.982
   25358      ao       1    MUSC   Al0hi       1     1.575    26.982
   25359      ao       1    MUSC   Al0hj       1     1.575    26.982
   25360      ao       1    MUSC   Al0hk       1     1.575    26.982
   25361      st       1    MUSC   Si1PF       1       2.1    28.086
   25362      st       1    MUSC   Si1PG       1       2.1    28.086
   25363      st       1    MUSC   Si1PH       1       2.1    28.086
   25364      st       1    MUSC   Si1PI       1       2.1    28.086
   25365      st       1    MUSC   Si1PJ       1       2.1    28.086
   25366      st       1    MUSC   Si1PK       1       2.1    28.086
   25367      st       1    MUSC   Si1PL       1       2.1    28.086
   25368      st       1    MUSC   Si1PM       1       2.1    28.086
   25369      st       1    MUSC   Si1PN       1       2.1    28.086
   25370      st       1    MUSC   Si1PO       1       2.1    28.086
   25371      st       1    MUSC   Si1PP       1       2.1    28.086
   25372      st       1    MUSC   Si1PQ       1       2.1    28.086
   25373      st       1    MUSC   Si1PR       1       2.1    28.086
   25374      st       1    MUSC   Si1PS       1       2.1    28.086
   25375      st       1    MUSC   Si1PT       1       2.1    28.086
   25376      st       1    MUSC   Si1PU       1       2.1    28.086
   25377      ob       1    MUSC   O04Dh       1     -1.05    15.999
   25378      ob       1    MUSC   O04Di       1     -1.05    15.999
   25379      ob       1    MUSC   O04Dj       1     -1.05    15.999
   25380      ob       1    MUSC   O04Dk       1     -1.05    15.999
   25381      oh       1    MUSC   O04Dl       1     -0.95    15.999
   25382      oh       1    MUSC   O04Dm       1     -0.95    15.999
   25383      oh       1    MUSC   O04Dn       1     -0.95    15.999
   25384      oh       1    MUSC   O04Do       1     -0.95    15.999
   25385      ob       1    MUSC   O04Dp       1     -1.05    15.999
   25386      ob       1    MUSC   O04Dq       1     -1.05    15.999
   25387      ob       1    MUSC   O04Dr       1     -1.05    15.999
   25388      ob       1    MUSC   O04Ds       1     -1.05    15.999
   25389      ob       1    MUSC   O04Dt       1     -1.05    15.999
   25390      ob       1    MUSC   O04Du       1     -1.05    15.999
   25391      ob       1    MUSC   O04Dv       1     -1.05    15.999
   25392      ob       1    MUSC   O04Dw       1     -1.05    15.999
   25393      ob       1    MUSC   O04Dx       1     -1.05    15.999
   25394      ob       1    MUSC   O04Dy       1     -1.05    15.999
   25395      ob       1    MUSC   O04Dz       1     -1.05    15.999
   25396      ob       1    MUSC   O04E0       1     -1.05    15.999
   25397      ob       1    MUSC   O04E1       1     -1.05    15.999
   25398      ob       1    MUSC   O04E2       1     -1.05    15.999
   25399      ob       1    MUSC   O04E3       1     -1.05    15.999
   25400      ob       1    MUSC   O04E4       1     -1.05    15.999
   25401      ob       1    MUSC   O04E5       1     -1.05    15.999
   25402      ob       1    MUSC   O04E6       1     -1.05    15.999
   25403      ob       1    MUSC   O04E7       1     -1.05    15.999
   25404      ob       1    MUSC   O04E8       1     -1.05    15.999
   25405      oh       1    MUSC   O04E9       1     -0.95    15.999
   25406      oh       1    MUSC   O04EA       1     -0.95    15.999
   25407      oh       1    MUSC   O04EB       1     -0.95    15.999
   25408      oh       1    MUSC   O04EC       1     -0.95    15.999
   25409      ob       1    MUSC   O04ED       1     -1.05    15.999
   25410      ob       1    MUSC   O04EE       1     -1.05    15.999
   25411      ob       1    MUSC   O04EF       1     -1.05    15.999
   25412      ob       1    MUSC   O04EG       1     -1.05    15.999
   25413      ob       1    MUSC   O04EH       1     -1.05    15.999
   25414      ob       1    MUSC   O04EI       1     -1.05    15.999
   25415      ob       1    MUSC   O04EJ       1     -1.05    15.999
   25416      ob       1    MUSC   O04EK       1     -1.05    15.999
   25417      ob       1    MUSC   O04EL       1     -1.05    15.999
   25418      ob       1    MUSC   O04EM       1     -1.05    15.999
   25419      ob       1    MUSC   O04EN       1     -1.05    15.999
   25420      ob       1    MUSC   O04EO       1     -1.05    15.999
   25421      ob       1    MUSC   O04EP       1     -1.05    15.999
   25422      ob       1    MUSC   O04EQ       1     -1.05    15.999
   25423      ob       1    MUSC   O04ER       1     -1.05    15.999
   25424      ob       1    MUSC   O04ES       1     -1.05    15.999
   25425       K       1    MUSC   K00GP       1       1.0    39.098
   25426       K       1    MUSC   K00GQ       1       1.0    39.098
   25427       K       1    MUSC   K00GR       1       1.0    39.098
   25428       K       1    MUSC   K00GS       1       1.0    39.098
   25429      ao       1    MUSC   Al0hl       1     1.575    26.982
   25430      ao       1    MUSC   Al0hm       1     1.575    26.982
   25431      ao       1    MUSC   Al0hn       1     1.575    26.982
   25432      ao       1    MUSC   Al0ho       1     1.575    26.982
   25433      ao       1    MUSC   Al0hp       1     1.575    26.982
   25434      ao       1    MUSC   Al0hq       1     1.575    26.982
   25435      ao       1    MUSC   Al0hr       1     1.575    26.982
   25436      ao       1    MUSC   Al0hs       1     1.575    26.982
   25437      st       1    MUSC   Si1PV       1       2.1    28.086
   25438      st       1    MUSC   Si1PW       1       2.1    28.086
   25439      st       1    MUSC   Si1PX       1       2.1    28.086
   25440      st       1    MUSC   Si1PY       1       2.1    28.086
   25441      st       1    MUSC   Si1PZ       1       2.1    28.086
   25442      st       1    MUSC   Si1Pa       1       2.1    28.086
   25443      st       1    MUSC   Si1Pb       1       2.1    28.086
   25444      st       1    MUSC   Si1Pc       1       2.1    28.086
   25445      st       1    MUSC   Si1Pd       1       2.1    28.086
   25446      st       1    MUSC   Si1Pe       1       2.1    28.086
   25447      st       1    MUSC   Si1Pf       1       2.1    28.086
   25448      st       1    MUSC   Si1Pg       1       2.1    28.086
   25449      st       1    MUSC   Si1Ph       1       2.1    28.086
   25450      st       1    MUSC   Si1Pi       1       2.1    28.086
   25451      st       1    MUSC   Si1Pj       1       2.1    28.086
   25452      st       1    MUSC   Si1Pk       1       2.1    28.086
   25453      ob       1    MUSC   O04ET       1     -1.05    15.999
   25454      ob       1    MUSC   O04EU       1     -1.05    15.999
   25455      ob       1    MUSC   O04EV       1     -1.05    15.999
   25456      ob       1    MUSC   O04EW       1     -1.05    15.999
   25457      oh       1    MUSC   O04EX       1     -0.95    15.999
   25458      oh       1    MUSC   O04EY       1     -0.95    15.999
   25459      oh       1    MUSC   O04EZ       1     -0.95    15.999
   25460      oh       1    MUSC   O04Ea       1     -0.95    15.999
   25461      ob       1    MUSC   O04Eb       1     -1.05    15.999
   25462      ob       1    MUSC   O04Ec       1     -1.05    15.999
   25463      ob       1    MUSC   O04Ed       1     -1.05    15.999
   25464      ob       1    MUSC   O04Ee       1     -1.05    15.999
   25465      ob       1    MUSC   O04Ef       1     -1.05    15.999
   25466      ob       1    MUSC   O04Eg       1     -1.05    15.999
   25467      ob       1    MUSC   O04Eh       1     -1.05    15.999
   25468      ob       1    MUSC   O04Ei       1     -1.05    15.999
   25469      ob       1    MUSC   O04Ej       1     -1.05    15.999
   25470      ob       1    MUSC   O04Ek       1     -1.05    15.999
   25471      ob       1    MUSC   O04El       1     -1.05    15.999
   25472      ob       1    MUSC   O04Em       1     -1.05    15.999
   25473      ob       1    MUSC   O04En       1     -1.05    15.999
   25474      ob       1    MUSC   O04Eo       1     -1.05    15.999
   25475      ob       1    MUSC   O04Ep       1     -1.05    15.999
   25476      ob       1    MUSC   O04Eq       1     -1.05    15.999
   25477      ob       1    MUSC   O04Er       1     -1.05    15.999
   25478      ob       1    MUSC   O04Es       1     -1.05    15.999
   25479      ob       1    MUSC   O04Et       1     -1.05    15.999
   25480      ob       1    MUSC   O04Eu       1     -1.05    15.999
   25481      oh       1    MUSC   O04Ev       1     -0.95    15.999
   25482      oh       1    MUSC   O04Ew       1     -0.95    15.999
   25483      oh       1    MUSC   O04Ex       1     -0.95    15.999
   25484      oh       1    MUSC   O04Ey       1     -0.95    15.999
   25485      ob       1    MUSC   O04Ez       1     -1.05    15.999
   25486      ob       1    MUSC   O04F0       1     -1.05    15.999
   25487      ob       1    MUSC   O04F1       1     -1.05    15.999
   25488      ob       1    MUSC   O04F2       1     -1.05    15.999
   25489      ob       1    MUSC   O04F3       1     -1.05    15.999
   25490      ob       1    MUSC   O04F4       1     -1.05    15.999
   25491      ob       1    MUSC   O04F5       1     -1.05    15.999
   25492      ob       1    MUSC   O04F6       1     -1.05    15.999
   25493      ob       1    MUSC   O04F7       1     -1.05    15.999
   25494      ob       1    MUSC   O04F8       1     -1.05    15.999
   25495      ob       1    MUSC   O04F9       1     -1.05    15.999
   25496      ob       1    MUSC   O04FA       1     -1.05    15.999
   25497      ob       1    MUSC   O04FB       1     -1.05    15.999
   25498      ob       1    MUSC   O04FC       1     -1.05    15.999
   25499      ob       1    MUSC   O04FD       1     -1.05    15.999
   25500      ob       1    MUSC   O04FE       1     -1.05    15.999
   25501       K       1    MUSC   K00GT       1       1.0    39.098
   25502       K       1    MUSC   K00GU       1       1.0    39.098
   25503      ao       1    MUSC   Al0ht       1     1.575    26.982
   25504      ao       1    MUSC   Al0hu       1     1.575    26.982
   25505      ao       1    MUSC   Al0hv       1     1.575    26.982
   25506      ao       1    MUSC   Al0hw       1     1.575    26.982
   25507      ao       1    MUSC   Al0hx       1     1.575    26.982
   25508      ao       1    MUSC   Al0hy       1     1.575    26.982
   25509      ao       1    MUSC   Al0hz       1     1.575    26.982
   25510      ao       1    MUSC   Al0i0       1     1.575    26.982
   25511      st       1    MUSC   Si1Pl       1       2.1    28.086
   25512      st       1    MUSC   Si1Pm       1       2.1    28.086
   25513      st       1    MUSC   Si1Pn       1       2.1    28.086
   25514      st       1    MUSC   Si1Po       1       2.1    28.086
   25515      st       1    MUSC   Si1Pp       1       2.1    28.086
   25516      st       1    MUSC   Si1Pq       1       2.1    28.086
   25517      st       1    MUSC   Si1Pr       1       2.1    28.086
   25518      st       1    MUSC   Si1Ps       1       2.1    28.086
   25519      st       1    MUSC   Si1Pt       1       2.1    28.086
   25520      st       1    MUSC   Si1Pu       1       2.1    28.086
   25521      st       1    MUSC   Si1Pv       1       2.1    28.086
   25522      st       1    MUSC   Si1Pw       1       2.1    28.086
   25523      st       1    MUSC   Si1Px       1       2.1    28.086
   25524      st       1    MUSC   Si1Py       1       2.1    28.086
   25525      st       1    MUSC   Si1Pz       1       2.1    28.086
   25526      st       1    MUSC   Si1Q0       1       2.1    28.086
   25527      ob       1    MUSC   O04FF       1     -1.05    15.999
   25528      ob       1    MUSC   O04FG       1     -1.05    15.999
   25529      ob       1    MUSC   O04FH       1     -1.05    15.999
   25530      ob       1    MUSC   O04FI       1     -1.05    15.999
   25531      oh       1    MUSC   O04FJ       1     -0.95    15.999
   25532      oh       1    MUSC   O04FK       1     -0.95    15.999
   25533      oh       1    MUSC   O04FL       1     -0.95    15.999
   25534      oh       1    MUSC   O04FM       1     -0.95    15.999
   25535      ob       1    MUSC   O04FN       1     -1.05    15.999
   25536      ob       1    MUSC   O04FO       1     -1.05    15.999
   25537      ob       1    MUSC   O04FP       1     -1.05    15.999
   25538      ob       1    MUSC   O04FQ       1     -1.05    15.999
   25539      ob       1    MUSC   O04FR       1     -1.05    15.999
   25540      ob       1    MUSC   O04FS       1     -1.05    15.999
   25541      ob       1    MUSC   O04FT       1     -1.05    15.999
   25542      ob       1    MUSC   O04FU       1     -1.05    15.999
   25543      ob       1    MUSC   O04FV       1     -1.05    15.999
   25544      ob       1    MUSC   O04FW       1     -1.05    15.999
   25545      ob       1    MUSC   O04FX       1     -1.05    15.999
   25546      ob       1    MUSC   O04FY       1     -1.05    15.999
   25547      ob       1    MUSC   O04FZ       1     -1.05    15.999
   25548      ob       1    MUSC   O04Fa       1     -1.05    15.999
   25549      ob       1    MUSC   O04Fb       1     -1.05    15.999
   25550      ob       1    MUSC   O04Fc       1     -1.05    15.999
   25551      ob       1    MUSC   O04Fd       1     -1.05    15.999
   25552      ob       1    MUSC   O04Fe       1     -1.05    15.999
   25553      ob       1    MUSC   O04Ff       1     -1.05    15.999
   25554      ob       1    MUSC   O04Fg       1     -1.05    15.999
   25555      oh       1    MUSC   O04Fh       1     -0.95    15.999
   25556      oh       1    MUSC   O04Fi       1     -0.95    15.999
   25557      oh       1    MUSC   O04Fj       1     -0.95    15.999
   25558      oh       1    MUSC   O04Fk       1     -0.95    15.999
   25559      ob       1    MUSC   O04Fl       1     -1.05    15.999
   25560      ob       1    MUSC   O04Fm       1     -1.05    15.999
   25561      ob       1    MUSC   O04Fn       1     -1.05    15.999
   25562      ob       1    MUSC   O04Fo       1     -1.05    15.999
   25563      ob       1    MUSC   O04Fp       1     -1.05    15.999
   25564      ob       1    MUSC   O04Fq       1     -1.05    15.999
   25565      ob       1    MUSC   O04Fr       1     -1.05    15.999
   25566      ob       1    MUSC   O04Fs       1     -1.05    15.999
   25567      ob       1    MUSC   O04Ft       1     -1.05    15.999
   25568      ob       1    MUSC   O04Fu       1     -1.05    15.999
   25569      ob       1    MUSC   O04Fv       1     -1.05    15.999
   25570      ob       1    MUSC   O04Fw       1     -1.05    15.999
   25571      ob       1    MUSC   O04Fx       1     -1.05    15.999
   25572      ob       1    MUSC   O04Fy       1     -1.05    15.999
   25573      ob       1    MUSC   O04Fz       1     -1.05    15.999
   25574      ob       1    MUSC   O04G0       1     -1.05    15.999
   25575       K       1    MUSC   K00GV       1       1.0    39.098
   25576       K       1    MUSC   K00GW       1       1.0    39.098
   25577       K       1    MUSC   K00GX       1       1.0    39.098
   25578       K       1    MUSC   K00GY       1       1.0    39.098
   25579      ao       1    MUSC   Al0i1       1     1.575    26.982
   25580      ao       1    MUSC   Al0i2       1     1.575    26.982
   25581      ao       1    MUSC   Al0i3       1     1.575    26.982
   25582      ao       1    MUSC   Al0i4       1     1.575    26.982
   25583      ao       1    MUSC   Al0i5       1     1.575    26.982
   25584      ao       1    MUSC   Al0i6       1     1.575    26.982
   25585      ao       1    MUSC   Al0i7       1     1.575    26.982
   25586      ao       1    MUSC   Al0i8       1     1.575    26.982
   25587      st       1    MUSC   Si1Q1       1       2.1    28.086
   25588      st       1    MUSC   Si1Q2       1       2.1    28.086
   25589      st       1    MUSC   Si1Q3       1       2.1    28.086
   25590      st       1    MUSC   Si1Q4       1       2.1    28.086
   25591      st       1    MUSC   Si1Q5       1       2.1    28.086
   25592      st       1    MUSC   Si1Q6       1       2.1    28.086
   25593      st       1    MUSC   Si1Q7       1       2.1    28.086
   25594      st       1    MUSC   Si1Q8       1       2.1    28.086
   25595      st       1    MUSC   Si1Q9       1       2.1    28.086
   25596      st       1    MUSC   Si1QA       1       2.1    28.086
   25597      st       1    MUSC   Si1QB       1       2.1    28.086
   25598      st       1    MUSC   Si1QC       1       2.1    28.086
   25599      st       1    MUSC   Si1QD       1       2.1    28.086
   25600      st       1    MUSC   Si1QE       1       2.1    28.086
   25601      st       1    MUSC   Si1QF       1       2.1    28.086
   25602      st       1    MUSC   Si1QG       1       2.1    28.086
   25603      ob       1    MUSC   O04G1       1     -1.05    15.999
   25604      ob       1    MUSC   O04G2       1     -1.05    15.999
   25605      ob       1    MUSC   O04G3       1     -1.05    15.999
   25606      ob       1    MUSC   O04G4       1     -1.05    15.999
   25607      oh       1    MUSC   O04G5       1     -0.95    15.999
   25608      oh       1    MUSC   O04G6       1     -0.95    15.999
   25609      oh       1    MUSC   O04G7       1     -0.95    15.999
   25610      oh       1    MUSC   O04G8       1     -0.95    15.999
   25611      ob       1    MUSC   O04G9       1     -1.05    15.999
   25612      ob       1    MUSC   O04GA       1     -1.05    15.999
   25613      ob       1    MUSC   O04GB       1     -1.05    15.999
   25614      ob       1    MUSC   O04GC       1     -1.05    15.999
   25615      ob       1    MUSC   O04GD       1     -1.05    15.999
   25616      ob       1    MUSC   O04GE       1     -1.05    15.999
   25617      ob       1    MUSC   O04GF       1     -1.05    15.999
   25618      ob       1    MUSC   O04GG       1     -1.05    15.999
   25619      ob       1    MUSC   O04GH       1     -1.05    15.999
   25620      ob       1    MUSC   O04GI       1     -1.05    15.999
   25621      ob       1    MUSC   O04GJ       1     -1.05    15.999
   25622      ob       1    MUSC   O04GK       1     -1.05    15.999
   25623      ob       1    MUSC   O04GL       1     -1.05    15.999
   25624      ob       1    MUSC   O04GM       1     -1.05    15.999
   25625      ob       1    MUSC   O04GN       1     -1.05    15.999
   25626      ob       1    MUSC   O04GO       1     -1.05    15.999
   25627      ob       1    MUSC   O04GP       1     -1.05    15.999
   25628      ob       1    MUSC   O04GQ       1     -1.05    15.999
   25629      ob       1    MUSC   O04GR       1     -1.05    15.999
   25630      ob       1    MUSC   O04GS       1     -1.05    15.999
   25631      oh       1    MUSC   O04GT       1     -0.95    15.999
   25632      oh       1    MUSC   O04GU       1     -0.95    15.999
   25633      oh       1    MUSC   O04GV       1     -0.95    15.999
   25634      oh       1    MUSC   O04GW       1     -0.95    15.999
   25635      ob       1    MUSC   O04GX       1     -1.05    15.999
   25636      ob       1    MUSC   O04GY       1     -1.05    15.999
   25637      ob       1    MUSC   O04GZ       1     -1.05    15.999
   25638      ob       1    MUSC   O04Ga       1     -1.05    15.999
   25639      ob       1    MUSC   O04Gb       1     -1.05    15.999
   25640      ob       1    MUSC   O04Gc       1     -1.05    15.999
   25641      ob       1    MUSC   O04Gd       1     -1.05    15.999
   25642      ob       1    MUSC   O04Ge       1     -1.05    15.999
   25643      ob       1    MUSC   O04Gf       1     -1.05    15.999
   25644      ob       1    MUSC   O04Gg       1     -1.05    15.999
   25645      ob       1    MUSC   O04Gh       1     -1.05    15.999
   25646      ob       1    MUSC   O04Gi       1     -1.05    15.999
   25647      ob       1    MUSC   O04Gj       1     -1.05    15.999
   25648      ob       1    MUSC   O04Gk       1     -1.05    15.999
   25649      ob       1    MUSC   O04Gl       1     -1.05    15.999
   25650      ob       1    MUSC   O04Gm       1     -1.05    15.999
   25651       K       1    MUSC   K00GZ       1       1.0    39.098
   25652       K       1    MUSC   K00Ga       1       1.0    39.098
   25653      ao       1    MUSC   Al0i9       1     1.575    26.982
   25654      ao       1    MUSC   Al0iA       1     1.575    26.982
   25655      ao       1    MUSC   Al0iB       1     1.575    26.982
   25656      ao       1    MUSC   Al0iC       1     1.575    26.982
   25657      ao       1    MUSC   Al0iD       1     1.575    26.982
   25658      ao       1    MUSC   Al0iE       1     1.575    26.982
   25659      ao       1    MUSC   Al0iF       1     1.575    26.982
   25660      ao       1    MUSC   Al0iG       1     1.575    26.982
   25661      st       1    MUSC   Si1QH       1       2.1    28.086
   25662      st       1    MUSC   Si1QI       1       2.1    28.086
   25663      st       1    MUSC   Si1QJ       1       2.1    28.086
   25664      st       1    MUSC   Si1QK       1       2.1    28.086
   25665      st       1    MUSC   Si1QL       1       2.1    28.086
   25666      st       1    MUSC   Si1QM       1       2.1    28.086
   25667      st       1    MUSC   Si1QN       1       2.1    28.086
   25668      st       1    MUSC   Si1QO       1       2.1    28.086
   25669      st       1    MUSC   Si1QP       1       2.1    28.086
   25670      st       1    MUSC   Si1QQ       1       2.1    28.086
   25671      st       1    MUSC   Si1QR       1       2.1    28.086
   25672      st       1    MUSC   Si1QS       1       2.1    28.086
   25673      st       1    MUSC   Si1QT       1       2.1    28.086
   25674      st       1    MUSC   Si1QU       1       2.1    28.086
   25675      st       1    MUSC   Si1QV       1       2.1    28.086
   25676      st       1    MUSC   Si1QW       1       2.1    28.086
   25677      ob       1    MUSC   O04Gn       1     -1.05    15.999
   25678      ob       1    MUSC   O04Go       1     -1.05    15.999
   25679      ob       1    MUSC   O04Gp       1     -1.05    15.999
   25680      ob       1    MUSC   O04Gq       1     -1.05    15.999
   25681      oh       1    MUSC   O04Gr       1     -0.95    15.999
   25682      oh       1    MUSC   O04Gs       1     -0.95    15.999
   25683      oh       1    MUSC   O04Gt       1     -0.95    15.999
   25684      oh       1    MUSC   O04Gu       1     -0.95    15.999
   25685      ob       1    MUSC   O04Gv       1     -1.05    15.999
   25686      ob       1    MUSC   O04Gw       1     -1.05    15.999
   25687      ob       1    MUSC   O04Gx       1     -1.05    15.999
   25688      ob       1    MUSC   O04Gy       1     -1.05    15.999
   25689      ob       1    MUSC   O04Gz       1     -1.05    15.999
   25690      ob       1    MUSC   O04H0       1     -1.05    15.999
   25691      ob       1    MUSC   O04H1       1     -1.05    15.999
   25692      ob       1    MUSC   O04H2       1     -1.05    15.999
   25693      ob       1    MUSC   O04H3       1     -1.05    15.999
   25694      ob       1    MUSC   O04H4       1     -1.05    15.999
   25695      ob       1    MUSC   O04H5       1     -1.05    15.999
   25696      ob       1    MUSC   O04H6       1     -1.05    15.999
   25697      ob       1    MUSC   O04H7       1     -1.05    15.999
   25698      ob       1    MUSC   O04H8       1     -1.05    15.999
   25699      ob       1    MUSC   O04H9       1     -1.05    15.999
   25700      ob       1    MUSC   O04HA       1     -1.05    15.999
   25701      ob       1    MUSC   O04HB       1     -1.05    15.999
   25702      ob       1    MUSC   O04HC       1     -1.05    15.999
   25703      ob       1    MUSC   O04HD       1     -1.05    15.999
   25704      ob       1    MUSC   O04HE       1     -1.05    15.999
   25705      oh       1    MUSC   O04HF       1     -0.95    15.999
   25706      oh       1    MUSC   O04HG       1     -0.95    15.999
   25707      oh       1    MUSC   O04HH       1     -0.95    15.999
   25708      oh       1    MUSC   O04HI       1     -0.95    15.999
   25709      ob       1    MUSC   O04HJ       1     -1.05    15.999
   25710      ob       1    MUSC   O04HK       1     -1.05    15.999
   25711      ob       1    MUSC   O04HL       1     -1.05    15.999
   25712      ob       1    MUSC   O04HM       1     -1.05    15.999
   25713      ob       1    MUSC   O04HN       1     -1.05    15.999
   25714      ob       1    MUSC   O04HO       1     -1.05    15.999
   25715      ob       1    MUSC   O04HP       1     -1.05    15.999
   25716      ob       1    MUSC   O04HQ       1     -1.05    15.999
   25717      ob       1    MUSC   O04HR       1     -1.05    15.999
   25718      ob       1    MUSC   O04HS       1     -1.05    15.999
   25719      ob       1    MUSC   O04HT       1     -1.05    15.999
   25720      ob       1    MUSC   O04HU       1     -1.05    15.999
   25721      ob       1    MUSC   O04HV       1     -1.05    15.999
   25722      ob       1    MUSC   O04HW       1     -1.05    15.999
   25723      ob       1    MUSC   O04HX       1     -1.05    15.999
   25724      ob       1    MUSC   O04HY       1     -1.05    15.999
   25725       K       1    MUSC   K00Gb       1       1.0    39.098
   25726       K       1    MUSC   K00Gc       1       1.0    39.098
   25727       K       1    MUSC   K00Gd       1       1.0    39.098
   25728       K       1    MUSC   K00Ge       1       1.0    39.098
   25729      ao       1    MUSC   Al0iH       1     1.575    26.982
   25730      ao       1    MUSC   Al0iI       1     1.575    26.982
   25731      ao       1    MUSC   Al0iJ       1     1.575    26.982
   25732      ao       1    MUSC   Al0iK       1     1.575    26.982
   25733      ao       1    MUSC   Al0iL       1     1.575    26.982
   25734      ao       1    MUSC   Al0iM       1     1.575    26.982
   25735      ao       1    MUSC   Al0iN       1     1.575    26.982
   25736      ao       1    MUSC   Al0iO       1     1.575    26.982
   25737      st       1    MUSC   Si1QX       1       2.1    28.086
   25738      st       1    MUSC   Si1QY       1       2.1    28.086
   25739      st       1    MUSC   Si1QZ       1       2.1    28.086
   25740      st       1    MUSC   Si1Qa       1       2.1    28.086
   25741      st       1    MUSC   Si1Qb       1       2.1    28.086
   25742      st       1    MUSC   Si1Qc       1       2.1    28.086
   25743      st       1    MUSC   Si1Qd       1       2.1    28.086
   25744      st       1    MUSC   Si1Qe       1       2.1    28.086
   25745      st       1    MUSC   Si1Qf       1       2.1    28.086
   25746      st       1    MUSC   Si1Qg       1       2.1    28.086
   25747      st       1    MUSC   Si1Qh       1       2.1    28.086
   25748      st       1    MUSC   Si1Qi       1       2.1    28.086
   25749      st       1    MUSC   Si1Qj       1       2.1    28.086
   25750      st       1    MUSC   Si1Qk       1       2.1    28.086
   25751      st       1    MUSC   Si1Ql       1       2.1    28.086
   25752      st       1    MUSC   Si1Qm       1       2.1    28.086
   25753      ob       1    MUSC   O04HZ       1     -1.05    15.999
   25754      ob       1    MUSC   O04Ha       1     -1.05    15.999
   25755      ob       1    MUSC   O04Hb       1     -1.05    15.999
   25756      ob       1    MUSC   O04Hc       1     -1.05    15.999
   25757      oh       1    MUSC   O04Hd       1     -0.95    15.999
   25758      oh       1    MUSC   O04He       1     -0.95    15.999
   25759      oh       1    MUSC   O04Hf       1     -0.95    15.999
   25760      oh       1    MUSC   O04Hg       1     -0.95    15.999
   25761      ob       1    MUSC   O04Hh       1     -1.05    15.999
   25762      ob       1    MUSC   O04Hi       1     -1.05    15.999
   25763      ob       1    MUSC   O04Hj       1     -1.05    15.999
   25764      ob       1    MUSC   O04Hk       1     -1.05    15.999
   25765      ob       1    MUSC   O04Hl       1     -1.05    15.999
   25766      ob       1    MUSC   O04Hm       1     -1.05    15.999
   25767      ob       1    MUSC   O04Hn       1     -1.05    15.999
   25768      ob       1    MUSC   O04Ho       1     -1.05    15.999
   25769      ob       1    MUSC   O04Hp       1     -1.05    15.999
   25770      ob       1    MUSC   O04Hq       1     -1.05    15.999
   25771      ob       1    MUSC   O04Hr       1     -1.05    15.999
   25772      ob       1    MUSC   O04Hs       1     -1.05    15.999
   25773      ob       1    MUSC   O04Ht       1     -1.05    15.999
   25774      ob       1    MUSC   O04Hu       1     -1.05    15.999
   25775      ob       1    MUSC   O04Hv       1     -1.05    15.999
   25776      ob       1    MUSC   O04Hw       1     -1.05    15.999
   25777      ob       1    MUSC   O04Hx       1     -1.05    15.999
   25778      ob       1    MUSC   O04Hy       1     -1.05    15.999
   25779      ob       1    MUSC   O04Hz       1     -1.05    15.999
   25780      ob       1    MUSC   O04I0       1     -1.05    15.999
   25781      oh       1    MUSC   O04I1       1     -0.95    15.999
   25782      oh       1    MUSC   O04I2       1     -0.95    15.999
   25783      oh       1    MUSC   O04I3       1     -0.95    15.999
   25784      oh       1    MUSC   O04I4       1     -0.95    15.999
   25785      ob       1    MUSC   O04I5       1     -1.05    15.999
   25786      ob       1    MUSC   O04I6       1     -1.05    15.999
   25787      ob       1    MUSC   O04I7       1     -1.05    15.999
   25788      ob       1    MUSC   O04I8       1     -1.05    15.999
   25789      ob       1    MUSC   O04I9       1     -1.05    15.999
   25790      ob       1    MUSC   O04IA       1     -1.05    15.999
   25791      ob       1    MUSC   O04IB       1     -1.05    15.999
   25792      ob       1    MUSC   O04IC       1     -1.05    15.999
   25793      ob       1    MUSC   O04ID       1     -1.05    15.999
   25794      ob       1    MUSC   O04IE       1     -1.05    15.999
   25795      ob       1    MUSC   O04IF       1     -1.05    15.999
   25796      ob       1    MUSC   O04IG       1     -1.05    15.999
   25797      ob       1    MUSC   O04IH       1     -1.05    15.999
   25798      ob       1    MUSC   O04II       1     -1.05    15.999
   25799      ob       1    MUSC   O04IJ       1     -1.05    15.999
   25800      ob       1    MUSC   O04IK       1     -1.05    15.999
   25801       K       1    MUSC   K00Gf       1       1.0    39.098
   25802       K       1    MUSC   K00Gg       1       1.0    39.098
   25803      ao       1    MUSC   Al0iP       1     1.575    26.982
   25804      ao       1    MUSC   Al0iQ       1     1.575    26.982
   25805      ao       1    MUSC   Al0iR       1     1.575    26.982
   25806      ao       1    MUSC   Al0iS       1     1.575    26.982
   25807      ao       1    MUSC   Al0iT       1     1.575    26.982
   25808      ao       1    MUSC   Al0iU       1     1.575    26.982
   25809      ao       1    MUSC   Al0iV       1     1.575    26.982
   25810      ao       1    MUSC   Al0iW       1     1.575    26.982
   25811      st       1    MUSC   Si1Qn       1       2.1    28.086
   25812      st       1    MUSC   Si1Qo       1       2.1    28.086
   25813      st       1    MUSC   Si1Qp       1       2.1    28.086
   25814      st       1    MUSC   Si1Qq       1       2.1    28.086
   25815      st       1    MUSC   Si1Qr       1       2.1    28.086
   25816      st       1    MUSC   Si1Qs       1       2.1    28.086
   25817      st       1    MUSC   Si1Qt       1       2.1    28.086
   25818      st       1    MUSC   Si1Qu       1       2.1    28.086
   25819      st       1    MUSC   Si1Qv       1       2.1    28.086
   25820      st       1    MUSC   Si1Qw       1       2.1    28.086
   25821      st       1    MUSC   Si1Qx       1       2.1    28.086
   25822      st       1    MUSC   Si1Qy       1       2.1    28.086
   25823      st       1    MUSC   Si1Qz       1       2.1    28.086
   25824      st       1    MUSC   Si1R0       1       2.1    28.086
   25825      st       1    MUSC   Si1R1       1       2.1    28.086
   25826      st       1    MUSC   Si1R2       1       2.1    28.086
   25827      ob       1    MUSC   O04IL       1     -1.05    15.999
   25828      ob       1    MUSC   O04IM       1     -1.05    15.999
   25829      ob       1    MUSC   O04IN       1     -1.05    15.999
   25830      ob       1    MUSC   O04IO       1     -1.05    15.999
   25831      oh       1    MUSC   O04IP       1     -0.95    15.999
   25832      oh       1    MUSC   O04IQ       1     -0.95    15.999
   25833      oh       1    MUSC   O04IR       1     -0.95    15.999
   25834      oh       1    MUSC   O04IS       1     -0.95    15.999
   25835      ob       1    MUSC   O04IT       1     -1.05    15.999
   25836      ob       1    MUSC   O04IU       1     -1.05    15.999
   25837      ob       1    MUSC   O04IV       1     -1.05    15.999
   25838      ob       1    MUSC   O04IW       1     -1.05    15.999
   25839      ob       1    MUSC   O04IX       1     -1.05    15.999
   25840      ob       1    MUSC   O04IY       1     -1.05    15.999
   25841      ob       1    MUSC   O04IZ       1     -1.05    15.999
   25842      ob       1    MUSC   O04Ia       1     -1.05    15.999
   25843      ob       1    MUSC   O04Ib       1     -1.05    15.999
   25844      ob       1    MUSC   O04Ic       1     -1.05    15.999
   25845      ob       1    MUSC   O04Id       1     -1.05    15.999
   25846      ob       1    MUSC   O04Ie       1     -1.05    15.999
   25847      ob       1    MUSC   O04If       1     -1.05    15.999
   25848      ob       1    MUSC   O04Ig       1     -1.05    15.999
   25849      ob       1    MUSC   O04Ih       1     -1.05    15.999
   25850      ob       1    MUSC   O04Ii       1     -1.05    15.999
   25851      ob       1    MUSC   O04Ij       1     -1.05    15.999
   25852      ob       1    MUSC   O04Ik       1     -1.05    15.999
   25853      ob       1    MUSC   O04Il       1     -1.05    15.999
   25854      ob       1    MUSC   O04Im       1     -1.05    15.999
   25855      oh       1    MUSC   O04In       1     -0.95    15.999
   25856      oh       1    MUSC   O04Io       1     -0.95    15.999
   25857      oh       1    MUSC   O04Ip       1     -0.95    15.999
   25858      oh       1    MUSC   O04Iq       1     -0.95    15.999
   25859      ob       1    MUSC   O04Ir       1     -1.05    15.999
   25860      ob       1    MUSC   O04Is       1     -1.05    15.999
   25861      ob       1    MUSC   O04It       1     -1.05    15.999
   25862      ob       1    MUSC   O04Iu       1     -1.05    15.999
   25863      ob       1    MUSC   O04Iv       1     -1.05    15.999
   25864      ob       1    MUSC   O04Iw       1     -1.05    15.999
   25865      ob       1    MUSC   O04Ix       1     -1.05    15.999
   25866      ob       1    MUSC   O04Iy       1     -1.05    15.999
   25867      ob       1    MUSC   O04Iz       1     -1.05    15.999
   25868      ob       1    MUSC   O04J0       1     -1.05    15.999
   25869      ob       1    MUSC   O04J1       1     -1.05    15.999
   25870      ob       1    MUSC   O04J2       1     -1.05    15.999
   25871      ob       1    MUSC   O04J3       1     -1.05    15.999
   25872      ob       1    MUSC   O04J4       1     -1.05    15.999
   25873      ob       1    MUSC   O04J5       1     -1.05    15.999
   25874      ob       1    MUSC   O04J6       1     -1.05    15.999
   25875       K       1    MUSC   K00Gh       1       1.0    39.098
   25876       K       1    MUSC   K00Gi       1       1.0    39.098
   25877       K       1    MUSC   K00Gj       1       1.0    39.098
   25878       K       1    MUSC   K00Gk       1       1.0    39.098
   25879      ao       1    MUSC   Al0iX       1     1.575    26.982
   25880      ao       1    MUSC   Al0iY       1     1.575    26.982
   25881      ao       1    MUSC   Al0iZ       1     1.575    26.982
   25882      ao       1    MUSC   Al0ia       1     1.575    26.982
   25883      ao       1    MUSC   Al0ib       1     1.575    26.982
   25884      ao       1    MUSC   Al0ic       1     1.575    26.982
   25885      ao       1    MUSC   Al0id       1     1.575    26.982
   25886      ao       1    MUSC   Al0ie       1     1.575    26.982
   25887      st       1    MUSC   Si1R3       1       2.1    28.086
   25888      st       1    MUSC   Si1R4       1       2.1    28.086
   25889      st       1    MUSC   Si1R5       1       2.1    28.086
   25890      st       1    MUSC   Si1R6       1       2.1    28.086
   25891      st       1    MUSC   Si1R7       1       2.1    28.086
   25892      st       1    MUSC   Si1R8       1       2.1    28.086
   25893      st       1    MUSC   Si1R9       1       2.1    28.086
   25894      st       1    MUSC   Si1RA       1       2.1    28.086
   25895      st       1    MUSC   Si1RB       1       2.1    28.086
   25896      st       1    MUSC   Si1RC       1       2.1    28.086
   25897      st       1    MUSC   Si1RD       1       2.1    28.086
   25898      st       1    MUSC   Si1RE       1       2.1    28.086
   25899      st       1    MUSC   Si1RF       1       2.1    28.086
   25900      st       1    MUSC   Si1RG       1       2.1    28.086
   25901      st       1    MUSC   Si1RH       1       2.1    28.086
   25902      st       1    MUSC   Si1RI       1       2.1    28.086
   25903      ob       1    MUSC   O04J7       1     -1.05    15.999
   25904      ob       1    MUSC   O04J8       1     -1.05    15.999
   25905      ob       1    MUSC   O04J9       1     -1.05    15.999
   25906      ob       1    MUSC   O04JA       1     -1.05    15.999
   25907      oh       1    MUSC   O04JB       1     -0.95    15.999
   25908      oh       1    MUSC   O04JC       1     -0.95    15.999
   25909      oh       1    MUSC   O04JD       1     -0.95    15.999
   25910      oh       1    MUSC   O04JE       1     -0.95    15.999
   25911      ob       1    MUSC   O04JF       1     -1.05    15.999
   25912      ob       1    MUSC   O04JG       1     -1.05    15.999
   25913      ob       1    MUSC   O04JH       1     -1.05    15.999
   25914      ob       1    MUSC   O04JI       1     -1.05    15.999
   25915      ob       1    MUSC   O04JJ       1     -1.05    15.999
   25916      ob       1    MUSC   O04JK       1     -1.05    15.999
   25917      ob       1    MUSC   O04JL       1     -1.05    15.999
   25918      ob       1    MUSC   O04JM       1     -1.05    15.999
   25919      ob       1    MUSC   O04JN       1     -1.05    15.999
   25920      ob       1    MUSC   O04JO       1     -1.05    15.999
   25921      ob       1    MUSC   O04JP       1     -1.05    15.999
   25922      ob       1    MUSC   O04JQ       1     -1.05    15.999
   25923      ob       1    MUSC   O04JR       1     -1.05    15.999
   25924      ob       1    MUSC   O04JS       1     -1.05    15.999
   25925      ob       1    MUSC   O04JT       1     -1.05    15.999
   25926      ob       1    MUSC   O04JU       1     -1.05    15.999
   25927      ob       1    MUSC   O04JV       1     -1.05    15.999
   25928      ob       1    MUSC   O04JW       1     -1.05    15.999
   25929      ob       1    MUSC   O04JX       1     -1.05    15.999
   25930      ob       1    MUSC   O04JY       1     -1.05    15.999
   25931      oh       1    MUSC   O04JZ       1     -0.95    15.999
   25932      oh       1    MUSC   O04Ja       1     -0.95    15.999
   25933      oh       1    MUSC   O04Jb       1     -0.95    15.999
   25934      oh       1    MUSC   O04Jc       1     -0.95    15.999
   25935      ob       1    MUSC   O04Jd       1     -1.05    15.999
   25936      ob       1    MUSC   O04Je       1     -1.05    15.999
   25937      ob       1    MUSC   O04Jf       1     -1.05    15.999
   25938      ob       1    MUSC   O04Jg       1     -1.05    15.999
   25939      ob       1    MUSC   O04Jh       1     -1.05    15.999
   25940      ob       1    MUSC   O04Ji       1     -1.05    15.999
   25941      ob       1    MUSC   O04Jj       1     -1.05    15.999
   25942      ob       1    MUSC   O04Jk       1     -1.05    15.999
   25943      ob       1    MUSC   O04Jl       1     -1.05    15.999
   25944      ob       1    MUSC   O04Jm       1     -1.05    15.999
   25945      ob       1    MUSC   O04Jn       1     -1.05    15.999
   25946      ob       1    MUSC   O04Jo       1     -1.05    15.999
   25947      ob       1    MUSC   O04Jp       1     -1.05    15.999
   25948      ob       1    MUSC   O04Jq       1     -1.05    15.999
   25949      ob       1    MUSC   O04Jr       1     -1.05    15.999
   25950      ob       1    MUSC   O04Js       1     -1.05    15.999
   25951       K       1    MUSC   K00Gl       1       1.0    39.098
   25952       K       1    MUSC   K00Gm       1       1.0    39.098
   25953      ao       1    MUSC   Al0if       1     1.575    26.982
   25954      ao       1    MUSC   Al0ig       1     1.575    26.982
   25955      ao       1    MUSC   Al0ih       1     1.575    26.982
   25956      ao       1    MUSC   Al0ii       1     1.575    26.982
   25957      ao       1    MUSC   Al0ij       1     1.575    26.982
   25958      ao       1    MUSC   Al0ik       1     1.575    26.982
   25959      ao       1    MUSC   Al0il       1     1.575    26.982
   25960      ao       1    MUSC   Al0im       1     1.575    26.982
   25961      st       1    MUSC   Si1RJ       1       2.1    28.086
   25962      st       1    MUSC   Si1RK       1       2.1    28.086
   25963      st       1    MUSC   Si1RL       1       2.1    28.086
   25964      st       1    MUSC   Si1RM       1       2.1    28.086
   25965      st       1    MUSC   Si1RN       1       2.1    28.086
   25966      st       1    MUSC   Si1RO       1       2.1    28.086
   25967      st       1    MUSC   Si1RP       1       2.1    28.086
   25968      st       1    MUSC   Si1RQ       1       2.1    28.086
   25969      st       1    MUSC   Si1RR       1       2.1    28.086
   25970      st       1    MUSC   Si1RS       1       2.1    28.086
   25971      st       1    MUSC   Si1RT       1       2.1    28.086
   25972      st       1    MUSC   Si1RU       1       2.1    28.086
   25973      st       1    MUSC   Si1RV       1       2.1    28.086
   25974      st       1    MUSC   Si1RW       1       2.1    28.086
   25975      st       1    MUSC   Si1RX       1       2.1    28.086
   25976      st       1    MUSC   Si1RY       1       2.1    28.086
   25977      ob       1    MUSC   O04Jt       1     -1.05    15.999
   25978      ob       1    MUSC   O04Ju       1     -1.05    15.999
   25979      ob       1    MUSC   O04Jv       1     -1.05    15.999
   25980      ob       1    MUSC   O04Jw       1     -1.05    15.999
   25981      oh       1    MUSC   O04Jx       1     -0.95    15.999
   25982      oh       1    MUSC   O04Jy       1     -0.95    15.999
   25983      oh       1    MUSC   O04Jz       1     -0.95    15.999
   25984      oh       1    MUSC   O04K0       1     -0.95    15.999
   25985      ob       1    MUSC   O04K1       1     -1.05    15.999
   25986      ob       1    MUSC   O04K2       1     -1.05    15.999
   25987      ob       1    MUSC   O04K3       1     -1.05    15.999
   25988      ob       1    MUSC   O04K4       1     -1.05    15.999
   25989      ob       1    MUSC   O04K5       1     -1.05    15.999
   25990      ob       1    MUSC   O04K6       1     -1.05    15.999
   25991      ob       1    MUSC   O04K7       1     -1.05    15.999
   25992      ob       1    MUSC   O04K8       1     -1.05    15.999
   25993      ob       1    MUSC   O04K9       1     -1.05    15.999
   25994      ob       1    MUSC   O04KA       1     -1.05    15.999
   25995      ob       1    MUSC   O04KB       1     -1.05    15.999
   25996      ob       1    MUSC   O04KC       1     -1.05    15.999
   25997      ob       1    MUSC   O04KD       1     -1.05    15.999
   25998      ob       1    MUSC   O04KE       1     -1.05    15.999
   25999      ob       1    MUSC   O04KF       1     -1.05    15.999
   26000      ob       1    MUSC   O04KG       1     -1.05    15.999
   26001      ob       1    MUSC   O04KH       1     -1.05    15.999
   26002      ob       1    MUSC   O04KI       1     -1.05    15.999
   26003      ob       1    MUSC   O04KJ       1     -1.05    15.999
   26004      ob       1    MUSC   O04KK       1     -1.05    15.999
   26005      oh       1    MUSC   O04KL       1     -0.95    15.999
   26006      oh       1    MUSC   O04KM       1     -0.95    15.999
   26007      oh       1    MUSC   O04KN       1     -0.95    15.999
   26008      oh       1    MUSC   O04KO       1     -0.95    15.999
   26009      ob       1    MUSC   O04KP       1     -1.05    15.999
   26010      ob       1    MUSC   O04KQ       1     -1.05    15.999
   26011      ob       1    MUSC   O04KR       1     -1.05    15.999
   26012      ob       1    MUSC   O04KS       1     -1.05    15.999
   26013      ob       1    MUSC   O04KT       1     -1.05    15.999
   26014      ob       1    MUSC   O04KU       1     -1.05    15.999
   26015      ob       1    MUSC   O04KV       1     -1.05    15.999
   26016      ob       1    MUSC   O04KW       1     -1.05    15.999
   26017      ob       1    MUSC   O04KX       1     -1.05    15.999
   26018      ob       1    MUSC   O04KY       1     -1.05    15.999
   26019      ob       1    MUSC   O04KZ       1     -1.05    15.999
   26020      ob       1    MUSC   O04Ka       1     -1.05    15.999
   26021      ob       1    MUSC   O04Kb       1     -1.05    15.999
   26022      ob       1    MUSC   O04Kc       1     -1.05    15.999
   26023      ob       1    MUSC   O04Kd       1     -1.05    15.999
   26024      ob       1    MUSC   O04Ke       1     -1.05    15.999
   26025       K       1    MUSC   K00Gn       1       1.0    39.098
   26026       K       1    MUSC   K00Go       1       1.0    39.098
   26027       K       1    MUSC   K00Gp       1       1.0    39.098
   26028       K       1    MUSC   K00Gq       1       1.0    39.098
   26029      ao       1    MUSC   Al0in       1     1.575    26.982
   26030      ao       1    MUSC   Al0io       1     1.575    26.982
   26031      ao       1    MUSC   Al0ip       1     1.575    26.982
   26032      ao       1    MUSC   Al0iq       1     1.575    26.982
   26033      ao       1    MUSC   Al0ir       1     1.575    26.982
   26034      ao       1    MUSC   Al0is       1     1.575    26.982
   26035      ao       1    MUSC   Al0it       1     1.575    26.982
   26036      ao       1    MUSC   Al0iu       1     1.575    26.982
   26037      st       1    MUSC   Si1RZ       1       2.1    28.086
   26038      st       1    MUSC   Si1Ra       1       2.1    28.086
   26039      st       1    MUSC   Si1Rb       1       2.1    28.086
   26040      st       1    MUSC   Si1Rc       1       2.1    28.086
   26041      st       1    MUSC   Si1Rd       1       2.1    28.086
   26042      st       1    MUSC   Si1Re       1       2.1    28.086
   26043      st       1    MUSC   Si1Rf       1       2.1    28.086
   26044      st       1    MUSC   Si1Rg       1       2.1    28.086
   26045      st       1    MUSC   Si1Rh       1       2.1    28.086
   26046      st       1    MUSC   Si1Ri       1       2.1    28.086
   26047      st       1    MUSC   Si1Rj       1       2.1    28.086
   26048      st       1    MUSC   Si1Rk       1       2.1    28.086
   26049      st       1    MUSC   Si1Rl       1       2.1    28.086
   26050      st       1    MUSC   Si1Rm       1       2.1    28.086
   26051      st       1    MUSC   Si1Rn       1       2.1    28.086
   26052      st       1    MUSC   Si1Ro       1       2.1    28.086
   26053      ob       1    MUSC   O04Kf       1     -1.05    15.999
   26054      ob       1    MUSC   O04Kg       1     -1.05    15.999
   26055      ob       1    MUSC   O04Kh       1     -1.05    15.999
   26056      ob       1    MUSC   O04Ki       1     -1.05    15.999
   26057      oh       1    MUSC   O04Kj       1     -0.95    15.999
   26058      oh       1    MUSC   O04Kk       1     -0.95    15.999
   26059      oh       1    MUSC   O04Kl       1     -0.95    15.999
   26060      oh       1    MUSC   O04Km       1     -0.95    15.999
   26061      ob       1    MUSC   O04Kn       1     -1.05    15.999
   26062      ob       1    MUSC   O04Ko       1     -1.05    15.999
   26063      ob       1    MUSC   O04Kp       1     -1.05    15.999
   26064      ob       1    MUSC   O04Kq       1     -1.05    15.999
   26065      ob       1    MUSC   O04Kr       1     -1.05    15.999
   26066      ob       1    MUSC   O04Ks       1     -1.05    15.999
   26067      ob       1    MUSC   O04Kt       1     -1.05    15.999
   26068      ob       1    MUSC   O04Ku       1     -1.05    15.999
   26069      ob       1    MUSC   O04Kv       1     -1.05    15.999
   26070      ob       1    MUSC   O04Kw       1     -1.05    15.999
   26071      ob       1    MUSC   O04Kx       1     -1.05    15.999
   26072      ob       1    MUSC   O04Ky       1     -1.05    15.999
   26073      ob       1    MUSC   O04Kz       1     -1.05    15.999
   26074      ob       1    MUSC   O04L0       1     -1.05    15.999
   26075      ob       1    MUSC   O04L1       1     -1.05    15.999
   26076      ob       1    MUSC   O04L2       1     -1.05    15.999
   26077      ob       1    MUSC   O04L3       1     -1.05    15.999
   26078      ob       1    MUSC   O04L4       1     -1.05    15.999
   26079      ob       1    MUSC   O04L5       1     -1.05    15.999
   26080      ob       1    MUSC   O04L6       1     -1.05    15.999
   26081      oh       1    MUSC   O04L7       1     -0.95    15.999
   26082      oh       1    MUSC   O04L8       1     -0.95    15.999
   26083      oh       1    MUSC   O04L9       1     -0.95    15.999
   26084      oh       1    MUSC   O04LA       1     -0.95    15.999
   26085      ob       1    MUSC   O04LB       1     -1.05    15.999
   26086      ob       1    MUSC   O04LC       1     -1.05    15.999
   26087      ob       1    MUSC   O04LD       1     -1.05    15.999
   26088      ob       1    MUSC   O04LE       1     -1.05    15.999
   26089      ob       1    MUSC   O04LF       1     -1.05    15.999
   26090      ob       1    MUSC   O04LG       1     -1.05    15.999
   26091      ob       1    MUSC   O04LH       1     -1.05    15.999
   26092      ob       1    MUSC   O04LI       1     -1.05    15.999
   26093      ob       1    MUSC   O04LJ       1     -1.05    15.999
   26094      ob       1    MUSC   O04LK       1     -1.05    15.999
   26095      ob       1    MUSC   O04LL       1     -1.05    15.999
   26096      ob       1    MUSC   O04LM       1     -1.05    15.999
   26097      ob       1    MUSC   O04LN       1     -1.05    15.999
   26098      ob       1    MUSC   O04LO       1     -1.05    15.999
   26099      ob       1    MUSC   O04LP       1     -1.05    15.999
   26100      ob       1    MUSC   O04LQ       1     -1.05    15.999
   26101       K       1    MUSC   K00Gr       1       1.0    39.098
   26102       K       1    MUSC   K00Gs       1       1.0    39.098
   26103      ao       1    MUSC   Al0iv       1     1.575    26.982
   26104      ao       1    MUSC   Al0iw       1     1.575    26.982
   26105      ao       1    MUSC   Al0ix       1     1.575    26.982
   26106      ao       1    MUSC   Al0iy       1     1.575    26.982
   26107      ao       1    MUSC   Al0iz       1     1.575    26.982
   26108      ao       1    MUSC   Al0j0       1     1.575    26.982
   26109      ao       1    MUSC   Al0j1       1     1.575    26.982
   26110      ao       1    MUSC   Al0j2       1     1.575    26.982
   26111      st       1    MUSC   Si1Rp       1       2.1    28.086
   26112      st       1    MUSC   Si1Rq       1       2.1    28.086
   26113      st       1    MUSC   Si1Rr       1       2.1    28.086
   26114      st       1    MUSC   Si1Rs       1       2.1    28.086
   26115      st       1    MUSC   Si1Rt       1       2.1    28.086
   26116      st       1    MUSC   Si1Ru       1       2.1    28.086
   26117      st       1    MUSC   Si1Rv       1       2.1    28.086
   26118      st       1    MUSC   Si1Rw       1       2.1    28.086
   26119      st       1    MUSC   Si1Rx       1       2.1    28.086
   26120      st       1    MUSC   Si1Ry       1       2.1    28.086
   26121      st       1    MUSC   Si1Rz       1       2.1    28.086
   26122      st       1    MUSC   Si1S0       1       2.1    28.086
   26123      st       1    MUSC   Si1S1       1       2.1    28.086
   26124      st       1    MUSC   Si1S2       1       2.1    28.086
   26125      st       1    MUSC   Si1S3       1       2.1    28.086
   26126      st       1    MUSC   Si1S4       1       2.1    28.086
   26127      ob       1    MUSC   O04LR       1     -1.05    15.999
   26128      ob       1    MUSC   O04LS       1     -1.05    15.999
   26129      ob       1    MUSC   O04LT       1     -1.05    15.999
   26130      ob       1    MUSC   O04LU       1     -1.05    15.999
   26131      oh       1    MUSC   O04LV       1     -0.95    15.999
   26132      oh       1    MUSC   O04LW       1     -0.95    15.999
   26133      oh       1    MUSC   O04LX       1     -0.95    15.999
   26134      oh       1    MUSC   O04LY       1     -0.95    15.999
   26135      ob       1    MUSC   O04LZ       1     -1.05    15.999
   26136      ob       1    MUSC   O04La       1     -1.05    15.999
   26137      ob       1    MUSC   O04Lb       1     -1.05    15.999
   26138      ob       1    MUSC   O04Lc       1     -1.05    15.999
   26139      ob       1    MUSC   O04Ld       1     -1.05    15.999
   26140      ob       1    MUSC   O04Le       1     -1.05    15.999
   26141      ob       1    MUSC   O04Lf       1     -1.05    15.999
   26142      ob       1    MUSC   O04Lg       1     -1.05    15.999
   26143      ob       1    MUSC   O04Lh       1     -1.05    15.999
   26144      ob       1    MUSC   O04Li       1     -1.05    15.999
   26145      ob       1    MUSC   O04Lj       1     -1.05    15.999
   26146      ob       1    MUSC   O04Lk       1     -1.05    15.999
   26147      ob       1    MUSC   O04Ll       1     -1.05    15.999
   26148      ob       1    MUSC   O04Lm       1     -1.05    15.999
   26149      ob       1    MUSC   O04Ln       1     -1.05    15.999
   26150      ob       1    MUSC   O04Lo       1     -1.05    15.999
   26151      ob       1    MUSC   O04Lp       1     -1.05    15.999
   26152      ob       1    MUSC   O04Lq       1     -1.05    15.999
   26153      ob       1    MUSC   O04Lr       1     -1.05    15.999
   26154      ob       1    MUSC   O04Ls       1     -1.05    15.999
   26155      oh       1    MUSC   O04Lt       1     -0.95    15.999
   26156      oh       1    MUSC   O04Lu       1     -0.95    15.999
   26157      oh       1    MUSC   O04Lv       1     -0.95    15.999
   26158      oh       1    MUSC   O04Lw       1     -0.95    15.999
   26159      ob       1    MUSC   O04Lx       1     -1.05    15.999
   26160      ob       1    MUSC   O04Ly       1     -1.05    15.999
   26161      ob       1    MUSC   O04Lz       1     -1.05    15.999
   26162      ob       1    MUSC   O04M0       1     -1.05    15.999
   26163      ob       1    MUSC   O04M1       1     -1.05    15.999
   26164      ob       1    MUSC   O04M2       1     -1.05    15.999
   26165      ob       1    MUSC   O04M3       1     -1.05    15.999
   26166      ob       1    MUSC   O04M4       1     -1.05    15.999
   26167      ob       1    MUSC   O04M5       1     -1.05    15.999
   26168      ob       1    MUSC   O04M6       1     -1.05    15.999
   26169      ob       1    MUSC   O04M7       1     -1.05    15.999
   26170      ob       1    MUSC   O04M8       1     -1.05    15.999
   26171      ob       1    MUSC   O04M9       1     -1.05    15.999
   26172      ob       1    MUSC   O04MA       1     -1.05    15.999
   26173      ob       1    MUSC   O04MB       1     -1.05    15.999
   26174      ob       1    MUSC   O04MC       1     -1.05    15.999
   26175       K       1    MUSC   K00Gt       1       1.0    39.098
   26176       K       1    MUSC   K00Gu       1       1.0    39.098
   26177       K       1    MUSC   K00Gv       1       1.0    39.098
   26178       K       1    MUSC   K00Gw       1       1.0    39.098
   26179      ao       1    MUSC   Al0j3       1     1.575    26.982
   26180      ao       1    MUSC   Al0j4       1     1.575    26.982
   26181      ao       1    MUSC   Al0j5       1     1.575    26.982
   26182      ao       1    MUSC   Al0j6       1     1.575    26.982
   26183      ao       1    MUSC   Al0j7       1     1.575    26.982
   26184      ao       1    MUSC   Al0j8       1     1.575    26.982
   26185      ao       1    MUSC   Al0j9       1     1.575    26.982
   26186      ao       1    MUSC   Al0jA       1     1.575    26.982
   26187      st       1    MUSC   Si1S5       1       2.1    28.086
   26188      st       1    MUSC   Si1S6       1       2.1    28.086
   26189      st       1    MUSC   Si1S7       1       2.1    28.086
   26190      st       1    MUSC   Si1S8       1       2.1    28.086
   26191      st       1    MUSC   Si1S9       1       2.1    28.086
   26192      st       1    MUSC   Si1SA       1       2.1    28.086
   26193      st       1    MUSC   Si1SB       1       2.1    28.086
   26194      st       1    MUSC   Si1SC       1       2.1    28.086
   26195      st       1    MUSC   Si1SD       1       2.1    28.086
   26196      st       1    MUSC   Si1SE       1       2.1    28.086
   26197      st       1    MUSC   Si1SF       1       2.1    28.086
   26198      st       1    MUSC   Si1SG       1       2.1    28.086
   26199      st       1    MUSC   Si1SH       1       2.1    28.086
   26200      st       1    MUSC   Si1SI       1       2.1    28.086
   26201      st       1    MUSC   Si1SJ       1       2.1    28.086
   26202      st       1    MUSC   Si1SK       1       2.1    28.086
   26203      ob       1    MUSC   O04MD       1     -1.05    15.999
   26204      ob       1    MUSC   O04ME       1     -1.05    15.999
   26205      ob       1    MUSC   O04MF       1     -1.05    15.999
   26206      ob       1    MUSC   O04MG       1     -1.05    15.999
   26207      oh       1    MUSC   O04MH       1     -0.95    15.999
   26208      oh       1    MUSC   O04MI       1     -0.95    15.999
   26209      oh       1    MUSC   O04MJ       1     -0.95    15.999
   26210      oh       1    MUSC   O04MK       1     -0.95    15.999
   26211      ob       1    MUSC   O04ML       1     -1.05    15.999
   26212      ob       1    MUSC   O04MM       1     -1.05    15.999
   26213      ob       1    MUSC   O04MN       1     -1.05    15.999
   26214      ob       1    MUSC   O04MO       1     -1.05    15.999
   26215      ob       1    MUSC   O04MP       1     -1.05    15.999
   26216      ob       1    MUSC   O04MQ       1     -1.05    15.999
   26217      ob       1    MUSC   O04MR       1     -1.05    15.999
   26218      ob       1    MUSC   O04MS       1     -1.05    15.999
   26219      ob       1    MUSC   O04MT       1     -1.05    15.999
   26220      ob       1    MUSC   O04MU       1     -1.05    15.999
   26221      ob       1    MUSC   O04MV       1     -1.05    15.999
   26222      ob       1    MUSC   O04MW       1     -1.05    15.999
   26223      ob       1    MUSC   O04MX       1     -1.05    15.999
   26224      ob       1    MUSC   O04MY       1     -1.05    15.999
   26225      ob       1    MUSC   O04MZ       1     -1.05    15.999
   26226      ob       1    MUSC   O04Ma       1     -1.05    15.999
   26227      ob       1    MUSC   O04Mb       1     -1.05    15.999
   26228      ob       1    MUSC   O04Mc       1     -1.05    15.999
   26229      ob       1    MUSC   O04Md       1     -1.05    15.999
   26230      ob       1    MUSC   O04Me       1     -1.05    15.999
   26231      oh       1    MUSC   O04Mf       1     -0.95    15.999
   26232      oh       1    MUSC   O04Mg       1     -0.95    15.999
   26233      oh       1    MUSC   O04Mh       1     -0.95    15.999
   26234      oh       1    MUSC   O04Mi       1     -0.95    15.999
   26235      ob       1    MUSC   O04Mj       1     -1.05    15.999
   26236      ob       1    MUSC   O04Mk       1     -1.05    15.999
   26237      ob       1    MUSC   O04Ml       1     -1.05    15.999
   26238      ob       1    MUSC   O04Mm       1     -1.05    15.999
   26239      ob       1    MUSC   O04Mn       1     -1.05    15.999
   26240      ob       1    MUSC   O04Mo       1     -1.05    15.999
   26241      ob       1    MUSC   O04Mp       1     -1.05    15.999
   26242      ob       1    MUSC   O04Mq       1     -1.05    15.999
   26243      ob       1    MUSC   O04Mr       1     -1.05    15.999
   26244      ob       1    MUSC   O04Ms       1     -1.05    15.999
   26245      ob       1    MUSC   O04Mt       1     -1.05    15.999
   26246      ob       1    MUSC   O04Mu       1     -1.05    15.999
   26247      ob       1    MUSC   O04Mv       1     -1.05    15.999
   26248      ob       1    MUSC   O04Mw       1     -1.05    15.999
   26249      ob       1    MUSC   O04Mx       1     -1.05    15.999
   26250      ob       1    MUSC   O04My       1     -1.05    15.999
   26251       K       1    MUSC   K00Gx       1       1.0    39.098
   26252       K       1    MUSC   K00Gy       1       1.0    39.098
   26253      ao       1    MUSC   Al0jB       1     1.575    26.982
   26254      ao       1    MUSC   Al0jC       1     1.575    26.982
   26255      ao       1    MUSC   Al0jD       1     1.575    26.982
   26256      ao       1    MUSC   Al0jE       1     1.575    26.982
   26257      ao       1    MUSC   Al0jF       1     1.575    26.982
   26258      ao       1    MUSC   Al0jG       1     1.575    26.982
   26259      ao       1    MUSC   Al0jH       1     1.575    26.982
   26260      ao       1    MUSC   Al0jI       1     1.575    26.982
   26261      st       1    MUSC   Si1SL       1       2.1    28.086
   26262      st       1    MUSC   Si1SM       1       2.1    28.086
   26263      st       1    MUSC   Si1SN       1       2.1    28.086
   26264      st       1    MUSC   Si1SO       1       2.1    28.086
   26265      st       1    MUSC   Si1SP       1       2.1    28.086
   26266      st       1    MUSC   Si1SQ       1       2.1    28.086
   26267      st       1    MUSC   Si1SR       1       2.1    28.086
   26268      st       1    MUSC   Si1SS       1       2.1    28.086
   26269      st       1    MUSC   Si1ST       1       2.1    28.086
   26270      st       1    MUSC   Si1SU       1       2.1    28.086
   26271      st       1    MUSC   Si1SV       1       2.1    28.086
   26272      st       1    MUSC   Si1SW       1       2.1    28.086
   26273      st       1    MUSC   Si1SX       1       2.1    28.086
   26274      st       1    MUSC   Si1SY       1       2.1    28.086
   26275      st       1    MUSC   Si1SZ       1       2.1    28.086
   26276      st       1    MUSC   Si1Sa       1       2.1    28.086
   26277      ob       1    MUSC   O04Mz       1     -1.05    15.999
   26278      ob       1    MUSC   O04N0       1     -1.05    15.999
   26279      ob       1    MUSC   O04N1       1     -1.05    15.999
   26280      ob       1    MUSC   O04N2       1     -1.05    15.999
   26281      oh       1    MUSC   O04N3       1     -0.95    15.999
   26282      oh       1    MUSC   O04N4       1     -0.95    15.999
   26283      oh       1    MUSC   O04N5       1     -0.95    15.999
   26284      oh       1    MUSC   O04N6       1     -0.95    15.999
   26285      ob       1    MUSC   O04N7       1     -1.05    15.999
   26286      ob       1    MUSC   O04N8       1     -1.05    15.999
   26287      ob       1    MUSC   O04N9       1     -1.05    15.999
   26288      ob       1    MUSC   O04NA       1     -1.05    15.999
   26289      ob       1    MUSC   O04NB       1     -1.05    15.999
   26290      ob       1    MUSC   O04NC       1     -1.05    15.999
   26291      ob       1    MUSC   O04ND       1     -1.05    15.999
   26292      ob       1    MUSC   O04NE       1     -1.05    15.999
   26293      ob       1    MUSC   O04NF       1     -1.05    15.999
   26294      ob       1    MUSC   O04NG       1     -1.05    15.999
   26295      ob       1    MUSC   O04NH       1     -1.05    15.999
   26296      ob       1    MUSC   O04NI       1     -1.05    15.999
   26297      ob       1    MUSC   O04NJ       1     -1.05    15.999
   26298      ob       1    MUSC   O04NK       1     -1.05    15.999
   26299      ob       1    MUSC   O04NL       1     -1.05    15.999
   26300      ob       1    MUSC   O04NM       1     -1.05    15.999
   26301      ob       1    MUSC   O04NN       1     -1.05    15.999
   26302      ob       1    MUSC   O04NO       1     -1.05    15.999
   26303      ob       1    MUSC   O04NP       1     -1.05    15.999
   26304      ob       1    MUSC   O04NQ       1     -1.05    15.999
   26305      oh       1    MUSC   O04NR       1     -0.95    15.999
   26306      oh       1    MUSC   O04NS       1     -0.95    15.999
   26307      oh       1    MUSC   O04NT       1     -0.95    15.999
   26308      oh       1    MUSC   O04NU       1     -0.95    15.999
   26309      ob       1    MUSC   O04NV       1     -1.05    15.999
   26310      ob       1    MUSC   O04NW       1     -1.05    15.999
   26311      ob       1    MUSC   O04NX       1     -1.05    15.999
   26312      ob       1    MUSC   O04NY       1     -1.05    15.999
   26313      ob       1    MUSC   O04NZ       1     -1.05    15.999
   26314      ob       1    MUSC   O04Na       1     -1.05    15.999
   26315      ob       1    MUSC   O04Nb       1     -1.05    15.999
   26316      ob       1    MUSC   O04Nc       1     -1.05    15.999
   26317      ob       1    MUSC   O04Nd       1     -1.05    15.999
   26318      ob       1    MUSC   O04Ne       1     -1.05    15.999
   26319      ob       1    MUSC   O04Nf       1     -1.05    15.999
   26320      ob       1    MUSC   O04Ng       1     -1.05    15.999
   26321      ob       1    MUSC   O04Nh       1     -1.05    15.999
   26322      ob       1    MUSC   O04Ni       1     -1.05    15.999
   26323      ob       1    MUSC   O04Nj       1     -1.05    15.999
   26324      ob       1    MUSC   O04Nk       1     -1.05    15.999
   26325       K       1    MUSC   K00Gz       1       1.0    39.098
   26326       K       1    MUSC   K00H0       1       1.0    39.098
   26327       K       1    MUSC   K00H1       1       1.0    39.098
   26328       K       1    MUSC   K00H2       1       1.0    39.098
   26329      ao       1    MUSC   Al0jJ       1     1.575    26.982
   26330      ao       1    MUSC   Al0jK       1     1.575    26.982
   26331      ao       1    MUSC   Al0jL       1     1.575    26.982
   26332      ao       1    MUSC   Al0jM       1     1.575    26.982
   26333      ao       1    MUSC   Al0jN       1     1.575    26.982
   26334      ao       1    MUSC   Al0jO       1     1.575    26.982
   26335      ao       1    MUSC   Al0jP       1     1.575    26.982
   26336      ao       1    MUSC   Al0jQ       1     1.575    26.982
   26337      st       1    MUSC   Si1Sb       1       2.1    28.086
   26338      st       1    MUSC   Si1Sc       1       2.1    28.086
   26339      st       1    MUSC   Si1Sd       1       2.1    28.086
   26340      st       1    MUSC   Si1Se       1       2.1    28.086
   26341      st       1    MUSC   Si1Sf       1       2.1    28.086
   26342      st       1    MUSC   Si1Sg       1       2.1    28.086
   26343      st       1    MUSC   Si1Sh       1       2.1    28.086
   26344      st       1    MUSC   Si1Si       1       2.1    28.086
   26345      st       1    MUSC   Si1Sj       1       2.1    28.086
   26346      st       1    MUSC   Si1Sk       1       2.1    28.086
   26347      st       1    MUSC   Si1Sl       1       2.1    28.086
   26348      st       1    MUSC   Si1Sm       1       2.1    28.086
   26349      st       1    MUSC   Si1Sn       1       2.1    28.086
   26350      st       1    MUSC   Si1So       1       2.1    28.086
   26351      st       1    MUSC   Si1Sp       1       2.1    28.086
   26352      st       1    MUSC   Si1Sq       1       2.1    28.086
   26353      ob       1    MUSC   O04Nl       1     -1.05    15.999
   26354      ob       1    MUSC   O04Nm       1     -1.05    15.999
   26355      ob       1    MUSC   O04Nn       1     -1.05    15.999
   26356      ob       1    MUSC   O04No       1     -1.05    15.999
   26357      oh       1    MUSC   O04Np       1     -0.95    15.999
   26358      oh       1    MUSC   O04Nq       1     -0.95    15.999
   26359      oh       1    MUSC   O04Nr       1     -0.95    15.999
   26360      oh       1    MUSC   O04Ns       1     -0.95    15.999
   26361      ob       1    MUSC   O04Nt       1     -1.05    15.999
   26362      ob       1    MUSC   O04Nu       1     -1.05    15.999
   26363      ob       1    MUSC   O04Nv       1     -1.05    15.999
   26364      ob       1    MUSC   O04Nw       1     -1.05    15.999
   26365      ob       1    MUSC   O04Nx       1     -1.05    15.999
   26366      ob       1    MUSC   O04Ny       1     -1.05    15.999
   26367      ob       1    MUSC   O04Nz       1     -1.05    15.999
   26368      ob       1    MUSC   O04O0       1     -1.05    15.999
   26369      ob       1    MUSC   O04O1       1     -1.05    15.999
   26370      ob       1    MUSC   O04O2       1     -1.05    15.999
   26371      ob       1    MUSC   O04O3       1     -1.05    15.999
   26372      ob       1    MUSC   O04O4       1     -1.05    15.999
   26373      ob       1    MUSC   O04O5       1     -1.05    15.999
   26374      ob       1    MUSC   O04O6       1     -1.05    15.999
   26375      ob       1    MUSC   O04O7       1     -1.05    15.999
   26376      ob       1    MUSC   O04O8       1     -1.05    15.999
   26377      ob       1    MUSC   O04O9       1     -1.05    15.999
   26378      ob       1    MUSC   O04OA       1     -1.05    15.999
   26379      ob       1    MUSC   O04OB       1     -1.05    15.999
   26380      ob       1    MUSC   O04OC       1     -1.05    15.999
   26381      oh       1    MUSC   O04OD       1     -0.95    15.999
   26382      oh       1    MUSC   O04OE       1     -0.95    15.999
   26383      oh       1    MUSC   O04OF       1     -0.95    15.999
   26384      oh       1    MUSC   O04OG       1     -0.95    15.999
   26385      ob       1    MUSC   O04OH       1     -1.05    15.999
   26386      ob       1    MUSC   O04OI       1     -1.05    15.999
   26387      ob       1    MUSC   O04OJ       1     -1.05    15.999
   26388      ob       1    MUSC   O04OK       1     -1.05    15.999
   26389      ob       1    MUSC   O04OL       1     -1.05    15.999
   26390      ob       1    MUSC   O04OM       1     -1.05    15.999
   26391      ob       1    MUSC   O04ON       1     -1.05    15.999
   26392      ob       1    MUSC   O04OO       1     -1.05    15.999
   26393      ob       1    MUSC   O04OP       1     -1.05    15.999
   26394      ob       1    MUSC   O04OQ       1     -1.05    15.999
   26395      ob       1    MUSC   O04OR       1     -1.05    15.999
   26396      ob       1    MUSC   O04OS       1     -1.05    15.999
   26397      ob       1    MUSC   O04OT       1     -1.05    15.999
   26398      ob       1    MUSC   O04OU       1     -1.05    15.999
   26399      ob       1    MUSC   O04OV       1     -1.05    15.999
   26400      ob       1    MUSC   O04OW       1     -1.05    15.999
   26401       K       1    MUSC   K00H3       1       1.0    39.098
   26402       K       1    MUSC   K00H4       1       1.0    39.098
   26403      ao       1    MUSC   Al0jR       1     1.575    26.982
   26404      ao       1    MUSC   Al0jS       1     1.575    26.982
   26405      ao       1    MUSC   Al0jT       1     1.575    26.982
   26406      ao       1    MUSC   Al0jU       1     1.575    26.982
   26407      ao       1    MUSC   Al0jV       1     1.575    26.982
   26408      ao       1    MUSC   Al0jW       1     1.575    26.982
   26409      ao       1    MUSC   Al0jX       1     1.575    26.982
   26410      ao       1    MUSC   Al0jY       1     1.575    26.982
   26411      st       1    MUSC   Si1Sr       1       2.1    28.086
   26412      st       1    MUSC   Si1Ss       1       2.1    28.086
   26413      st       1    MUSC   Si1St       1       2.1    28.086
   26414      st       1    MUSC   Si1Su       1       2.1    28.086
   26415      st       1    MUSC   Si1Sv       1       2.1    28.086
   26416      st       1    MUSC   Si1Sw       1       2.1    28.086
   26417      st       1    MUSC   Si1Sx       1       2.1    28.086
   26418      st       1    MUSC   Si1Sy       1       2.1    28.086
   26419      st       1    MUSC   Si1Sz       1       2.1    28.086
   26420      st       1    MUSC   Si1T0       1       2.1    28.086
   26421      st       1    MUSC   Si1T1       1       2.1    28.086
   26422      st       1    MUSC   Si1T2       1       2.1    28.086
   26423      st       1    MUSC   Si1T3       1       2.1    28.086
   26424      st       1    MUSC   Si1T4       1       2.1    28.086
   26425      st       1    MUSC   Si1T5       1       2.1    28.086
   26426      st       1    MUSC   Si1T6       1       2.1    28.086
   26427      ob       1    MUSC   O04OX       1     -1.05    15.999
   26428      ob       1    MUSC   O04OY       1     -1.05    15.999
   26429      ob       1    MUSC   O04OZ       1     -1.05    15.999
   26430      ob       1    MUSC   O04Oa       1     -1.05    15.999
   26431      oh       1    MUSC   O04Ob       1     -0.95    15.999
   26432      oh       1    MUSC   O04Oc       1     -0.95    15.999
   26433      oh       1    MUSC   O04Od       1     -0.95    15.999
   26434      oh       1    MUSC   O04Oe       1     -0.95    15.999
   26435      ob       1    MUSC   O04Of       1     -1.05    15.999
   26436      ob       1    MUSC   O04Og       1     -1.05    15.999
   26437      ob       1    MUSC   O04Oh       1     -1.05    15.999
   26438      ob       1    MUSC   O04Oi       1     -1.05    15.999
   26439      ob       1    MUSC   O04Oj       1     -1.05    15.999
   26440      ob       1    MUSC   O04Ok       1     -1.05    15.999
   26441      ob       1    MUSC   O04Ol       1     -1.05    15.999
   26442      ob       1    MUSC   O04Om       1     -1.05    15.999
   26443      ob       1    MUSC   O04On       1     -1.05    15.999
   26444      ob       1    MUSC   O04Oo       1     -1.05    15.999
   26445      ob       1    MUSC   O04Op       1     -1.05    15.999
   26446      ob       1    MUSC   O04Oq       1     -1.05    15.999
   26447      ob       1    MUSC   O04Or       1     -1.05    15.999
   26448      ob       1    MUSC   O04Os       1     -1.05    15.999
   26449      ob       1    MUSC   O04Ot       1     -1.05    15.999
   26450      ob       1    MUSC   O04Ou       1     -1.05    15.999
   26451      ob       1    MUSC   O04Ov       1     -1.05    15.999
   26452      ob       1    MUSC   O04Ow       1     -1.05    15.999
   26453      ob       1    MUSC   O04Ox       1     -1.05    15.999
   26454      ob       1    MUSC   O04Oy       1     -1.05    15.999
   26455      oh       1    MUSC   O04Oz       1     -0.95    15.999
   26456      oh       1    MUSC   O04P0       1     -0.95    15.999
   26457      oh       1    MUSC   O04P1       1     -0.95    15.999
   26458      oh       1    MUSC   O04P2       1     -0.95    15.999
   26459      ob       1    MUSC   O04P3       1     -1.05    15.999
   26460      ob       1    MUSC   O04P4       1     -1.05    15.999
   26461      ob       1    MUSC   O04P5       1     -1.05    15.999
   26462      ob       1    MUSC   O04P6       1     -1.05    15.999
   26463      ob       1    MUSC   O04P7       1     -1.05    15.999
   26464      ob       1    MUSC   O04P8       1     -1.05    15.999
   26465      ob       1    MUSC   O04P9       1     -1.05    15.999
   26466      ob       1    MUSC   O04PA       1     -1.05    15.999
   26467      ob       1    MUSC   O04PB       1     -1.05    15.999
   26468      ob       1    MUSC   O04PC       1     -1.05    15.999
   26469      ob       1    MUSC   O04PD       1     -1.05    15.999
   26470      ob       1    MUSC   O04PE       1     -1.05    15.999
   26471      ob       1    MUSC   O04PF       1     -1.05    15.999
   26472      ob       1    MUSC   O04PG       1     -1.05    15.999
   26473      ob       1    MUSC   O04PH       1     -1.05    15.999
   26474      ob       1    MUSC   O04PI       1     -1.05    15.999
   26475       K       1    MUSC   K00H5       1       1.0    39.098
   26476       K       1    MUSC   K00H6       1       1.0    39.098
   26477       K       1    MUSC   K00H7       1       1.0    39.098
   26478       K       1    MUSC   K00H8       1       1.0    39.098
   26479      ao       1    MUSC   Al0jZ       1     1.575    26.982
   26480      ao       1    MUSC   Al0ja       1     1.575    26.982
   26481      ao       1    MUSC   Al0jb       1     1.575    26.982
   26482      ao       1    MUSC   Al0jc       1     1.575    26.982
   26483      ao       1    MUSC   Al0jd       1     1.575    26.982
   26484      ao       1    MUSC   Al0je       1     1.575    26.982
   26485      ao       1    MUSC   Al0jf       1     1.575    26.982
   26486      ao       1    MUSC   Al0jg       1     1.575    26.982
   26487      st       1    MUSC   Si1T7       1       2.1    28.086
   26488      st       1    MUSC   Si1T8       1       2.1    28.086
   26489      st       1    MUSC   Si1T9       1       2.1    28.086
   26490      st       1    MUSC   Si1TA       1       2.1    28.086
   26491      st       1    MUSC   Si1TB       1       2.1    28.086
   26492      st       1    MUSC   Si1TC       1       2.1    28.086
   26493      st       1    MUSC   Si1TD       1       2.1    28.086
   26494      st       1    MUSC   Si1TE       1       2.1    28.086
   26495      st       1    MUSC   Si1TF       1       2.1    28.086
   26496      st       1    MUSC   Si1TG       1       2.1    28.086
   26497      st       1    MUSC   Si1TH       1       2.1    28.086
   26498      st       1    MUSC   Si1TI       1       2.1    28.086
   26499      st       1    MUSC   Si1TJ       1       2.1    28.086
   26500      st       1    MUSC   Si1TK       1       2.1    28.086
   26501      st       1    MUSC   Si1TL       1       2.1    28.086
   26502      st       1    MUSC   Si1TM       1       2.1    28.086
   26503      ob       1    MUSC   O04PJ       1     -1.05    15.999
   26504      ob       1    MUSC   O04PK       1     -1.05    15.999
   26505      ob       1    MUSC   O04PL       1     -1.05    15.999
   26506      ob       1    MUSC   O04PM       1     -1.05    15.999
   26507      oh       1    MUSC   O04PN       1     -0.95    15.999
   26508      oh       1    MUSC   O04PO       1     -0.95    15.999
   26509      oh       1    MUSC   O04PP       1     -0.95    15.999
   26510      oh       1    MUSC   O04PQ       1     -0.95    15.999
   26511      ob       1    MUSC   O04PR       1     -1.05    15.999
   26512      ob       1    MUSC   O04PS       1     -1.05    15.999
   26513      ob       1    MUSC   O04PT       1     -1.05    15.999
   26514      ob       1    MUSC   O04PU       1     -1.05    15.999
   26515      ob       1    MUSC   O04PV       1     -1.05    15.999
   26516      ob       1    MUSC   O04PW       1     -1.05    15.999
   26517      ob       1    MUSC   O04PX       1     -1.05    15.999
   26518      ob       1    MUSC   O04PY       1     -1.05    15.999
   26519      ob       1    MUSC   O04PZ       1     -1.05    15.999
   26520      ob       1    MUSC   O04Pa       1     -1.05    15.999
   26521      ob       1    MUSC   O04Pb       1     -1.05    15.999
   26522      ob       1    MUSC   O04Pc       1     -1.05    15.999
   26523      ob       1    MUSC   O04Pd       1     -1.05    15.999
   26524      ob       1    MUSC   O04Pe       1     -1.05    15.999
   26525      ob       1    MUSC   O04Pf       1     -1.05    15.999
   26526      ob       1    MUSC   O04Pg       1     -1.05    15.999
   26527      ob       1    MUSC   O04Ph       1     -1.05    15.999
   26528      ob       1    MUSC   O04Pi       1     -1.05    15.999
   26529      ob       1    MUSC   O04Pj       1     -1.05    15.999
   26530      ob       1    MUSC   O04Pk       1     -1.05    15.999
   26531      oh       1    MUSC   O04Pl       1     -0.95    15.999
   26532      oh       1    MUSC   O04Pm       1     -0.95    15.999
   26533      oh       1    MUSC   O04Pn       1     -0.95    15.999
   26534      oh       1    MUSC   O04Po       1     -0.95    15.999
   26535      ob       1    MUSC   O04Pp       1     -1.05    15.999
   26536      ob       1    MUSC   O04Pq       1     -1.05    15.999
   26537      ob       1    MUSC   O04Pr       1     -1.05    15.999
   26538      ob       1    MUSC   O04Ps       1     -1.05    15.999
   26539      ob       1    MUSC   O04Pt       1     -1.05    15.999
   26540      ob       1    MUSC   O04Pu       1     -1.05    15.999
   26541      ob       1    MUSC   O04Pv       1     -1.05    15.999
   26542      ob       1    MUSC   O04Pw       1     -1.05    15.999
   26543      ob       1    MUSC   O04Px       1     -1.05    15.999
   26544      ob       1    MUSC   O04Py       1     -1.05    15.999
   26545      ob       1    MUSC   O04Pz       1     -1.05    15.999
   26546      ob       1    MUSC   O04Q0       1     -1.05    15.999
   26547      ob       1    MUSC   O04Q1       1     -1.05    15.999
   26548      ob       1    MUSC   O04Q2       1     -1.05    15.999
   26549      ob       1    MUSC   O04Q3       1     -1.05    15.999
   26550      ob       1    MUSC   O04Q4       1     -1.05    15.999
   26551       K       1    MUSC   K00H9       1       1.0    39.098
   26552       K       1    MUSC   K00HA       1       1.0    39.098
   26553      ao       1    MUSC   Al0jh       1     1.575    26.982
   26554      ao       1    MUSC   Al0ji       1     1.575    26.982
   26555      ao       1    MUSC   Al0jj       1     1.575    26.982
   26556      ao       1    MUSC   Al0jk       1     1.575    26.982
   26557      ao       1    MUSC   Al0jl       1     1.575    26.982
   26558      ao       1    MUSC   Al0jm       1     1.575    26.982
   26559      ao       1    MUSC   Al0jn       1     1.575    26.982
   26560      ao       1    MUSC   Al0jo       1     1.575    26.982
   26561      st       1    MUSC   Si1TN       1       2.1    28.086
   26562      st       1    MUSC   Si1TO       1       2.1    28.086
   26563      st       1    MUSC   Si1TP       1       2.1    28.086
   26564      st       1    MUSC   Si1TQ       1       2.1    28.086
   26565      st       1    MUSC   Si1TR       1       2.1    28.086
   26566      st       1    MUSC   Si1TS       1       2.1    28.086
   26567      st       1    MUSC   Si1TT       1       2.1    28.086
   26568      st       1    MUSC   Si1TU       1       2.1    28.086
   26569      st       1    MUSC   Si1TV       1       2.1    28.086
   26570      st       1    MUSC   Si1TW       1       2.1    28.086
   26571      st       1    MUSC   Si1TX       1       2.1    28.086
   26572      st       1    MUSC   Si1TY       1       2.1    28.086
   26573      st       1    MUSC   Si1TZ       1       2.1    28.086
   26574      st       1    MUSC   Si1Ta       1       2.1    28.086
   26575      st       1    MUSC   Si1Tb       1       2.1    28.086
   26576      st       1    MUSC   Si1Tc       1       2.1    28.086
   26577      ob       1    MUSC   O04Q5       1     -1.05    15.999
   26578      ob       1    MUSC   O04Q6       1     -1.05    15.999
   26579      ob       1    MUSC   O04Q7       1     -1.05    15.999
   26580      ob       1    MUSC   O04Q8       1     -1.05    15.999
   26581      oh       1    MUSC   O04Q9       1     -0.95    15.999
   26582      oh       1    MUSC   O04QA       1     -0.95    15.999
   26583      oh       1    MUSC   O04QB       1     -0.95    15.999
   26584      oh       1    MUSC   O04QC       1     -0.95    15.999
   26585      ob       1    MUSC   O04QD       1     -1.05    15.999
   26586      ob       1    MUSC   O04QE       1     -1.05    15.999
   26587      ob       1    MUSC   O04QF       1     -1.05    15.999
   26588      ob       1    MUSC   O04QG       1     -1.05    15.999
   26589      ob       1    MUSC   O04QH       1     -1.05    15.999
   26590      ob       1    MUSC   O04QI       1     -1.05    15.999
   26591      ob       1    MUSC   O04QJ       1     -1.05    15.999
   26592      ob       1    MUSC   O04QK       1     -1.05    15.999
   26593      ob       1    MUSC   O04QL       1     -1.05    15.999
   26594      ob       1    MUSC   O04QM       1     -1.05    15.999
   26595      ob       1    MUSC   O04QN       1     -1.05    15.999
   26596      ob       1    MUSC   O04QO       1     -1.05    15.999
   26597      ob       1    MUSC   O04QP       1     -1.05    15.999
   26598      ob       1    MUSC   O04QQ       1     -1.05    15.999
   26599      ob       1    MUSC   O04QR       1     -1.05    15.999
   26600      ob       1    MUSC   O04QS       1     -1.05    15.999
   26601      ob       1    MUSC   O04QT       1     -1.05    15.999
   26602      ob       1    MUSC   O04QU       1     -1.05    15.999
   26603      ob       1    MUSC   O04QV       1     -1.05    15.999
   26604      ob       1    MUSC   O04QW       1     -1.05    15.999
   26605      oh       1    MUSC   O04QX       1     -0.95    15.999
   26606      oh       1    MUSC   O04QY       1     -0.95    15.999
   26607      oh       1    MUSC   O04QZ       1     -0.95    15.999
   26608      oh       1    MUSC   O04Qa       1     -0.95    15.999
   26609      ob       1    MUSC   O04Qb       1     -1.05    15.999
   26610      ob       1    MUSC   O04Qc       1     -1.05    15.999
   26611      ob       1    MUSC   O04Qd       1     -1.05    15.999
   26612      ob       1    MUSC   O04Qe       1     -1.05    15.999
   26613      ob       1    MUSC   O04Qf       1     -1.05    15.999
   26614      ob       1    MUSC   O04Qg       1     -1.05    15.999
   26615      ob       1    MUSC   O04Qh       1     -1.05    15.999
   26616      ob       1    MUSC   O04Qi       1     -1.05    15.999
   26617      ob       1    MUSC   O04Qj       1     -1.05    15.999
   26618      ob       1    MUSC   O04Qk       1     -1.05    15.999
   26619      ob       1    MUSC   O04Ql       1     -1.05    15.999
   26620      ob       1    MUSC   O04Qm       1     -1.05    15.999
   26621      ob       1    MUSC   O04Qn       1     -1.05    15.999
   26622      ob       1    MUSC   O04Qo       1     -1.05    15.999
   26623      ob       1    MUSC   O04Qp       1     -1.05    15.999
   26624      ob       1    MUSC   O04Qq       1     -1.05    15.999
   26625       K       1    MUSC   K00HB       1       1.0    39.098
   26626       K       1    MUSC   K00HC       1       1.0    39.098
   26627       K       1    MUSC   K00HD       1       1.0    39.098
   26628       K       1    MUSC   K00HE       1       1.0    39.098
   26629      ao       1    MUSC   Al0jp       1     1.575    26.982
   26630      ao       1    MUSC   Al0jq       1     1.575    26.982
   26631      ao       1    MUSC   Al0jr       1     1.575    26.982
   26632      ao       1    MUSC   Al0js       1     1.575    26.982
   26633      ao       1    MUSC   Al0jt       1     1.575    26.982
   26634      ao       1    MUSC   Al0ju       1     1.575    26.982
   26635      ao       1    MUSC   Al0jv       1     1.575    26.982
   26636      ao       1    MUSC   Al0jw       1     1.575    26.982
   26637      st       1    MUSC   Si1Td       1       2.1    28.086
   26638      st       1    MUSC   Si1Te       1       2.1    28.086
   26639      st       1    MUSC   Si1Tf       1       2.1    28.086
   26640      st       1    MUSC   Si1Tg       1       2.1    28.086
   26641      st       1    MUSC   Si1Th       1       2.1    28.086
   26642      st       1    MUSC   Si1Ti       1       2.1    28.086
   26643      st       1    MUSC   Si1Tj       1       2.1    28.086
   26644      st       1    MUSC   Si1Tk       1       2.1    28.086
   26645      st       1    MUSC   Si1Tl       1       2.1    28.086
   26646      st       1    MUSC   Si1Tm       1       2.1    28.086
   26647      st       1    MUSC   Si1Tn       1       2.1    28.086
   26648      st       1    MUSC   Si1To       1       2.1    28.086
   26649      st       1    MUSC   Si1Tp       1       2.1    28.086
   26650      st       1    MUSC   Si1Tq       1       2.1    28.086
   26651      st       1    MUSC   Si1Tr       1       2.1    28.086
   26652      st       1    MUSC   Si1Ts       1       2.1    28.086
   26653      ob       1    MUSC   O04Qr       1     -1.05    15.999
   26654      ob       1    MUSC   O04Qs       1     -1.05    15.999
   26655      ob       1    MUSC   O04Qt       1     -1.05    15.999
   26656      ob       1    MUSC   O04Qu       1     -1.05    15.999
   26657      oh       1    MUSC   O04Qv       1     -0.95    15.999
   26658      oh       1    MUSC   O04Qw       1     -0.95    15.999
   26659      oh       1    MUSC   O04Qx       1     -0.95    15.999
   26660      oh       1    MUSC   O04Qy       1     -0.95    15.999
   26661      ob       1    MUSC   O04Qz       1     -1.05    15.999
   26662      ob       1    MUSC   O04R0       1     -1.05    15.999
   26663      ob       1    MUSC   O04R1       1     -1.05    15.999
   26664      ob       1    MUSC   O04R2       1     -1.05    15.999
   26665      ob       1    MUSC   O04R3       1     -1.05    15.999
   26666      ob       1    MUSC   O04R4       1     -1.05    15.999
   26667      ob       1    MUSC   O04R5       1     -1.05    15.999
   26668      ob       1    MUSC   O04R6       1     -1.05    15.999
   26669      ob       1    MUSC   O04R7       1     -1.05    15.999
   26670      ob       1    MUSC   O04R8       1     -1.05    15.999
   26671      ob       1    MUSC   O04R9       1     -1.05    15.999
   26672      ob       1    MUSC   O04RA       1     -1.05    15.999
   26673      ob       1    MUSC   O04RB       1     -1.05    15.999
   26674      ob       1    MUSC   O04RC       1     -1.05    15.999
   26675      ob       1    MUSC   O04RD       1     -1.05    15.999
   26676      ob       1    MUSC   O04RE       1     -1.05    15.999
   26677      ob       1    MUSC   O04RF       1     -1.05    15.999
   26678      ob       1    MUSC   O04RG       1     -1.05    15.999
   26679      ob       1    MUSC   O04RH       1     -1.05    15.999
   26680      ob       1    MUSC   O04RI       1     -1.05    15.999
   26681      oh       1    MUSC   O04RJ       1     -0.95    15.999
   26682      oh       1    MUSC   O04RK       1     -0.95    15.999
   26683      oh       1    MUSC   O04RL       1     -0.95    15.999
   26684      oh       1    MUSC   O04RM       1     -0.95    15.999
   26685      ob       1    MUSC   O04RN       1     -1.05    15.999
   26686      ob       1    MUSC   O04RO       1     -1.05    15.999
   26687      ob       1    MUSC   O04RP       1     -1.05    15.999
   26688      ob       1    MUSC   O04RQ       1     -1.05    15.999
   26689      ob       1    MUSC   O04RR       1     -1.05    15.999
   26690      ob       1    MUSC   O04RS       1     -1.05    15.999
   26691      ob       1    MUSC   O04RT       1     -1.05    15.999
   26692      ob       1    MUSC   O04RU       1     -1.05    15.999
   26693      ob       1    MUSC   O04RV       1     -1.05    15.999
   26694      ob       1    MUSC   O04RW       1     -1.05    15.999
   26695      ob       1    MUSC   O04RX       1     -1.05    15.999
   26696      ob       1    MUSC   O04RY       1     -1.05    15.999
   26697      ob       1    MUSC   O04RZ       1     -1.05    15.999
   26698      ob       1    MUSC   O04Ra       1     -1.05    15.999
   26699      ob       1    MUSC   O04Rb       1     -1.05    15.999
   26700      ob       1    MUSC   O04Rc       1     -1.05    15.999
   26701       K       1    MUSC   K00HF       1       1.0    39.098
   26702       K       1    MUSC   K00HG       1       1.0    39.098
   26703      ao       1    MUSC   Al0jx       1     1.575    26.982
   26704      ao       1    MUSC   Al0jy       1     1.575    26.982
   26705      ao       1    MUSC   Al0jz       1     1.575    26.982
   26706      ao       1    MUSC   Al0k0       1     1.575    26.982
   26707      ao       1    MUSC   Al0k1       1     1.575    26.982
   26708      ao       1    MUSC   Al0k2       1     1.575    26.982
   26709      ao       1    MUSC   Al0k3       1     1.575    26.982
   26710      ao       1    MUSC   Al0k4       1     1.575    26.982
   26711      st       1    MUSC   Si1Tt       1       2.1    28.086
   26712      st       1    MUSC   Si1Tu       1       2.1    28.086
   26713      st       1    MUSC   Si1Tv       1       2.1    28.086
   26714      st       1    MUSC   Si1Tw       1       2.1    28.086
   26715      st       1    MUSC   Si1Tx       1       2.1    28.086
   26716      st       1    MUSC   Si1Ty       1       2.1    28.086
   26717      st       1    MUSC   Si1Tz       1       2.1    28.086
   26718      st       1    MUSC   Si1U0       1       2.1    28.086
   26719      st       1    MUSC   Si1U1       1       2.1    28.086
   26720      st       1    MUSC   Si1U2       1       2.1    28.086
   26721      st       1    MUSC   Si1U3       1       2.1    28.086
   26722      st       1    MUSC   Si1U4       1       2.1    28.086
   26723      st       1    MUSC   Si1U5       1       2.1    28.086
   26724      st       1    MUSC   Si1U6       1       2.1    28.086
   26725      st       1    MUSC   Si1U7       1       2.1    28.086
   26726      st       1    MUSC   Si1U8       1       2.1    28.086
   26727      ob       1    MUSC   O04Rd       1     -1.05    15.999
   26728      ob       1    MUSC   O04Re       1     -1.05    15.999
   26729      ob       1    MUSC   O04Rf       1     -1.05    15.999
   26730      ob       1    MUSC   O04Rg       1     -1.05    15.999
   26731      oh       1    MUSC   O04Rh       1     -0.95    15.999
   26732      oh       1    MUSC   O04Ri       1     -0.95    15.999
   26733      oh       1    MUSC   O04Rj       1     -0.95    15.999
   26734      oh       1    MUSC   O04Rk       1     -0.95    15.999
   26735      ob       1    MUSC   O04Rl       1     -1.05    15.999
   26736      ob       1    MUSC   O04Rm       1     -1.05    15.999
   26737      ob       1    MUSC   O04Rn       1     -1.05    15.999
   26738      ob       1    MUSC   O04Ro       1     -1.05    15.999
   26739      ob       1    MUSC   O04Rp       1     -1.05    15.999
   26740      ob       1    MUSC   O04Rq       1     -1.05    15.999
   26741      ob       1    MUSC   O04Rr       1     -1.05    15.999
   26742      ob       1    MUSC   O04Rs       1     -1.05    15.999
   26743      ob       1    MUSC   O04Rt       1     -1.05    15.999
   26744      ob       1    MUSC   O04Ru       1     -1.05    15.999
   26745      ob       1    MUSC   O04Rv       1     -1.05    15.999
   26746      ob       1    MUSC   O04Rw       1     -1.05    15.999
   26747      ob       1    MUSC   O04Rx       1     -1.05    15.999
   26748      ob       1    MUSC   O04Ry       1     -1.05    15.999
   26749      ob       1    MUSC   O04Rz       1     -1.05    15.999
   26750      ob       1    MUSC   O04S0       1     -1.05    15.999
   26751      ob       1    MUSC   O04S1       1     -1.05    15.999
   26752      ob       1    MUSC   O04S2       1     -1.05    15.999
   26753      ob       1    MUSC   O04S3       1     -1.05    15.999
   26754      ob       1    MUSC   O04S4       1     -1.05    15.999
   26755      oh       1    MUSC   O04S5       1     -0.95    15.999
   26756      oh       1    MUSC   O04S6       1     -0.95    15.999
   26757      oh       1    MUSC   O04S7       1     -0.95    15.999
   26758      oh       1    MUSC   O04S8       1     -0.95    15.999
   26759      ob       1    MUSC   O04S9       1     -1.05    15.999
   26760      ob       1    MUSC   O04SA       1     -1.05    15.999
   26761      ob       1    MUSC   O04SB       1     -1.05    15.999
   26762      ob       1    MUSC   O04SC       1     -1.05    15.999
   26763      ob       1    MUSC   O04SD       1     -1.05    15.999
   26764      ob       1    MUSC   O04SE       1     -1.05    15.999
   26765      ob       1    MUSC   O04SF       1     -1.05    15.999
   26766      ob       1    MUSC   O04SG       1     -1.05    15.999
   26767      ob       1    MUSC   O04SH       1     -1.05    15.999
   26768      ob       1    MUSC   O04SI       1     -1.05    15.999
   26769      ob       1    MUSC   O04SJ       1     -1.05    15.999
   26770      ob       1    MUSC   O04SK       1     -1.05    15.999
   26771      ob       1    MUSC   O04SL       1     -1.05    15.999
   26772      ob       1    MUSC   O04SM       1     -1.05    15.999
   26773      ob       1    MUSC   O04SN       1     -1.05    15.999
   26774      ob       1    MUSC   O04SO       1     -1.05    15.999
   26775       K       1    MUSC   K00HH       1       1.0    39.098
   26776       K       1    MUSC   K00HI       1       1.0    39.098
   26777       K       1    MUSC   K00HJ       1       1.0    39.098
   26778       K       1    MUSC   K00HK       1       1.0    39.098
   26779      ao       1    MUSC   Al0k5       1     1.575    26.982
   26780      ao       1    MUSC   Al0k6       1     1.575    26.982
   26781      ao       1    MUSC   Al0k7       1     1.575    26.982
   26782      ao       1    MUSC   Al0k8       1     1.575    26.982
   26783      ao       1    MUSC   Al0k9       1     1.575    26.982
   26784      ao       1    MUSC   Al0kA       1     1.575    26.982
   26785      ao       1    MUSC   Al0kB       1     1.575    26.982
   26786      ao       1    MUSC   Al0kC       1     1.575    26.982
   26787      st       1    MUSC   Si1U9       1       2.1    28.086
   26788      st       1    MUSC   Si1UA       1       2.1    28.086
   26789      st       1    MUSC   Si1UB       1       2.1    28.086
   26790      st       1    MUSC   Si1UC       1       2.1    28.086
   26791      st       1    MUSC   Si1UD       1       2.1    28.086
   26792      st       1    MUSC   Si1UE       1       2.1    28.086
   26793      st       1    MUSC   Si1UF       1       2.1    28.086
   26794      st       1    MUSC   Si1UG       1       2.1    28.086
   26795      st       1    MUSC   Si1UH       1       2.1    28.086
   26796      st       1    MUSC   Si1UI       1       2.1    28.086
   26797      st       1    MUSC   Si1UJ       1       2.1    28.086
   26798      st       1    MUSC   Si1UK       1       2.1    28.086
   26799      st       1    MUSC   Si1UL       1       2.1    28.086
   26800      st       1    MUSC   Si1UM       1       2.1    28.086
   26801      st       1    MUSC   Si1UN       1       2.1    28.086
   26802      st       1    MUSC   Si1UO       1       2.1    28.086
   26803      ob       1    MUSC   O04SP       1     -1.05    15.999
   26804      ob       1    MUSC   O04SQ       1     -1.05    15.999
   26805      ob       1    MUSC   O04SR       1     -1.05    15.999
   26806      ob       1    MUSC   O04SS       1     -1.05    15.999
   26807      oh       1    MUSC   O04ST       1     -0.95    15.999
   26808      oh       1    MUSC   O04SU       1     -0.95    15.999
   26809      oh       1    MUSC   O04SV       1     -0.95    15.999
   26810      oh       1    MUSC   O04SW       1     -0.95    15.999
   26811      ob       1    MUSC   O04SX       1     -1.05    15.999
   26812      ob       1    MUSC   O04SY       1     -1.05    15.999
   26813      ob       1    MUSC   O04SZ       1     -1.05    15.999
   26814      ob       1    MUSC   O04Sa       1     -1.05    15.999
   26815      ob       1    MUSC   O04Sb       1     -1.05    15.999
   26816      ob       1    MUSC   O04Sc       1     -1.05    15.999
   26817      ob       1    MUSC   O04Sd       1     -1.05    15.999
   26818      ob       1    MUSC   O04Se       1     -1.05    15.999
   26819      ob       1    MUSC   O04Sf       1     -1.05    15.999
   26820      ob       1    MUSC   O04Sg       1     -1.05    15.999
   26821      ob       1    MUSC   O04Sh       1     -1.05    15.999
   26822      ob       1    MUSC   O04Si       1     -1.05    15.999
   26823      ob       1    MUSC   O04Sj       1     -1.05    15.999
   26824      ob       1    MUSC   O04Sk       1     -1.05    15.999
   26825      ob       1    MUSC   O04Sl       1     -1.05    15.999
   26826      ob       1    MUSC   O04Sm       1     -1.05    15.999
   26827      ob       1    MUSC   O04Sn       1     -1.05    15.999
   26828      ob       1    MUSC   O04So       1     -1.05    15.999
   26829      ob       1    MUSC   O04Sp       1     -1.05    15.999
   26830      ob       1    MUSC   O04Sq       1     -1.05    15.999
   26831      oh       1    MUSC   O04Sr       1     -0.95    15.999
   26832      oh       1    MUSC   O04Ss       1     -0.95    15.999
   26833      oh       1    MUSC   O04St       1     -0.95    15.999
   26834      oh       1    MUSC   O04Su       1     -0.95    15.999
   26835      ob       1    MUSC   O04Sv       1     -1.05    15.999
   26836      ob       1    MUSC   O04Sw       1     -1.05    15.999
   26837      ob       1    MUSC   O04Sx       1     -1.05    15.999
   26838      ob       1    MUSC   O04Sy       1     -1.05    15.999
   26839      ob       1    MUSC   O04Sz       1     -1.05    15.999
   26840      ob       1    MUSC   O04T0       1     -1.05    15.999
   26841      ob       1    MUSC   O04T1       1     -1.05    15.999
   26842      ob       1    MUSC   O04T2       1     -1.05    15.999
   26843      ob       1    MUSC   O04T3       1     -1.05    15.999
   26844      ob       1    MUSC   O04T4       1     -1.05    15.999
   26845      ob       1    MUSC   O04T5       1     -1.05    15.999
   26846      ob       1    MUSC   O04T6       1     -1.05    15.999
   26847      ob       1    MUSC   O04T7       1     -1.05    15.999
   26848      ob       1    MUSC   O04T8       1     -1.05    15.999
   26849      ob       1    MUSC   O04T9       1     -1.05    15.999
   26850      ob       1    MUSC   O04TA       1     -1.05    15.999
   26851       K       1    MUSC   K00HL       1       1.0    39.098
   26852       K       1    MUSC   K00HM       1       1.0    39.098
   26853      ao       1    MUSC   Al0kD       1     1.575    26.982
   26854      ao       1    MUSC   Al0kE       1     1.575    26.982
   26855      ao       1    MUSC   Al0kF       1     1.575    26.982
   26856      ao       1    MUSC   Al0kG       1     1.575    26.982
   26857      ao       1    MUSC   Al0kH       1     1.575    26.982
   26858      ao       1    MUSC   Al0kI       1     1.575    26.982
   26859      ao       1    MUSC   Al0kJ       1     1.575    26.982
   26860      ao       1    MUSC   Al0kK       1     1.575    26.982
   26861      st       1    MUSC   Si1UP       1       2.1    28.086
   26862      st       1    MUSC   Si1UQ       1       2.1    28.086
   26863      st       1    MUSC   Si1UR       1       2.1    28.086
   26864      st       1    MUSC   Si1US       1       2.1    28.086
   26865      st       1    MUSC   Si1UT       1       2.1    28.086
   26866      st       1    MUSC   Si1UU       1       2.1    28.086
   26867      st       1    MUSC   Si1UV       1       2.1    28.086
   26868      st       1    MUSC   Si1UW       1       2.1    28.086
   26869      st       1    MUSC   Si1UX       1       2.1    28.086
   26870      st       1    MUSC   Si1UY       1       2.1    28.086
   26871      st       1    MUSC   Si1UZ       1       2.1    28.086
   26872      st       1    MUSC   Si1Ua       1       2.1    28.086
   26873      st       1    MUSC   Si1Ub       1       2.1    28.086
   26874      st       1    MUSC   Si1Uc       1       2.1    28.086
   26875      st       1    MUSC   Si1Ud       1       2.1    28.086
   26876      st       1    MUSC   Si1Ue       1       2.1    28.086
   26877      ob       1    MUSC   O04TB       1     -1.05    15.999
   26878      ob       1    MUSC   O04TC       1     -1.05    15.999
   26879      ob       1    MUSC   O04TD       1     -1.05    15.999
   26880      ob       1    MUSC   O04TE       1     -1.05    15.999
   26881      oh       1    MUSC   O04TF       1     -0.95    15.999
   26882      oh       1    MUSC   O04TG       1     -0.95    15.999
   26883      oh       1    MUSC   O04TH       1     -0.95    15.999
   26884      oh       1    MUSC   O04TI       1     -0.95    15.999
   26885      ob       1    MUSC   O04TJ       1     -1.05    15.999
   26886      ob       1    MUSC   O04TK       1     -1.05    15.999
   26887      ob       1    MUSC   O04TL       1     -1.05    15.999
   26888      ob       1    MUSC   O04TM       1     -1.05    15.999
   26889      ob       1    MUSC   O04TN       1     -1.05    15.999
   26890      ob       1    MUSC   O04TO       1     -1.05    15.999
   26891      ob       1    MUSC   O04TP       1     -1.05    15.999
   26892      ob       1    MUSC   O04TQ       1     -1.05    15.999
   26893      ob       1    MUSC   O04TR       1     -1.05    15.999
   26894      ob       1    MUSC   O04TS       1     -1.05    15.999
   26895      ob       1    MUSC   O04TT       1     -1.05    15.999
   26896      ob       1    MUSC   O04TU       1     -1.05    15.999
   26897      ob       1    MUSC   O04TV       1     -1.05    15.999
   26898      ob       1    MUSC   O04TW       1     -1.05    15.999
   26899      ob       1    MUSC   O04TX       1     -1.05    15.999
   26900      ob       1    MUSC   O04TY       1     -1.05    15.999
   26901      ob       1    MUSC   O04TZ       1     -1.05    15.999
   26902      ob       1    MUSC   O04Ta       1     -1.05    15.999
   26903      ob       1    MUSC   O04Tb       1     -1.05    15.999
   26904      ob       1    MUSC   O04Tc       1     -1.05    15.999
   26905      oh       1    MUSC   O04Td       1     -0.95    15.999
   26906      oh       1    MUSC   O04Te       1     -0.95    15.999
   26907      oh       1    MUSC   O04Tf       1     -0.95    15.999
   26908      oh       1    MUSC   O04Tg       1     -0.95    15.999
   26909      ob       1    MUSC   O04Th       1     -1.05    15.999
   26910      ob       1    MUSC   O04Ti       1     -1.05    15.999
   26911      ob       1    MUSC   O04Tj       1     -1.05    15.999
   26912      ob       1    MUSC   O04Tk       1     -1.05    15.999
   26913      ob       1    MUSC   O04Tl       1     -1.05    15.999
   26914      ob       1    MUSC   O04Tm       1     -1.05    15.999
   26915      ob       1    MUSC   O04Tn       1     -1.05    15.999
   26916      ob       1    MUSC   O04To       1     -1.05    15.999
   26917      ob       1    MUSC   O04Tp       1     -1.05    15.999
   26918      ob       1    MUSC   O04Tq       1     -1.05    15.999
   26919      ob       1    MUSC   O04Tr       1     -1.05    15.999
   26920      ob       1    MUSC   O04Ts       1     -1.05    15.999
   26921      ob       1    MUSC   O04Tt       1     -1.05    15.999
   26922      ob       1    MUSC   O04Tu       1     -1.05    15.999
   26923      ob       1    MUSC   O04Tv       1     -1.05    15.999
   26924      ob       1    MUSC   O04Tw       1     -1.05    15.999
   26925       K       1    MUSC   K00HN       1       1.0    39.098
   26926       K       1    MUSC   K00HO       1       1.0    39.098
   26927       K       1    MUSC   K00HP       1       1.0    39.098
   26928       K       1    MUSC   K00HQ       1       1.0    39.098
   26929      ao       1    MUSC   Al0kL       1     1.575    26.982
   26930      ao       1    MUSC   Al0kM       1     1.575    26.982
   26931      ao       1    MUSC   Al0kN       1     1.575    26.982
   26932      ao       1    MUSC   Al0kO       1     1.575    26.982
   26933      ao       1    MUSC   Al0kP       1     1.575    26.982
   26934      ao       1    MUSC   Al0kQ       1     1.575    26.982
   26935      ao       1    MUSC   Al0kR       1     1.575    26.982
   26936      ao       1    MUSC   Al0kS       1     1.575    26.982
   26937      st       1    MUSC   Si1Uf       1       2.1    28.086
   26938      st       1    MUSC   Si1Ug       1       2.1    28.086
   26939      st       1    MUSC   Si1Uh       1       2.1    28.086
   26940      st       1    MUSC   Si1Ui       1       2.1    28.086
   26941      st       1    MUSC   Si1Uj       1       2.1    28.086
   26942      st       1    MUSC   Si1Uk       1       2.1    28.086
   26943      st       1    MUSC   Si1Ul       1       2.1    28.086
   26944      st       1    MUSC   Si1Um       1       2.1    28.086
   26945      st       1    MUSC   Si1Un       1       2.1    28.086
   26946      st       1    MUSC   Si1Uo       1       2.1    28.086
   26947      st       1    MUSC   Si1Up       1       2.1    28.086
   26948      st       1    MUSC   Si1Uq       1       2.1    28.086
   26949      st       1    MUSC   Si1Ur       1       2.1    28.086
   26950      st       1    MUSC   Si1Us       1       2.1    28.086
   26951      st       1    MUSC   Si1Ut       1       2.1    28.086
   26952      st       1    MUSC   Si1Uu       1       2.1    28.086
   26953      ob       1    MUSC   O04Tx       1     -1.05    15.999
   26954      ob       1    MUSC   O04Ty       1     -1.05    15.999
   26955      ob       1    MUSC   O04Tz       1     -1.05    15.999
   26956      ob       1    MUSC   O04U0       1     -1.05    15.999
   26957      oh       1    MUSC   O04U1       1     -0.95    15.999
   26958      oh       1    MUSC   O04U2       1     -0.95    15.999
   26959      oh       1    MUSC   O04U3       1     -0.95    15.999
   26960      oh       1    MUSC   O04U4       1     -0.95    15.999
   26961      ob       1    MUSC   O04U5       1     -1.05    15.999
   26962      ob       1    MUSC   O04U6       1     -1.05    15.999
   26963      ob       1    MUSC   O04U7       1     -1.05    15.999
   26964      ob       1    MUSC   O04U8       1     -1.05    15.999
   26965      ob       1    MUSC   O04U9       1     -1.05    15.999
   26966      ob       1    MUSC   O04UA       1     -1.05    15.999
   26967      ob       1    MUSC   O04UB       1     -1.05    15.999
   26968      ob       1    MUSC   O04UC       1     -1.05    15.999
   26969      ob       1    MUSC   O04UD       1     -1.05    15.999
   26970      ob       1    MUSC   O04UE       1     -1.05    15.999
   26971      ob       1    MUSC   O04UF       1     -1.05    15.999
   26972      ob       1    MUSC   O04UG       1     -1.05    15.999
   26973      ob       1    MUSC   O04UH       1     -1.05    15.999
   26974      ob       1    MUSC   O04UI       1     -1.05    15.999
   26975      ob       1    MUSC   O04UJ       1     -1.05    15.999
   26976      ob       1    MUSC   O04UK       1     -1.05    15.999
   26977      ob       1    MUSC   O04UL       1     -1.05    15.999
   26978      ob       1    MUSC   O04UM       1     -1.05    15.999
   26979      ob       1    MUSC   O04UN       1     -1.05    15.999
   26980      ob       1    MUSC   O04UO       1     -1.05    15.999
   26981      oh       1    MUSC   O04UP       1     -0.95    15.999
   26982      oh       1    MUSC   O04UQ       1     -0.95    15.999
   26983      oh       1    MUSC   O04UR       1     -0.95    15.999
   26984      oh       1    MUSC   O04US       1     -0.95    15.999
   26985      ob       1    MUSC   O04UT       1     -1.05    15.999
   26986      ob       1    MUSC   O04UU       1     -1.05    15.999
   26987      ob       1    MUSC   O04UV       1     -1.05    15.999
   26988      ob       1    MUSC   O04UW       1     -1.05    15.999
   26989      ob       1    MUSC   O04UX       1     -1.05    15.999
   26990      ob       1    MUSC   O04UY       1     -1.05    15.999
   26991      ob       1    MUSC   O04UZ       1     -1.05    15.999
   26992      ob       1    MUSC   O04Ua       1     -1.05    15.999
   26993      ob       1    MUSC   O04Ub       1     -1.05    15.999
   26994      ob       1    MUSC   O04Uc       1     -1.05    15.999
   26995      ob       1    MUSC   O04Ud       1     -1.05    15.999
   26996      ob       1    MUSC   O04Ue       1     -1.05    15.999
   26997      ob       1    MUSC   O04Uf       1     -1.05    15.999
   26998      ob       1    MUSC   O04Ug       1     -1.05    15.999
   26999      ob       1    MUSC   O04Uh       1     -1.05    15.999
   27000      ob       1    MUSC   O04Ui       1     -1.05    15.999
   27001       K       1    MUSC   K00HR       1       1.0    39.098
   27002       K       1    MUSC   K00HS       1       1.0    39.098
   27003      ao       1    MUSC   Al0kT       1     1.575    26.982
   27004      ao       1    MUSC   Al0kU       1     1.575    26.982
   27005      ao       1    MUSC   Al0kV       1     1.575    26.982
   27006      ao       1    MUSC   Al0kW       1     1.575    26.982
   27007      ao       1    MUSC   Al0kX       1     1.575    26.982
   27008      ao       1    MUSC   Al0kY       1     1.575    26.982
   27009      ao       1    MUSC   Al0kZ       1     1.575    26.982
   27010      ao       1    MUSC   Al0ka       1     1.575    26.982
   27011      st       1    MUSC   Si1Uv       1       2.1    28.086
   27012      st       1    MUSC   Si1Uw       1       2.1    28.086
   27013      st       1    MUSC   Si1Ux       1       2.1    28.086
   27014      st       1    MUSC   Si1Uy       1       2.1    28.086
   27015      st       1    MUSC   Si1Uz       1       2.1    28.086
   27016      st       1    MUSC   Si1V0       1       2.1    28.086
   27017      st       1    MUSC   Si1V1       1       2.1    28.086
   27018      st       1    MUSC   Si1V2       1       2.1    28.086
   27019      st       1    MUSC   Si1V3       1       2.1    28.086
   27020      st       1    MUSC   Si1V4       1       2.1    28.086
   27021      st       1    MUSC   Si1V5       1       2.1    28.086
   27022      st       1    MUSC   Si1V6       1       2.1    28.086
   27023      st       1    MUSC   Si1V7       1       2.1    28.086
   27024      st       1    MUSC   Si1V8       1       2.1    28.086
   27025      st       1    MUSC   Si1V9       1       2.1    28.086
   27026      st       1    MUSC   Si1VA       1       2.1    28.086
   27027      ob       1    MUSC   O04Uj       1     -1.05    15.999
   27028      ob       1    MUSC   O04Uk       1     -1.05    15.999
   27029      ob       1    MUSC   O04Ul       1     -1.05    15.999
   27030      ob       1    MUSC   O04Um       1     -1.05    15.999
   27031      oh       1    MUSC   O04Un       1     -0.95    15.999
   27032      oh       1    MUSC   O04Uo       1     -0.95    15.999
   27033      oh       1    MUSC   O04Up       1     -0.95    15.999
   27034      oh       1    MUSC   O04Uq       1     -0.95    15.999
   27035      ob       1    MUSC   O04Ur       1     -1.05    15.999
   27036      ob       1    MUSC   O04Us       1     -1.05    15.999
   27037      ob       1    MUSC   O04Ut       1     -1.05    15.999
   27038      ob       1    MUSC   O04Uu       1     -1.05    15.999
   27039      ob       1    MUSC   O04Uv       1     -1.05    15.999
   27040      ob       1    MUSC   O04Uw       1     -1.05    15.999
   27041      ob       1    MUSC   O04Ux       1     -1.05    15.999
   27042      ob       1    MUSC   O04Uy       1     -1.05    15.999
   27043      ob       1    MUSC   O04Uz       1     -1.05    15.999
   27044      ob       1    MUSC   O04V0       1     -1.05    15.999
   27045      ob       1    MUSC   O04V1       1     -1.05    15.999
   27046      ob       1    MUSC   O04V2       1     -1.05    15.999
   27047      ob       1    MUSC   O04V3       1     -1.05    15.999
   27048      ob       1    MUSC   O04V4       1     -1.05    15.999
   27049      ob       1    MUSC   O04V5       1     -1.05    15.999
   27050      ob       1    MUSC   O04V6       1     -1.05    15.999
   27051      ob       1    MUSC   O04V7       1     -1.05    15.999
   27052      ob       1    MUSC   O04V8       1     -1.05    15.999
   27053      ob       1    MUSC   O04V9       1     -1.05    15.999
   27054      ob       1    MUSC   O04VA       1     -1.05    15.999
   27055      oh       1    MUSC   O04VB       1     -0.95    15.999
   27056      oh       1    MUSC   O04VC       1     -0.95    15.999
   27057      oh       1    MUSC   O04VD       1     -0.95    15.999
   27058      oh       1    MUSC   O04VE       1     -0.95    15.999
   27059      ob       1    MUSC   O04VF       1     -1.05    15.999
   27060      ob       1    MUSC   O04VG       1     -1.05    15.999
   27061      ob       1    MUSC   O04VH       1     -1.05    15.999
   27062      ob       1    MUSC   O04VI       1     -1.05    15.999
   27063      ob       1    MUSC   O04VJ       1     -1.05    15.999
   27064      ob       1    MUSC   O04VK       1     -1.05    15.999
   27065      ob       1    MUSC   O04VL       1     -1.05    15.999
   27066      ob       1    MUSC   O04VM       1     -1.05    15.999
   27067      ob       1    MUSC   O04VN       1     -1.05    15.999
   27068      ob       1    MUSC   O04VO       1     -1.05    15.999
   27069      ob       1    MUSC   O04VP       1     -1.05    15.999
   27070      ob       1    MUSC   O04VQ       1     -1.05    15.999
   27071      ob       1    MUSC   O04VR       1     -1.05    15.999
   27072      ob       1    MUSC   O04VS       1     -1.05    15.999
   27073      ob       1    MUSC   O04VT       1     -1.05    15.999
   27074      ob       1    MUSC   O04VU       1     -1.05    15.999
   27075       K       1    MUSC   K00HT       1       1.0    39.098
   27076       K       1    MUSC   K00HU       1       1.0    39.098
   27077       K       1    MUSC   K00HV       1       1.0    39.098
   27078       K       1    MUSC   K00HW       1       1.0    39.098
   27079      ao       1    MUSC   Al0kb       1     1.575    26.982
   27080      ao       1    MUSC   Al0kc       1     1.575    26.982
   27081      ao       1    MUSC   Al0kd       1     1.575    26.982
   27082      ao       1    MUSC   Al0ke       1     1.575    26.982
   27083      ao       1    MUSC   Al0kf       1     1.575    26.982
   27084      ao       1    MUSC   Al0kg       1     1.575    26.982
   27085      ao       1    MUSC   Al0kh       1     1.575    26.982
   27086      ao       1    MUSC   Al0ki       1     1.575    26.982
   27087      st       1    MUSC   Si1VB       1       2.1    28.086
   27088      st       1    MUSC   Si1VC       1       2.1    28.086
   27089      st       1    MUSC   Si1VD       1       2.1    28.086
   27090      st       1    MUSC   Si1VE       1       2.1    28.086
   27091      st       1    MUSC   Si1VF       1       2.1    28.086
   27092      st       1    MUSC   Si1VG       1       2.1    28.086
   27093      st       1    MUSC   Si1VH       1       2.1    28.086
   27094      st       1    MUSC   Si1VI       1       2.1    28.086
   27095      st       1    MUSC   Si1VJ       1       2.1    28.086
   27096      st       1    MUSC   Si1VK       1       2.1    28.086
   27097      st       1    MUSC   Si1VL       1       2.1    28.086
   27098      st       1    MUSC   Si1VM       1       2.1    28.086
   27099      st       1    MUSC   Si1VN       1       2.1    28.086
   27100      st       1    MUSC   Si1VO       1       2.1    28.086
   27101      st       1    MUSC   Si1VP       1       2.1    28.086
   27102      st       1    MUSC   Si1VQ       1       2.1    28.086
   27103      ob       1    MUSC   O04VV       1     -1.05    15.999
   27104      ob       1    MUSC   O04VW       1     -1.05    15.999
   27105      ob       1    MUSC   O04VX       1     -1.05    15.999
   27106      ob       1    MUSC   O04VY       1     -1.05    15.999
   27107      oh       1    MUSC   O04VZ       1     -0.95    15.999
   27108      oh       1    MUSC   O04Va       1     -0.95    15.999
   27109      oh       1    MUSC   O04Vb       1     -0.95    15.999
   27110      oh       1    MUSC   O04Vc       1     -0.95    15.999
   27111      ob       1    MUSC   O04Vd       1     -1.05    15.999
   27112      ob       1    MUSC   O04Ve       1     -1.05    15.999
   27113      ob       1    MUSC   O04Vf       1     -1.05    15.999
   27114      ob       1    MUSC   O04Vg       1     -1.05    15.999
   27115      ob       1    MUSC   O04Vh       1     -1.05    15.999
   27116      ob       1    MUSC   O04Vi       1     -1.05    15.999
   27117      ob       1    MUSC   O04Vj       1     -1.05    15.999
   27118      ob       1    MUSC   O04Vk       1     -1.05    15.999
   27119      ob       1    MUSC   O04Vl       1     -1.05    15.999
   27120      ob       1    MUSC   O04Vm       1     -1.05    15.999
   27121      ob       1    MUSC   O04Vn       1     -1.05    15.999
   27122      ob       1    MUSC   O04Vo       1     -1.05    15.999
   27123      ob       1    MUSC   O04Vp       1     -1.05    15.999
   27124      ob       1    MUSC   O04Vq       1     -1.05    15.999
   27125      ob       1    MUSC   O04Vr       1     -1.05    15.999
   27126      ob       1    MUSC   O04Vs       1     -1.05    15.999
   27127      ob       1    MUSC   O04Vt       1     -1.05    15.999
   27128      ob       1    MUSC   O04Vu       1     -1.05    15.999
   27129      ob       1    MUSC   O04Vv       1     -1.05    15.999
   27130      ob       1    MUSC   O04Vw       1     -1.05    15.999
   27131      oh       1    MUSC   O04Vx       1     -0.95    15.999
   27132      oh       1    MUSC   O04Vy       1     -0.95    15.999
   27133      oh       1    MUSC   O04Vz       1     -0.95    15.999
   27134      oh       1    MUSC   O04W0       1     -0.95    15.999
   27135      ob       1    MUSC   O04W1       1     -1.05    15.999
   27136      ob       1    MUSC   O04W2       1     -1.05    15.999
   27137      ob       1    MUSC   O04W3       1     -1.05    15.999
   27138      ob       1    MUSC   O04W4       1     -1.05    15.999
   27139      ob       1    MUSC   O04W5       1     -1.05    15.999
   27140      ob       1    MUSC   O04W6       1     -1.05    15.999
   27141      ob       1    MUSC   O04W7       1     -1.05    15.999
   27142      ob       1    MUSC   O04W8       1     -1.05    15.999
   27143      ob       1    MUSC   O04W9       1     -1.05    15.999
   27144      ob       1    MUSC   O04WA       1     -1.05    15.999
   27145      ob       1    MUSC   O04WB       1     -1.05    15.999
   27146      ob       1    MUSC   O04WC       1     -1.05    15.999
   27147      ob       1    MUSC   O04WD       1     -1.05    15.999
   27148      ob       1    MUSC   O04WE       1     -1.05    15.999
   27149      ob       1    MUSC   O04WF       1     -1.05    15.999
   27150      ob       1    MUSC   O04WG       1     -1.05    15.999
   27151       K       1    MUSC   K00HX       1       1.0    39.098
   27152       K       1    MUSC   K00HY       1       1.0    39.098
   27153      ao       1    MUSC   Al0kj       1     1.575    26.982
   27154      ao       1    MUSC   Al0kk       1     1.575    26.982
   27155      ao       1    MUSC   Al0kl       1     1.575    26.982
   27156      ao       1    MUSC   Al0km       1     1.575    26.982
   27157      ao       1    MUSC   Al0kn       1     1.575    26.982
   27158      ao       1    MUSC   Al0ko       1     1.575    26.982
   27159      ao       1    MUSC   Al0kp       1     1.575    26.982
   27160      ao       1    MUSC   Al0kq       1     1.575    26.982
   27161      st       1    MUSC   Si1VR       1       2.1    28.086
   27162      st       1    MUSC   Si1VS       1       2.1    28.086
   27163      st       1    MUSC   Si1VT       1       2.1    28.086
   27164      st       1    MUSC   Si1VU       1       2.1    28.086
   27165      st       1    MUSC   Si1VV       1       2.1    28.086
   27166      st       1    MUSC   Si1VW       1       2.1    28.086
   27167      st       1    MUSC   Si1VX       1       2.1    28.086
   27168      st       1    MUSC   Si1VY       1       2.1    28.086
   27169      st       1    MUSC   Si1VZ       1       2.1    28.086
   27170      st       1    MUSC   Si1Va       1       2.1    28.086
   27171      st       1    MUSC   Si1Vb       1       2.1    28.086
   27172      st       1    MUSC   Si1Vc       1       2.1    28.086
   27173      st       1    MUSC   Si1Vd       1       2.1    28.086
   27174      st       1    MUSC   Si1Ve       1       2.1    28.086
   27175      st       1    MUSC   Si1Vf       1       2.1    28.086
   27176      st       1    MUSC   Si1Vg       1       2.1    28.086
   27177      ob       1    MUSC   O04WH       1     -1.05    15.999
   27178      ob       1    MUSC   O04WI       1     -1.05    15.999
   27179      ob       1    MUSC   O04WJ       1     -1.05    15.999
   27180      ob       1    MUSC   O04WK       1     -1.05    15.999
   27181      oh       1    MUSC   O04WL       1     -0.95    15.999
   27182      oh       1    MUSC   O04WM       1     -0.95    15.999
   27183      oh       1    MUSC   O04WN       1     -0.95    15.999
   27184      oh       1    MUSC   O04WO       1     -0.95    15.999
   27185      ob       1    MUSC   O04WP       1     -1.05    15.999
   27186      ob       1    MUSC   O04WQ       1     -1.05    15.999
   27187      ob       1    MUSC   O04WR       1     -1.05    15.999
   27188      ob       1    MUSC   O04WS       1     -1.05    15.999
   27189      ob       1    MUSC   O04WT       1     -1.05    15.999
   27190      ob       1    MUSC   O04WU       1     -1.05    15.999
   27191      ob       1    MUSC   O04WV       1     -1.05    15.999
   27192      ob       1    MUSC   O04WW       1     -1.05    15.999
   27193      ob       1    MUSC   O04WX       1     -1.05    15.999
   27194      ob       1    MUSC   O04WY       1     -1.05    15.999
   27195      ob       1    MUSC   O04WZ       1     -1.05    15.999
   27196      ob       1    MUSC   O04Wa       1     -1.05    15.999
   27197      ob       1    MUSC   O04Wb       1     -1.05    15.999
   27198      ob       1    MUSC   O04Wc       1     -1.05    15.999
   27199      ob       1    MUSC   O04Wd       1     -1.05    15.999
   27200      ob       1    MUSC   O04We       1     -1.05    15.999
   27201      ob       1    MUSC   O04Wf       1     -1.05    15.999
   27202      ob       1    MUSC   O04Wg       1     -1.05    15.999
   27203      ob       1    MUSC   O04Wh       1     -1.05    15.999
   27204      ob       1    MUSC   O04Wi       1     -1.05    15.999
   27205      oh       1    MUSC   O04Wj       1     -0.95    15.999
   27206      oh       1    MUSC   O04Wk       1     -0.95    15.999
   27207      oh       1    MUSC   O04Wl       1     -0.95    15.999
   27208      oh       1    MUSC   O04Wm       1     -0.95    15.999
   27209      ob       1    MUSC   O04Wn       1     -1.05    15.999
   27210      ob       1    MUSC   O04Wo       1     -1.05    15.999
   27211      ob       1    MUSC   O04Wp       1     -1.05    15.999
   27212      ob       1    MUSC   O04Wq       1     -1.05    15.999
   27213      ob       1    MUSC   O04Wr       1     -1.05    15.999
   27214      ob       1    MUSC   O04Ws       1     -1.05    15.999
   27215      ob       1    MUSC   O04Wt       1     -1.05    15.999
   27216      ob       1    MUSC   O04Wu       1     -1.05    15.999
   27217      ob       1    MUSC   O04Wv       1     -1.05    15.999
   27218      ob       1    MUSC   O04Ww       1     -1.05    15.999
   27219      ob       1    MUSC   O04Wx       1     -1.05    15.999
   27220      ob       1    MUSC   O04Wy       1     -1.05    15.999
   27221      ob       1    MUSC   O04Wz       1     -1.05    15.999
   27222      ob       1    MUSC   O04X0       1     -1.05    15.999
   27223      ob       1    MUSC   O04X1       1     -1.05    15.999
   27224      ob       1    MUSC   O04X2       1     -1.05    15.999
   27225       K       1    MUSC   K00HZ       1       1.0    39.098
   27226       K       1    MUSC   K00Ha       1       1.0    39.098
   27227       K       1    MUSC   K00Hb       1       1.0    39.098
   27228       K       1    MUSC   K00Hc       1       1.0    39.098
   27229      ao       1    MUSC   Al0kr       1     1.575    26.982
   27230      ao       1    MUSC   Al0ks       1     1.575    26.982
   27231      ao       1    MUSC   Al0kt       1     1.575    26.982
   27232      ao       1    MUSC   Al0ku       1     1.575    26.982
   27233      ao       1    MUSC   Al0kv       1     1.575    26.982
   27234      ao       1    MUSC   Al0kw       1     1.575    26.982
   27235      ao       1    MUSC   Al0kx       1     1.575    26.982
   27236      ao       1    MUSC   Al0ky       1     1.575    26.982
   27237      st       1    MUSC   Si1Vh       1       2.1    28.086
   27238      st       1    MUSC   Si1Vi       1       2.1    28.086
   27239      st       1    MUSC   Si1Vj       1       2.1    28.086
   27240      st       1    MUSC   Si1Vk       1       2.1    28.086
   27241      st       1    MUSC   Si1Vl       1       2.1    28.086
   27242      st       1    MUSC   Si1Vm       1       2.1    28.086
   27243      st       1    MUSC   Si1Vn       1       2.1    28.086
   27244      st       1    MUSC   Si1Vo       1       2.1    28.086
   27245      st       1    MUSC   Si1Vp       1       2.1    28.086
   27246      st       1    MUSC   Si1Vq       1       2.1    28.086
   27247      st       1    MUSC   Si1Vr       1       2.1    28.086
   27248      st       1    MUSC   Si1Vs       1       2.1    28.086
   27249      st       1    MUSC   Si1Vt       1       2.1    28.086
   27250      st       1    MUSC   Si1Vu       1       2.1    28.086
   27251      st       1    MUSC   Si1Vv       1       2.1    28.086
   27252      st       1    MUSC   Si1Vw       1       2.1    28.086
   27253      ob       1    MUSC   O04X3       1     -1.05    15.999
   27254      ob       1    MUSC   O04X4       1     -1.05    15.999
   27255      ob       1    MUSC   O04X5       1     -1.05    15.999
   27256      ob       1    MUSC   O04X6       1     -1.05    15.999
   27257      oh       1    MUSC   O04X7       1     -0.95    15.999
   27258      oh       1    MUSC   O04X8       1     -0.95    15.999
   27259      oh       1    MUSC   O04X9       1     -0.95    15.999
   27260      oh       1    MUSC   O04XA       1     -0.95    15.999
   27261      ob       1    MUSC   O04XB       1     -1.05    15.999
   27262      ob       1    MUSC   O04XC       1     -1.05    15.999
   27263      ob       1    MUSC   O04XD       1     -1.05    15.999
   27264      ob       1    MUSC   O04XE       1     -1.05    15.999
   27265      ob       1    MUSC   O04XF       1     -1.05    15.999
   27266      ob       1    MUSC   O04XG       1     -1.05    15.999
   27267      ob       1    MUSC   O04XH       1     -1.05    15.999
   27268      ob       1    MUSC   O04XI       1     -1.05    15.999
   27269      ob       1    MUSC   O04XJ       1     -1.05    15.999
   27270      ob       1    MUSC   O04XK       1     -1.05    15.999
   27271      ob       1    MUSC   O04XL       1     -1.05    15.999
   27272      ob       1    MUSC   O04XM       1     -1.05    15.999
   27273      ob       1    MUSC   O04XN       1     -1.05    15.999
   27274      ob       1    MUSC   O04XO       1     -1.05    15.999
   27275      ob       1    MUSC   O04XP       1     -1.05    15.999
   27276      ob       1    MUSC   O04XQ       1     -1.05    15.999
   27277      ob       1    MUSC   O04XR       1     -1.05    15.999
   27278      ob       1    MUSC   O04XS       1     -1.05    15.999
   27279      ob       1    MUSC   O04XT       1     -1.05    15.999
   27280      ob       1    MUSC   O04XU       1     -1.05    15.999
   27281      oh       1    MUSC   O04XV       1     -0.95    15.999
   27282      oh       1    MUSC   O04XW       1     -0.95    15.999
   27283      oh       1    MUSC   O04XX       1     -0.95    15.999
   27284      oh       1    MUSC   O04XY       1     -0.95    15.999
   27285      ob       1    MUSC   O04XZ       1     -1.05    15.999
   27286      ob       1    MUSC   O04Xa       1     -1.05    15.999
   27287      ob       1    MUSC   O04Xb       1     -1.05    15.999
   27288      ob       1    MUSC   O04Xc       1     -1.05    15.999
   27289      ob       1    MUSC   O04Xd       1     -1.05    15.999
   27290      ob       1    MUSC   O04Xe       1     -1.05    15.999
   27291      ob       1    MUSC   O04Xf       1     -1.05    15.999
   27292      ob       1    MUSC   O04Xg       1     -1.05    15.999
   27293      ob       1    MUSC   O04Xh       1     -1.05    15.999
   27294      ob       1    MUSC   O04Xi       1     -1.05    15.999
   27295      ob       1    MUSC   O04Xj       1     -1.05    15.999
   27296      ob       1    MUSC   O04Xk       1     -1.05    15.999
   27297      ob       1    MUSC   O04Xl       1     -1.05    15.999
   27298      ob       1    MUSC   O04Xm       1     -1.05    15.999
   27299      ob       1    MUSC   O04Xn       1     -1.05    15.999
   27300      ob       1    MUSC   O04Xo       1     -1.05    15.999
   27301       K       1    MUSC   K00Hd       1       1.0    39.098
   27302       K       1    MUSC   K00He       1       1.0    39.098
   27303      ao       1    MUSC   Al0kz       1     1.575    26.982
   27304      ao       1    MUSC   Al0l0       1     1.575    26.982
   27305      ao       1    MUSC   Al0l1       1     1.575    26.982
   27306      ao       1    MUSC   Al0l2       1     1.575    26.982
   27307      ao       1    MUSC   Al0l3       1     1.575    26.982
   27308      ao       1    MUSC   Al0l4       1     1.575    26.982
   27309      ao       1    MUSC   Al0l5       1     1.575    26.982
   27310      ao       1    MUSC   Al0l6       1     1.575    26.982
   27311      st       1    MUSC   Si1Vx       1       2.1    28.086
   27312      st       1    MUSC   Si1Vy       1       2.1    28.086
   27313      st       1    MUSC   Si1Vz       1       2.1    28.086
   27314      st       1    MUSC   Si1W0       1       2.1    28.086
   27315      st       1    MUSC   Si1W1       1       2.1    28.086
   27316      st       1    MUSC   Si1W2       1       2.1    28.086
   27317      st       1    MUSC   Si1W3       1       2.1    28.086
   27318      st       1    MUSC   Si1W4       1       2.1    28.086
   27319      st       1    MUSC   Si1W5       1       2.1    28.086
   27320      st       1    MUSC   Si1W6       1       2.1    28.086
   27321      st       1    MUSC   Si1W7       1       2.1    28.086
   27322      st       1    MUSC   Si1W8       1       2.1    28.086
   27323      st       1    MUSC   Si1W9       1       2.1    28.086
   27324      st       1    MUSC   Si1WA       1       2.1    28.086
   27325      st       1    MUSC   Si1WB       1       2.1    28.086
   27326      st       1    MUSC   Si1WC       1       2.1    28.086
   27327      ob       1    MUSC   O04Xp       1     -1.05    15.999
   27328      ob       1    MUSC   O04Xq       1     -1.05    15.999
   27329      ob       1    MUSC   O04Xr       1     -1.05    15.999
   27330      ob       1    MUSC   O04Xs       1     -1.05    15.999
   27331      oh       1    MUSC   O04Xt       1     -0.95    15.999
   27332      oh       1    MUSC   O04Xu       1     -0.95    15.999
   27333      oh       1    MUSC   O04Xv       1     -0.95    15.999
   27334      oh       1    MUSC   O04Xw       1     -0.95    15.999
   27335      ob       1    MUSC   O04Xx       1     -1.05    15.999
   27336      ob       1    MUSC   O04Xy       1     -1.05    15.999
   27337      ob       1    MUSC   O04Xz       1     -1.05    15.999
   27338      ob       1    MUSC   O04Y0       1     -1.05    15.999
   27339      ob       1    MUSC   O04Y1       1     -1.05    15.999
   27340      ob       1    MUSC   O04Y2       1     -1.05    15.999
   27341      ob       1    MUSC   O04Y3       1     -1.05    15.999
   27342      ob       1    MUSC   O04Y4       1     -1.05    15.999
   27343      ob       1    MUSC   O04Y5       1     -1.05    15.999
   27344      ob       1    MUSC   O04Y6       1     -1.05    15.999
   27345      ob       1    MUSC   O04Y7       1     -1.05    15.999
   27346      ob       1    MUSC   O04Y8       1     -1.05    15.999
   27347      ob       1    MUSC   O04Y9       1     -1.05    15.999
   27348      ob       1    MUSC   O04YA       1     -1.05    15.999
   27349      ob       1    MUSC   O04YB       1     -1.05    15.999
   27350      ob       1    MUSC   O04YC       1     -1.05    15.999
   27351      ob       1    MUSC   O04YD       1     -1.05    15.999
   27352      ob       1    MUSC   O04YE       1     -1.05    15.999
   27353      ob       1    MUSC   O04YF       1     -1.05    15.999
   27354      ob       1    MUSC   O04YG       1     -1.05    15.999
   27355      oh       1    MUSC   O04YH       1     -0.95    15.999
   27356      oh       1    MUSC   O04YI       1     -0.95    15.999
   27357      oh       1    MUSC   O04YJ       1     -0.95    15.999
   27358      oh       1    MUSC   O04YK       1     -0.95    15.999
   27359      ob       1    MUSC   O04YL       1     -1.05    15.999
   27360      ob       1    MUSC   O04YM       1     -1.05    15.999
   27361      ob       1    MUSC   O04YN       1     -1.05    15.999
   27362      ob       1    MUSC   O04YO       1     -1.05    15.999
   27363      ob       1    MUSC   O04YP       1     -1.05    15.999
   27364      ob       1    MUSC   O04YQ       1     -1.05    15.999
   27365      ob       1    MUSC   O04YR       1     -1.05    15.999
   27366      ob       1    MUSC   O04YS       1     -1.05    15.999
   27367      ob       1    MUSC   O04YT       1     -1.05    15.999
   27368      ob       1    MUSC   O04YU       1     -1.05    15.999
   27369      ob       1    MUSC   O04YV       1     -1.05    15.999
   27370      ob       1    MUSC   O04YW       1     -1.05    15.999
   27371      ob       1    MUSC   O04YX       1     -1.05    15.999
   27372      ob       1    MUSC   O04YY       1     -1.05    15.999
   27373      ob       1    MUSC   O04YZ       1     -1.05    15.999
   27374      ob       1    MUSC   O04Ya       1     -1.05    15.999
   27375       K       1    MUSC   K00Hf       1       1.0    39.098
   27376       K       1    MUSC   K00Hg       1       1.0    39.098
   27377       K       1    MUSC   K00Hh       1       1.0    39.098
   27378       K       1    MUSC   K00Hi       1       1.0    39.098
   27379      ao       1    MUSC   Al0l7       1     1.575    26.982
   27380      ao       1    MUSC   Al0l8       1     1.575    26.982
   27381      ao       1    MUSC   Al0l9       1     1.575    26.982
   27382      ao       1    MUSC   Al0lA       1     1.575    26.982
   27383      ao       1    MUSC   Al0lB       1     1.575    26.982
   27384      ao       1    MUSC   Al0lC       1     1.575    26.982
   27385      ao       1    MUSC   Al0lD       1     1.575    26.982
   27386      ao       1    MUSC   Al0lE       1     1.575    26.982
   27387      st       1    MUSC   Si1WD       1       2.1    28.086
   27388      st       1    MUSC   Si1WE       1       2.1    28.086
   27389      st       1    MUSC   Si1WF       1       2.1    28.086
   27390      st       1    MUSC   Si1WG       1       2.1    28.086
   27391      st       1    MUSC   Si1WH       1       2.1    28.086
   27392      st       1    MUSC   Si1WI       1       2.1    28.086
   27393      st       1    MUSC   Si1WJ       1       2.1    28.086
   27394      st       1    MUSC   Si1WK       1       2.1    28.086
   27395      st       1    MUSC   Si1WL       1       2.1    28.086
   27396      st       1    MUSC   Si1WM       1       2.1    28.086
   27397      st       1    MUSC   Si1WN       1       2.1    28.086
   27398      st       1    MUSC   Si1WO       1       2.1    28.086
   27399      st       1    MUSC   Si1WP       1       2.1    28.086
   27400      st       1    MUSC   Si1WQ       1       2.1    28.086
   27401      st       1    MUSC   Si1WR       1       2.1    28.086
   27402      st       1    MUSC   Si1WS       1       2.1    28.086
   27403      ob       1    MUSC   O04Yb       1     -1.05    15.999
   27404      ob       1    MUSC   O04Yc       1     -1.05    15.999
   27405      ob       1    MUSC   O04Yd       1     -1.05    15.999
   27406      ob       1    MUSC   O04Ye       1     -1.05    15.999
   27407      oh       1    MUSC   O04Yf       1     -0.95    15.999
   27408      oh       1    MUSC   O04Yg       1     -0.95    15.999
   27409      oh       1    MUSC   O04Yh       1     -0.95    15.999
   27410      oh       1    MUSC   O04Yi       1     -0.95    15.999
   27411      ob       1    MUSC   O04Yj       1     -1.05    15.999
   27412      ob       1    MUSC   O04Yk       1     -1.05    15.999
   27413      ob       1    MUSC   O04Yl       1     -1.05    15.999
   27414      ob       1    MUSC   O04Ym       1     -1.05    15.999
   27415      ob       1    MUSC   O04Yn       1     -1.05    15.999
   27416      ob       1    MUSC   O04Yo       1     -1.05    15.999
   27417      ob       1    MUSC   O04Yp       1     -1.05    15.999
   27418      ob       1    MUSC   O04Yq       1     -1.05    15.999
   27419      ob       1    MUSC   O04Yr       1     -1.05    15.999
   27420      ob       1    MUSC   O04Ys       1     -1.05    15.999
   27421      ob       1    MUSC   O04Yt       1     -1.05    15.999
   27422      ob       1    MUSC   O04Yu       1     -1.05    15.999
   27423      ob       1    MUSC   O04Yv       1     -1.05    15.999
   27424      ob       1    MUSC   O04Yw       1     -1.05    15.999
   27425      ob       1    MUSC   O04Yx       1     -1.05    15.999
   27426      ob       1    MUSC   O04Yy       1     -1.05    15.999
   27427      ob       1    MUSC   O04Yz       1     -1.05    15.999
   27428      ob       1    MUSC   O04Z0       1     -1.05    15.999
   27429      ob       1    MUSC   O04Z1       1     -1.05    15.999
   27430      ob       1    MUSC   O04Z2       1     -1.05    15.999
   27431      oh       1    MUSC   O04Z3       1     -0.95    15.999
   27432      oh       1    MUSC   O04Z4       1     -0.95    15.999
   27433      oh       1    MUSC   O04Z5       1     -0.95    15.999
   27434      oh       1    MUSC   O04Z6       1     -0.95    15.999
   27435      ob       1    MUSC   O04Z7       1     -1.05    15.999
   27436      ob       1    MUSC   O04Z8       1     -1.05    15.999
   27437      ob       1    MUSC   O04Z9       1     -1.05    15.999
   27438      ob       1    MUSC   O04ZA       1     -1.05    15.999
   27439      ob       1    MUSC   O04ZB       1     -1.05    15.999
   27440      ob       1    MUSC   O04ZC       1     -1.05    15.999
   27441      ob       1    MUSC   O04ZD       1     -1.05    15.999
   27442      ob       1    MUSC   O04ZE       1     -1.05    15.999
   27443      ob       1    MUSC   O04ZF       1     -1.05    15.999
   27444      ob       1    MUSC   O04ZG       1     -1.05    15.999
   27445      ob       1    MUSC   O04ZH       1     -1.05    15.999
   27446      ob       1    MUSC   O04ZI       1     -1.05    15.999
   27447      ob       1    MUSC   O04ZJ       1     -1.05    15.999
   27448      ob       1    MUSC   O04ZK       1     -1.05    15.999
   27449      ob       1    MUSC   O04ZL       1     -1.05    15.999
   27450      ob       1    MUSC   O04ZM       1     -1.05    15.999
   27451       K       1    MUSC   K00Hj       1       1.0    39.098
   27452       K       1    MUSC   K00Hk       1       1.0    39.098
   27453      ao       1    MUSC   Al0lF       1     1.575    26.982
   27454      ao       1    MUSC   Al0lG       1     1.575    26.982
   27455      ao       1    MUSC   Al0lH       1     1.575    26.982
   27456      ao       1    MUSC   Al0lI       1     1.575    26.982
   27457      ao       1    MUSC   Al0lJ       1     1.575    26.982
   27458      ao       1    MUSC   Al0lK       1     1.575    26.982
   27459      ao       1    MUSC   Al0lL       1     1.575    26.982
   27460      ao       1    MUSC   Al0lM       1     1.575    26.982
   27461      st       1    MUSC   Si1WT       1       2.1    28.086
   27462      st       1    MUSC   Si1WU       1       2.1    28.086
   27463      st       1    MUSC   Si1WV       1       2.1    28.086
   27464      st       1    MUSC   Si1WW       1       2.1    28.086
   27465      st       1    MUSC   Si1WX       1       2.1    28.086
   27466      st       1    MUSC   Si1WY       1       2.1    28.086
   27467      st       1    MUSC   Si1WZ       1       2.1    28.086
   27468      st       1    MUSC   Si1Wa       1       2.1    28.086
   27469      st       1    MUSC   Si1Wb       1       2.1    28.086
   27470      st       1    MUSC   Si1Wc       1       2.1    28.086
   27471      st       1    MUSC   Si1Wd       1       2.1    28.086
   27472      st       1    MUSC   Si1We       1       2.1    28.086
   27473      st       1    MUSC   Si1Wf       1       2.1    28.086
   27474      st       1    MUSC   Si1Wg       1       2.1    28.086
   27475      st       1    MUSC   Si1Wh       1       2.1    28.086
   27476      st       1    MUSC   Si1Wi       1       2.1    28.086
   27477      ob       1    MUSC   O04ZN       1     -1.05    15.999
   27478      ob       1    MUSC   O04ZO       1     -1.05    15.999
   27479      ob       1    MUSC   O04ZP       1     -1.05    15.999
   27480      ob       1    MUSC   O04ZQ       1     -1.05    15.999
   27481      oh       1    MUSC   O04ZR       1     -0.95    15.999
   27482      oh       1    MUSC   O04ZS       1     -0.95    15.999
   27483      oh       1    MUSC   O04ZT       1     -0.95    15.999
   27484      oh       1    MUSC   O04ZU       1     -0.95    15.999
   27485      ob       1    MUSC   O04ZV       1     -1.05    15.999
   27486      ob       1    MUSC   O04ZW       1     -1.05    15.999
   27487      ob       1    MUSC   O04ZX       1     -1.05    15.999
   27488      ob       1    MUSC   O04ZY       1     -1.05    15.999
   27489      ob       1    MUSC   O04ZZ       1     -1.05    15.999
   27490      ob       1    MUSC   O04Za       1     -1.05    15.999
   27491      ob       1    MUSC   O04Zb       1     -1.05    15.999
   27492      ob       1    MUSC   O04Zc       1     -1.05    15.999
   27493      ob       1    MUSC   O04Zd       1     -1.05    15.999
   27494      ob       1    MUSC   O04Ze       1     -1.05    15.999
   27495      ob       1    MUSC   O04Zf       1     -1.05    15.999
   27496      ob       1    MUSC   O04Zg       1     -1.05    15.999
   27497      ob       1    MUSC   O04Zh       1     -1.05    15.999
   27498      ob       1    MUSC   O04Zi       1     -1.05    15.999
   27499      ob       1    MUSC   O04Zj       1     -1.05    15.999
   27500      ob       1    MUSC   O04Zk       1     -1.05    15.999
   27501      ob       1    MUSC   O04Zl       1     -1.05    15.999
   27502      ob       1    MUSC   O04Zm       1     -1.05    15.999
   27503      ob       1    MUSC   O04Zn       1     -1.05    15.999
   27504      ob       1    MUSC   O04Zo       1     -1.05    15.999
   27505      oh       1    MUSC   O04Zp       1     -0.95    15.999
   27506      oh       1    MUSC   O04Zq       1     -0.95    15.999
   27507      oh       1    MUSC   O04Zr       1     -0.95    15.999
   27508      oh       1    MUSC   O04Zs       1     -0.95    15.999
   27509      ob       1    MUSC   O04Zt       1     -1.05    15.999
   27510      ob       1    MUSC   O04Zu       1     -1.05    15.999
   27511      ob       1    MUSC   O04Zv       1     -1.05    15.999
   27512      ob       1    MUSC   O04Zw       1     -1.05    15.999
   27513      ob       1    MUSC   O04Zx       1     -1.05    15.999
   27514      ob       1    MUSC   O04Zy       1     -1.05    15.999
   27515      ob       1    MUSC   O04Zz       1     -1.05    15.999
   27516      ob       1    MUSC   O04a0       1     -1.05    15.999
   27517      ob       1    MUSC   O04a1       1     -1.05    15.999
   27518      ob       1    MUSC   O04a2       1     -1.05    15.999
   27519      ob       1    MUSC   O04a3       1     -1.05    15.999
   27520      ob       1    MUSC   O04a4       1     -1.05    15.999
   27521      ob       1    MUSC   O04a5       1     -1.05    15.999
   27522      ob       1    MUSC   O04a6       1     -1.05    15.999
   27523      ob       1    MUSC   O04a7       1     -1.05    15.999
   27524      ob       1    MUSC   O04a8       1     -1.05    15.999
   27525       K       1    MUSC   K00Hl       1       1.0    39.098
   27526       K       1    MUSC   K00Hm       1       1.0    39.098
   27527       K       1    MUSC   K00Hn       1       1.0    39.098
   27528       K       1    MUSC   K00Ho       1       1.0    39.098
   27529      ao       1    MUSC   Al0lN       1     1.575    26.982
   27530      ao       1    MUSC   Al0lO       1     1.575    26.982
   27531      ao       1    MUSC   Al0lP       1     1.575    26.982
   27532      ao       1    MUSC   Al0lQ       1     1.575    26.982
   27533      ao       1    MUSC   Al0lR       1     1.575    26.982
   27534      ao       1    MUSC   Al0lS       1     1.575    26.982
   27535      ao       1    MUSC   Al0lT       1     1.575    26.982
   27536      ao       1    MUSC   Al0lU       1     1.575    26.982
   27537      st       1    MUSC   Si1Wj       1       2.1    28.086
   27538      st       1    MUSC   Si1Wk       1       2.1    28.086
   27539      st       1    MUSC   Si1Wl       1       2.1    28.086
   27540      st       1    MUSC   Si1Wm       1       2.1    28.086
   27541      st       1    MUSC   Si1Wn       1       2.1    28.086
   27542      st       1    MUSC   Si1Wo       1       2.1    28.086
   27543      st       1    MUSC   Si1Wp       1       2.1    28.086
   27544      st       1    MUSC   Si1Wq       1       2.1    28.086
   27545      st       1    MUSC   Si1Wr       1       2.1    28.086
   27546      st       1    MUSC   Si1Ws       1       2.1    28.086
   27547      st       1    MUSC   Si1Wt       1       2.1    28.086
   27548      st       1    MUSC   Si1Wu       1       2.1    28.086
   27549      st       1    MUSC   Si1Wv       1       2.1    28.086
   27550      st       1    MUSC   Si1Ww       1       2.1    28.086
   27551      st       1    MUSC   Si1Wx       1       2.1    28.086
   27552      st       1    MUSC   Si1Wy       1       2.1    28.086
   27553      ob       1    MUSC   O04a9       1     -1.05    15.999
   27554      ob       1    MUSC   O04aA       1     -1.05    15.999
   27555      ob       1    MUSC   O04aB       1     -1.05    15.999
   27556      ob       1    MUSC   O04aC       1     -1.05    15.999
   27557      oh       1    MUSC   O04aD       1     -0.95    15.999
   27558      oh       1    MUSC   O04aE       1     -0.95    15.999
   27559      oh       1    MUSC   O04aF       1     -0.95    15.999
   27560      oh       1    MUSC   O04aG       1     -0.95    15.999
   27561      ob       1    MUSC   O04aH       1     -1.05    15.999
   27562      ob       1    MUSC   O04aI       1     -1.05    15.999
   27563      ob       1    MUSC   O04aJ       1     -1.05    15.999
   27564      ob       1    MUSC   O04aK       1     -1.05    15.999
   27565      ob       1    MUSC   O04aL       1     -1.05    15.999
   27566      ob       1    MUSC   O04aM       1     -1.05    15.999
   27567      ob       1    MUSC   O04aN       1     -1.05    15.999
   27568      ob       1    MUSC   O04aO       1     -1.05    15.999
   27569      ob       1    MUSC   O04aP       1     -1.05    15.999
   27570      ob       1    MUSC   O04aQ       1     -1.05    15.999
   27571      ob       1    MUSC   O04aR       1     -1.05    15.999
   27572      ob       1    MUSC   O04aS       1     -1.05    15.999
   27573      ob       1    MUSC   O04aT       1     -1.05    15.999
   27574      ob       1    MUSC   O04aU       1     -1.05    15.999
   27575      ob       1    MUSC   O04aV       1     -1.05    15.999
   27576      ob       1    MUSC   O04aW       1     -1.05    15.999
   27577      ob       1    MUSC   O04aX       1     -1.05    15.999
   27578      ob       1    MUSC   O04aY       1     -1.05    15.999
   27579      ob       1    MUSC   O04aZ       1     -1.05    15.999
   27580      ob       1    MUSC   O04aa       1     -1.05    15.999
   27581      oh       1    MUSC   O04ab       1     -0.95    15.999
   27582      oh       1    MUSC   O04ac       1     -0.95    15.999
   27583      oh       1    MUSC   O04ad       1     -0.95    15.999
   27584      oh       1    MUSC   O04ae       1     -0.95    15.999
   27585      ob       1    MUSC   O04af       1     -1.05    15.999
   27586      ob       1    MUSC   O04ag       1     -1.05    15.999
   27587      ob       1    MUSC   O04ah       1     -1.05    15.999
   27588      ob       1    MUSC   O04ai       1     -1.05    15.999
   27589      ob       1    MUSC   O04aj       1     -1.05    15.999
   27590      ob       1    MUSC   O04ak       1     -1.05    15.999
   27591      ob       1    MUSC   O04al       1     -1.05    15.999
   27592      ob       1    MUSC   O04am       1     -1.05    15.999
   27593      ob       1    MUSC   O04an       1     -1.05    15.999
   27594      ob       1    MUSC   O04ao       1     -1.05    15.999
   27595      ob       1    MUSC   O04ap       1     -1.05    15.999
   27596      ob       1    MUSC   O04aq       1     -1.05    15.999
   27597      ob       1    MUSC   O04ar       1     -1.05    15.999
   27598      ob       1    MUSC   O04as       1     -1.05    15.999
   27599      ob       1    MUSC   O04at       1     -1.05    15.999
   27600      ob       1    MUSC   O04au       1     -1.05    15.999
   27601       K       1    MUSC   K00Hp       1       1.0    39.098
   27602       K       1    MUSC   K00Hq       1       1.0    39.098
   27603      ao       1    MUSC   Al0lV       1     1.575    26.982
   27604      ao       1    MUSC   Al0lW       1     1.575    26.982
   27605      ao       1    MUSC   Al0lX       1     1.575    26.982
   27606      ao       1    MUSC   Al0lY       1     1.575    26.982
   27607      ao       1    MUSC   Al0lZ       1     1.575    26.982
   27608      ao       1    MUSC   Al0la       1     1.575    26.982
   27609      ao       1    MUSC   Al0lb       1     1.575    26.982
   27610      ao       1    MUSC   Al0lc       1     1.575    26.982
   27611      st       1    MUSC   Si1Wz       1       2.1    28.086
   27612      st       1    MUSC   Si1X0       1       2.1    28.086
   27613      st       1    MUSC   Si1X1       1       2.1    28.086
   27614      st       1    MUSC   Si1X2       1       2.1    28.086
   27615      st       1    MUSC   Si1X3       1       2.1    28.086
   27616      st       1    MUSC   Si1X4       1       2.1    28.086
   27617      st       1    MUSC   Si1X5       1       2.1    28.086
   27618      st       1    MUSC   Si1X6       1       2.1    28.086
   27619      st       1    MUSC   Si1X7       1       2.1    28.086
   27620      st       1    MUSC   Si1X8       1       2.1    28.086
   27621      st       1    MUSC   Si1X9       1       2.1    28.086
   27622      st       1    MUSC   Si1XA       1       2.1    28.086
   27623      st       1    MUSC   Si1XB       1       2.1    28.086
   27624      st       1    MUSC   Si1XC       1       2.1    28.086
   27625      st       1    MUSC   Si1XD       1       2.1    28.086
   27626      st       1    MUSC   Si1XE       1       2.1    28.086
   27627      ob       1    MUSC   O04av       1     -1.05    15.999
   27628      ob       1    MUSC   O04aw       1     -1.05    15.999
   27629      ob       1    MUSC   O04ax       1     -1.05    15.999
   27630      ob       1    MUSC   O04ay       1     -1.05    15.999
   27631      oh       1    MUSC   O04az       1     -0.95    15.999
   27632      oh       1    MUSC   O04b0       1     -0.95    15.999
   27633      oh       1    MUSC   O04b1       1     -0.95    15.999
   27634      oh       1    MUSC   O04b2       1     -0.95    15.999
   27635      ob       1    MUSC   O04b3       1     -1.05    15.999
   27636      ob       1    MUSC   O04b4       1     -1.05    15.999
   27637      ob       1    MUSC   O04b5       1     -1.05    15.999
   27638      ob       1    MUSC   O04b6       1     -1.05    15.999
   27639      ob       1    MUSC   O04b7       1     -1.05    15.999
   27640      ob       1    MUSC   O04b8       1     -1.05    15.999
   27641      ob       1    MUSC   O04b9       1     -1.05    15.999
   27642      ob       1    MUSC   O04bA       1     -1.05    15.999
   27643      ob       1    MUSC   O04bB       1     -1.05    15.999
   27644      ob       1    MUSC   O04bC       1     -1.05    15.999
   27645      ob       1    MUSC   O04bD       1     -1.05    15.999
   27646      ob       1    MUSC   O04bE       1     -1.05    15.999
   27647      ob       1    MUSC   O04bF       1     -1.05    15.999
   27648      ob       1    MUSC   O04bG       1     -1.05    15.999
   27649      ob       1    MUSC   O04bH       1     -1.05    15.999
   27650      ob       1    MUSC   O04bI       1     -1.05    15.999
   27651      ob       1    MUSC   O04bJ       1     -1.05    15.999
   27652      ob       1    MUSC   O04bK       1     -1.05    15.999
   27653      ob       1    MUSC   O04bL       1     -1.05    15.999
   27654      ob       1    MUSC   O04bM       1     -1.05    15.999
   27655      oh       1    MUSC   O04bN       1     -0.95    15.999
   27656      oh       1    MUSC   O04bO       1     -0.95    15.999
   27657      oh       1    MUSC   O04bP       1     -0.95    15.999
   27658      oh       1    MUSC   O04bQ       1     -0.95    15.999
   27659      ob       1    MUSC   O04bR       1     -1.05    15.999
   27660      ob       1    MUSC   O04bS       1     -1.05    15.999
   27661      ob       1    MUSC   O04bT       1     -1.05    15.999
   27662      ob       1    MUSC   O04bU       1     -1.05    15.999
   27663      ob       1    MUSC   O04bV       1     -1.05    15.999
   27664      ob       1    MUSC   O04bW       1     -1.05    15.999
   27665      ob       1    MUSC   O04bX       1     -1.05    15.999
   27666      ob       1    MUSC   O04bY       1     -1.05    15.999
   27667      ob       1    MUSC   O04bZ       1     -1.05    15.999
   27668      ob       1    MUSC   O04ba       1     -1.05    15.999
   27669      ob       1    MUSC   O04bb       1     -1.05    15.999
   27670      ob       1    MUSC   O04bc       1     -1.05    15.999
   27671      ob       1    MUSC   O04bd       1     -1.05    15.999
   27672      ob       1    MUSC   O04be       1     -1.05    15.999
   27673      ob       1    MUSC   O04bf       1     -1.05    15.999
   27674      ob       1    MUSC   O04bg       1     -1.05    15.999
   27675       K       1    MUSC   K00Hr       1       1.0    39.098
   27676       K       1    MUSC   K00Hs       1       1.0    39.098
   27677       K       1    MUSC   K00Ht       1       1.0    39.098
   27678       K       1    MUSC   K00Hu       1       1.0    39.098
   27679      ao       1    MUSC   Al0ld       1     1.575    26.982
   27680      ao       1    MUSC   Al0le       1     1.575    26.982
   27681      ao       1    MUSC   Al0lf       1     1.575    26.982
   27682      ao       1    MUSC   Al0lg       1     1.575    26.982
   27683      ao       1    MUSC   Al0lh       1     1.575    26.982
   27684      ao       1    MUSC   Al0li       1     1.575    26.982
   27685      ao       1    MUSC   Al0lj       1     1.575    26.982
   27686      ao       1    MUSC   Al0lk       1     1.575    26.982
   27687      st       1    MUSC   Si1XF       1       2.1    28.086
   27688      st       1    MUSC   Si1XG       1       2.1    28.086
   27689      st       1    MUSC   Si1XH       1       2.1    28.086
   27690      st       1    MUSC   Si1XI       1       2.1    28.086
   27691      st       1    MUSC   Si1XJ       1       2.1    28.086
   27692      st       1    MUSC   Si1XK       1       2.1    28.086
   27693      st       1    MUSC   Si1XL       1       2.1    28.086
   27694      st       1    MUSC   Si1XM       1       2.1    28.086
   27695      st       1    MUSC   Si1XN       1       2.1    28.086
   27696      st       1    MUSC   Si1XO       1       2.1    28.086
   27697      st       1    MUSC   Si1XP       1       2.1    28.086
   27698      st       1    MUSC   Si1XQ       1       2.1    28.086
   27699      st       1    MUSC   Si1XR       1       2.1    28.086
   27700      st       1    MUSC   Si1XS       1       2.1    28.086
   27701      st       1    MUSC   Si1XT       1       2.1    28.086
   27702      st       1    MUSC   Si1XU       1       2.1    28.086
   27703      ob       1    MUSC   O04bh       1     -1.05    15.999
   27704      ob       1    MUSC   O04bi       1     -1.05    15.999
   27705      ob       1    MUSC   O04bj       1     -1.05    15.999
   27706      ob       1    MUSC   O04bk       1     -1.05    15.999
   27707      oh       1    MUSC   O04bl       1     -0.95    15.999
   27708      oh       1    MUSC   O04bm       1     -0.95    15.999
   27709      oh       1    MUSC   O04bn       1     -0.95    15.999
   27710      oh       1    MUSC   O04bo       1     -0.95    15.999
   27711      ob       1    MUSC   O04bp       1     -1.05    15.999
   27712      ob       1    MUSC   O04bq       1     -1.05    15.999
   27713      ob       1    MUSC   O04br       1     -1.05    15.999
   27714      ob       1    MUSC   O04bs       1     -1.05    15.999
   27715      ob       1    MUSC   O04bt       1     -1.05    15.999
   27716      ob       1    MUSC   O04bu       1     -1.05    15.999
   27717      ob       1    MUSC   O04bv       1     -1.05    15.999
   27718      ob       1    MUSC   O04bw       1     -1.05    15.999
   27719      ob       1    MUSC   O04bx       1     -1.05    15.999
   27720      ob       1    MUSC   O04by       1     -1.05    15.999
   27721      ob       1    MUSC   O04bz       1     -1.05    15.999
   27722      ob       1    MUSC   O04c0       1     -1.05    15.999
   27723      ob       1    MUSC   O04c1       1     -1.05    15.999
   27724      ob       1    MUSC   O04c2       1     -1.05    15.999
   27725      ob       1    MUSC   O04c3       1     -1.05    15.999
   27726      ob       1    MUSC   O04c4       1     -1.05    15.999
   27727      ob       1    MUSC   O04c5       1     -1.05    15.999
   27728      ob       1    MUSC   O04c6       1     -1.05    15.999
   27729      ob       1    MUSC   O04c7       1     -1.05    15.999
   27730      ob       1    MUSC   O04c8       1     -1.05    15.999
   27731      oh       1    MUSC   O04c9       1     -0.95    15.999
   27732      oh       1    MUSC   O04cA       1     -0.95    15.999
   27733      oh       1    MUSC   O04cB       1     -0.95    15.999
   27734      oh       1    MUSC   O04cC       1     -0.95    15.999
   27735      ob       1    MUSC   O04cD       1     -1.05    15.999
   27736      ob       1    MUSC   O04cE       1     -1.05    15.999
   27737      ob       1    MUSC   O04cF       1     -1.05    15.999
   27738      ob       1    MUSC   O04cG       1     -1.05    15.999
   27739      ob       1    MUSC   O04cH       1     -1.05    15.999
   27740      ob       1    MUSC   O04cI       1     -1.05    15.999
   27741      ob       1    MUSC   O04cJ       1     -1.05    15.999
   27742      ob       1    MUSC   O04cK       1     -1.05    15.999
   27743      ob       1    MUSC   O04cL       1     -1.05    15.999
   27744      ob       1    MUSC   O04cM       1     -1.05    15.999
   27745      ob       1    MUSC   O04cN       1     -1.05    15.999
   27746      ob       1    MUSC   O04cO       1     -1.05    15.999
   27747      ob       1    MUSC   O04cP       1     -1.05    15.999
   27748      ob       1    MUSC   O04cQ       1     -1.05    15.999
   27749      ob       1    MUSC   O04cR       1     -1.05    15.999
   27750      ob       1    MUSC   O04cS       1     -1.05    15.999
   27751       K       1    MUSC   K00Hv       1       1.0    39.098
   27752       K       1    MUSC   K00Hw       1       1.0    39.098
   27753      ao       1    MUSC   Al0ll       1     1.575    26.982
   27754      ao       1    MUSC   Al0lm       1     1.575    26.982
   27755      ao       1    MUSC   Al0ln       1     1.575    26.982
   27756      ao       1    MUSC   Al0lo       1     1.575    26.982
   27757      ao       1    MUSC   Al0lp       1     1.575    26.982
   27758      ao       1    MUSC   Al0lq       1     1.575    26.982
   27759      ao       1    MUSC   Al0lr       1     1.575    26.982
   27760      ao       1    MUSC   Al0ls       1     1.575    26.982
   27761      st       1    MUSC   Si1XV       1       2.1    28.086
   27762      st       1    MUSC   Si1XW       1       2.1    28.086
   27763      st       1    MUSC   Si1XX       1       2.1    28.086
   27764      st       1    MUSC   Si1XY       1       2.1    28.086
   27765      st       1    MUSC   Si1XZ       1       2.1    28.086
   27766      st       1    MUSC   Si1Xa       1       2.1    28.086
   27767      st       1    MUSC   Si1Xb       1       2.1    28.086
   27768      st       1    MUSC   Si1Xc       1       2.1    28.086
   27769      st       1    MUSC   Si1Xd       1       2.1    28.086
   27770      st       1    MUSC   Si1Xe       1       2.1    28.086
   27771      st       1    MUSC   Si1Xf       1       2.1    28.086
   27772      st       1    MUSC   Si1Xg       1       2.1    28.086
   27773      st       1    MUSC   Si1Xh       1       2.1    28.086
   27774      st       1    MUSC   Si1Xi       1       2.1    28.086
   27775      st       1    MUSC   Si1Xj       1       2.1    28.086
   27776      st       1    MUSC   Si1Xk       1       2.1    28.086
   27777      ob       1    MUSC   O04cT       1     -1.05    15.999
   27778      ob       1    MUSC   O04cU       1     -1.05    15.999
   27779      ob       1    MUSC   O04cV       1     -1.05    15.999
   27780      ob       1    MUSC   O04cW       1     -1.05    15.999
   27781      oh       1    MUSC   O04cX       1     -0.95    15.999
   27782      oh       1    MUSC   O04cY       1     -0.95    15.999
   27783      oh       1    MUSC   O04cZ       1     -0.95    15.999
   27784      oh       1    MUSC   O04ca       1     -0.95    15.999
   27785      ob       1    MUSC   O04cb       1     -1.05    15.999
   27786      ob       1    MUSC   O04cc       1     -1.05    15.999
   27787      ob       1    MUSC   O04cd       1     -1.05    15.999
   27788      ob       1    MUSC   O04ce       1     -1.05    15.999
   27789      ob       1    MUSC   O04cf       1     -1.05    15.999
   27790      ob       1    MUSC   O04cg       1     -1.05    15.999
   27791      ob       1    MUSC   O04ch       1     -1.05    15.999
   27792      ob       1    MUSC   O04ci       1     -1.05    15.999
   27793      ob       1    MUSC   O04cj       1     -1.05    15.999
   27794      ob       1    MUSC   O04ck       1     -1.05    15.999
   27795      ob       1    MUSC   O04cl       1     -1.05    15.999
   27796      ob       1    MUSC   O04cm       1     -1.05    15.999
   27797      ob       1    MUSC   O04cn       1     -1.05    15.999
   27798      ob       1    MUSC   O04co       1     -1.05    15.999
   27799      ob       1    MUSC   O04cp       1     -1.05    15.999
   27800      ob       1    MUSC   O04cq       1     -1.05    15.999
   27801      ob       1    MUSC   O04cr       1     -1.05    15.999
   27802      ob       1    MUSC   O04cs       1     -1.05    15.999
   27803      ob       1    MUSC   O04ct       1     -1.05    15.999
   27804      ob       1    MUSC   O04cu       1     -1.05    15.999
   27805      oh       1    MUSC   O04cv       1     -0.95    15.999
   27806      oh       1    MUSC   O04cw       1     -0.95    15.999
   27807      oh       1    MUSC   O04cx       1     -0.95    15.999
   27808      oh       1    MUSC   O04cy       1     -0.95    15.999
   27809      ob       1    MUSC   O04cz       1     -1.05    15.999
   27810      ob       1    MUSC   O04d0       1     -1.05    15.999
   27811      ob       1    MUSC   O04d1       1     -1.05    15.999
   27812      ob       1    MUSC   O04d2       1     -1.05    15.999
   27813      ob       1    MUSC   O04d3       1     -1.05    15.999
   27814      ob       1    MUSC   O04d4       1     -1.05    15.999
   27815      ob       1    MUSC   O04d5       1     -1.05    15.999
   27816      ob       1    MUSC   O04d6       1     -1.05    15.999
   27817      ob       1    MUSC   O04d7       1     -1.05    15.999
   27818      ob       1    MUSC   O04d8       1     -1.05    15.999
   27819      ob       1    MUSC   O04d9       1     -1.05    15.999
   27820      ob       1    MUSC   O04dA       1     -1.05    15.999
   27821      ob       1    MUSC   O04dB       1     -1.05    15.999
   27822      ob       1    MUSC   O04dC       1     -1.05    15.999
   27823      ob       1    MUSC   O04dD       1     -1.05    15.999
   27824      ob       1    MUSC   O04dE       1     -1.05    15.999
   27825       K       1    MUSC   K00Hx       1       1.0    39.098
   27826       K       1    MUSC   K00Hy       1       1.0    39.098
   27827       K       1    MUSC   K00Hz       1       1.0    39.098
   27828       K       1    MUSC   K00I0       1       1.0    39.098
   27829      ao       1    MUSC   Al0lt       1     1.575    26.982
   27830      ao       1    MUSC   Al0lu       1     1.575    26.982
   27831      ao       1    MUSC   Al0lv       1     1.575    26.982
   27832      ao       1    MUSC   Al0lw       1     1.575    26.982
   27833      ao       1    MUSC   Al0lx       1     1.575    26.982
   27834      ao       1    MUSC   Al0ly       1     1.575    26.982
   27835      ao       1    MUSC   Al0lz       1     1.575    26.982
   27836      ao       1    MUSC   Al0m0       1     1.575    26.982
   27837      st       1    MUSC   Si1Xl       1       2.1    28.086
   27838      st       1    MUSC   Si1Xm       1       2.1    28.086
   27839      st       1    MUSC   Si1Xn       1       2.1    28.086
   27840      st       1    MUSC   Si1Xo       1       2.1    28.086
   27841      st       1    MUSC   Si1Xp       1       2.1    28.086
   27842      st       1    MUSC   Si1Xq       1       2.1    28.086
   27843      st       1    MUSC   Si1Xr       1       2.1    28.086
   27844      st       1    MUSC   Si1Xs       1       2.1    28.086
   27845      st       1    MUSC   Si1Xt       1       2.1    28.086
   27846      st       1    MUSC   Si1Xu       1       2.1    28.086
   27847      st       1    MUSC   Si1Xv       1       2.1    28.086
   27848      st       1    MUSC   Si1Xw       1       2.1    28.086
   27849      st       1    MUSC   Si1Xx       1       2.1    28.086
   27850      st       1    MUSC   Si1Xy       1       2.1    28.086
   27851      st       1    MUSC   Si1Xz       1       2.1    28.086
   27852      st       1    MUSC   Si1Y0       1       2.1    28.086
   27853      ob       1    MUSC   O04dF       1     -1.05    15.999
   27854      ob       1    MUSC   O04dG       1     -1.05    15.999
   27855      ob       1    MUSC   O04dH       1     -1.05    15.999
   27856      ob       1    MUSC   O04dI       1     -1.05    15.999
   27857      oh       1    MUSC   O04dJ       1     -0.95    15.999
   27858      oh       1    MUSC   O04dK       1     -0.95    15.999
   27859      oh       1    MUSC   O04dL       1     -0.95    15.999
   27860      oh       1    MUSC   O04dM       1     -0.95    15.999
   27861      ob       1    MUSC   O04dN       1     -1.05    15.999
   27862      ob       1    MUSC   O04dO       1     -1.05    15.999
   27863      ob       1    MUSC   O04dP       1     -1.05    15.999
   27864      ob       1    MUSC   O04dQ       1     -1.05    15.999
   27865      ob       1    MUSC   O04dR       1     -1.05    15.999
   27866      ob       1    MUSC   O04dS       1     -1.05    15.999
   27867      ob       1    MUSC   O04dT       1     -1.05    15.999
   27868      ob       1    MUSC   O04dU       1     -1.05    15.999
   27869      ob       1    MUSC   O04dV       1     -1.05    15.999
   27870      ob       1    MUSC   O04dW       1     -1.05    15.999
   27871      ob       1    MUSC   O04dX       1     -1.05    15.999
   27872      ob       1    MUSC   O04dY       1     -1.05    15.999
   27873      ob       1    MUSC   O04dZ       1     -1.05    15.999
   27874      ob       1    MUSC   O04da       1     -1.05    15.999
   27875      ob       1    MUSC   O04db       1     -1.05    15.999
   27876      ob       1    MUSC   O04dc       1     -1.05    15.999
   27877      ob       1    MUSC   O04dd       1     -1.05    15.999
   27878      ob       1    MUSC   O04de       1     -1.05    15.999
   27879      ob       1    MUSC   O04df       1     -1.05    15.999
   27880      ob       1    MUSC   O04dg       1     -1.05    15.999
   27881      oh       1    MUSC   O04dh       1     -0.95    15.999
   27882      oh       1    MUSC   O04di       1     -0.95    15.999
   27883      oh       1    MUSC   O04dj       1     -0.95    15.999
   27884      oh       1    MUSC   O04dk       1     -0.95    15.999
   27885      ob       1    MUSC   O04dl       1     -1.05    15.999
   27886      ob       1    MUSC   O04dm       1     -1.05    15.999
   27887      ob       1    MUSC   O04dn       1     -1.05    15.999
   27888      ob       1    MUSC   O04do       1     -1.05    15.999
   27889      ob       1    MUSC   O04dp       1     -1.05    15.999
   27890      ob       1    MUSC   O04dq       1     -1.05    15.999
   27891      ob       1    MUSC   O04dr       1     -1.05    15.999
   27892      ob       1    MUSC   O04ds       1     -1.05    15.999
   27893      ob       1    MUSC   O04dt       1     -1.05    15.999
   27894      ob       1    MUSC   O04du       1     -1.05    15.999
   27895      ob       1    MUSC   O04dv       1     -1.05    15.999
   27896      ob       1    MUSC   O04dw       1     -1.05    15.999
   27897      ob       1    MUSC   O04dx       1     -1.05    15.999
   27898      ob       1    MUSC   O04dy       1     -1.05    15.999
   27899      ob       1    MUSC   O04dz       1     -1.05    15.999
   27900      ob       1    MUSC   O04e0       1     -1.05    15.999
   27901       K       1    MUSC   K00I1       1       1.0    39.098
   27902       K       1    MUSC   K00I2       1       1.0    39.098
   27903      ao       1    MUSC   Al0m1       1     1.575    26.982
   27904      ao       1    MUSC   Al0m2       1     1.575    26.982
   27905      ao       1    MUSC   Al0m3       1     1.575    26.982
   27906      ao       1    MUSC   Al0m4       1     1.575    26.982
   27907      ao       1    MUSC   Al0m5       1     1.575    26.982
   27908      ao       1    MUSC   Al0m6       1     1.575    26.982
   27909      ao       1    MUSC   Al0m7       1     1.575    26.982
   27910      ao       1    MUSC   Al0m8       1     1.575    26.982
   27911      st       1    MUSC   Si1Y1       1       2.1    28.086
   27912      st       1    MUSC   Si1Y2       1       2.1    28.086
   27913      st       1    MUSC   Si1Y3       1       2.1    28.086
   27914      st       1    MUSC   Si1Y4       1       2.1    28.086
   27915      st       1    MUSC   Si1Y5       1       2.1    28.086
   27916      st       1    MUSC   Si1Y6       1       2.1    28.086
   27917      st       1    MUSC   Si1Y7       1       2.1    28.086
   27918      st       1    MUSC   Si1Y8       1       2.1    28.086
   27919      st       1    MUSC   Si1Y9       1       2.1    28.086
   27920      st       1    MUSC   Si1YA       1       2.1    28.086
   27921      st       1    MUSC   Si1YB       1       2.1    28.086
   27922      st       1    MUSC   Si1YC       1       2.1    28.086
   27923      st       1    MUSC   Si1YD       1       2.1    28.086
   27924      st       1    MUSC   Si1YE       1       2.1    28.086
   27925      st       1    MUSC   Si1YF       1       2.1    28.086
   27926      st       1    MUSC   Si1YG       1       2.1    28.086
   27927      ob       1    MUSC   O04e1       1     -1.05    15.999
   27928      ob       1    MUSC   O04e2       1     -1.05    15.999
   27929      ob       1    MUSC   O04e3       1     -1.05    15.999
   27930      ob       1    MUSC   O04e4       1     -1.05    15.999
   27931      oh       1    MUSC   O04e5       1     -0.95    15.999
   27932      oh       1    MUSC   O04e6       1     -0.95    15.999
   27933      oh       1    MUSC   O04e7       1     -0.95    15.999
   27934      oh       1    MUSC   O04e8       1     -0.95    15.999
   27935      ob       1    MUSC   O04e9       1     -1.05    15.999
   27936      ob       1    MUSC   O04eA       1     -1.05    15.999
   27937      ob       1    MUSC   O04eB       1     -1.05    15.999
   27938      ob       1    MUSC   O04eC       1     -1.05    15.999
   27939      ob       1    MUSC   O04eD       1     -1.05    15.999
   27940      ob       1    MUSC   O04eE       1     -1.05    15.999
   27941      ob       1    MUSC   O04eF       1     -1.05    15.999
   27942      ob       1    MUSC   O04eG       1     -1.05    15.999
   27943      ob       1    MUSC   O04eH       1     -1.05    15.999
   27944      ob       1    MUSC   O04eI       1     -1.05    15.999
   27945      ob       1    MUSC   O04eJ       1     -1.05    15.999
   27946      ob       1    MUSC   O04eK       1     -1.05    15.999
   27947      ob       1    MUSC   O04eL       1     -1.05    15.999
   27948      ob       1    MUSC   O04eM       1     -1.05    15.999
   27949      ob       1    MUSC   O04eN       1     -1.05    15.999
   27950      ob       1    MUSC   O04eO       1     -1.05    15.999
   27951      ob       1    MUSC   O04eP       1     -1.05    15.999
   27952      ob       1    MUSC   O04eQ       1     -1.05    15.999
   27953      ob       1    MUSC   O04eR       1     -1.05    15.999
   27954      ob       1    MUSC   O04eS       1     -1.05    15.999
   27955      oh       1    MUSC   O04eT       1     -0.95    15.999
   27956      oh       1    MUSC   O04eU       1     -0.95    15.999
   27957      oh       1    MUSC   O04eV       1     -0.95    15.999
   27958      oh       1    MUSC   O04eW       1     -0.95    15.999
   27959      ob       1    MUSC   O04eX       1     -1.05    15.999
   27960      ob       1    MUSC   O04eY       1     -1.05    15.999
   27961      ob       1    MUSC   O04eZ       1     -1.05    15.999
   27962      ob       1    MUSC   O04ea       1     -1.05    15.999
   27963      ob       1    MUSC   O04eb       1     -1.05    15.999
   27964      ob       1    MUSC   O04ec       1     -1.05    15.999
   27965      ob       1    MUSC   O04ed       1     -1.05    15.999
   27966      ob       1    MUSC   O04ee       1     -1.05    15.999
   27967      ob       1    MUSC   O04ef       1     -1.05    15.999
   27968      ob       1    MUSC   O04eg       1     -1.05    15.999
   27969      ob       1    MUSC   O04eh       1     -1.05    15.999
   27970      ob       1    MUSC   O04ei       1     -1.05    15.999
   27971      ob       1    MUSC   O04ej       1     -1.05    15.999
   27972      ob       1    MUSC   O04ek       1     -1.05    15.999
   27973      ob       1    MUSC   O04el       1     -1.05    15.999
   27974      ob       1    MUSC   O04em       1     -1.05    15.999
   27975       K       1    MUSC   K00I3       1       1.0    39.098
   27976       K       1    MUSC   K00I4       1       1.0    39.098
   27977       K       1    MUSC   K00I5       1       1.0    39.098
   27978       K       1    MUSC   K00I6       1       1.0    39.098
   27979      ao       1    MUSC   Al0m9       1     1.575    26.982
   27980      ao       1    MUSC   Al0mA       1     1.575    26.982
   27981      ao       1    MUSC   Al0mB       1     1.575    26.982
   27982      ao       1    MUSC   Al0mC       1     1.575    26.982
   27983      ao       1    MUSC   Al0mD       1     1.575    26.982
   27984      ao       1    MUSC   Al0mE       1     1.575    26.982
   27985      ao       1    MUSC   Al0mF       1     1.575    26.982
   27986      ao       1    MUSC   Al0mG       1     1.575    26.982
   27987      st       1    MUSC   Si1YH       1       2.1    28.086
   27988      st       1    MUSC   Si1YI       1       2.1    28.086
   27989      st       1    MUSC   Si1YJ       1       2.1    28.086
   27990      st       1    MUSC   Si1YK       1       2.1    28.086
   27991      st       1    MUSC   Si1YL       1       2.1    28.086
   27992      st       1    MUSC   Si1YM       1       2.1    28.086
   27993      st       1    MUSC   Si1YN       1       2.1    28.086
   27994      st       1    MUSC   Si1YO       1       2.1    28.086
   27995      st       1    MUSC   Si1YP       1       2.1    28.086
   27996      st       1    MUSC   Si1YQ       1       2.1    28.086
   27997      st       1    MUSC   Si1YR       1       2.1    28.086
   27998      st       1    MUSC   Si1YS       1       2.1    28.086
   27999      st       1    MUSC   Si1YT       1       2.1    28.086
   28000      st       1    MUSC   Si1YU       1       2.1    28.086
   28001      st       1    MUSC   Si1YV       1       2.1    28.086
   28002      st       1    MUSC   Si1YW       1       2.1    28.086
   28003      ob       1    MUSC   O04en       1     -1.05    15.999
   28004      ob       1    MUSC   O04eo       1     -1.05    15.999
   28005      ob       1    MUSC   O04ep       1     -1.05    15.999
   28006      ob       1    MUSC   O04eq       1     -1.05    15.999
   28007      oh       1    MUSC   O04er       1     -0.95    15.999
   28008      oh       1    MUSC   O04es       1     -0.95    15.999
   28009      oh       1    MUSC   O04et       1     -0.95    15.999
   28010      oh       1    MUSC   O04eu       1     -0.95    15.999
   28011      ob       1    MUSC   O04ev       1     -1.05    15.999
   28012      ob       1    MUSC   O04ew       1     -1.05    15.999
   28013      ob       1    MUSC   O04ex       1     -1.05    15.999
   28014      ob       1    MUSC   O04ey       1     -1.05    15.999
   28015      ob       1    MUSC   O04ez       1     -1.05    15.999
   28016      ob       1    MUSC   O04f0       1     -1.05    15.999
   28017      ob       1    MUSC   O04f1       1     -1.05    15.999
   28018      ob       1    MUSC   O04f2       1     -1.05    15.999
   28019      ob       1    MUSC   O04f3       1     -1.05    15.999
   28020      ob       1    MUSC   O04f4       1     -1.05    15.999
   28021      ob       1    MUSC   O04f5       1     -1.05    15.999
   28022      ob       1    MUSC   O04f6       1     -1.05    15.999
   28023      ob       1    MUSC   O04f7       1     -1.05    15.999
   28024      ob       1    MUSC   O04f8       1     -1.05    15.999
   28025      ob       1    MUSC   O04f9       1     -1.05    15.999
   28026      ob       1    MUSC   O04fA       1     -1.05    15.999
   28027      ob       1    MUSC   O04fB       1     -1.05    15.999
   28028      ob       1    MUSC   O04fC       1     -1.05    15.999
   28029      ob       1    MUSC   O04fD       1     -1.05    15.999
   28030      ob       1    MUSC   O04fE       1     -1.05    15.999
   28031      oh       1    MUSC   O04fF       1     -0.95    15.999
   28032      oh       1    MUSC   O04fG       1     -0.95    15.999
   28033      oh       1    MUSC   O04fH       1     -0.95    15.999
   28034      oh       1    MUSC   O04fI       1     -0.95    15.999
   28035      ob       1    MUSC   O04fJ       1     -1.05    15.999
   28036      ob       1    MUSC   O04fK       1     -1.05    15.999
   28037      ob       1    MUSC   O04fL       1     -1.05    15.999
   28038      ob       1    MUSC   O04fM       1     -1.05    15.999
   28039      ob       1    MUSC   O04fN       1     -1.05    15.999
   28040      ob       1    MUSC   O04fO       1     -1.05    15.999
   28041      ob       1    MUSC   O04fP       1     -1.05    15.999
   28042      ob       1    MUSC   O04fQ       1     -1.05    15.999
   28043      ob       1    MUSC   O04fR       1     -1.05    15.999
   28044      ob       1    MUSC   O04fS       1     -1.05    15.999
   28045      ob       1    MUSC   O04fT       1     -1.05    15.999
   28046      ob       1    MUSC   O04fU       1     -1.05    15.999
   28047      ob       1    MUSC   O04fV       1     -1.05    15.999
   28048      ob       1    MUSC   O04fW       1     -1.05    15.999
   28049      ob       1    MUSC   O04fX       1     -1.05    15.999
   28050      ob       1    MUSC   O04fY       1     -1.05    15.999
   28051       K       1    MUSC   K00I7       1       1.0    39.098
   28052       K       1    MUSC   K00I8       1       1.0    39.098
   28053      ao       1    MUSC   Al0mH       1     1.575    26.982
   28054      ao       1    MUSC   Al0mI       1     1.575    26.982
   28055      ao       1    MUSC   Al0mJ       1     1.575    26.982
   28056      ao       1    MUSC   Al0mK       1     1.575    26.982
   28057      ao       1    MUSC   Al0mL       1     1.575    26.982
   28058      ao       1    MUSC   Al0mM       1     1.575    26.982
   28059      ao       1    MUSC   Al0mN       1     1.575    26.982
   28060      ao       1    MUSC   Al0mO       1     1.575    26.982
   28061      st       1    MUSC   Si1YX       1       2.1    28.086
   28062      st       1    MUSC   Si1YY       1       2.1    28.086
   28063      st       1    MUSC   Si1YZ       1       2.1    28.086
   28064      st       1    MUSC   Si1Ya       1       2.1    28.086
   28065      st       1    MUSC   Si1Yb       1       2.1    28.086
   28066      st       1    MUSC   Si1Yc       1       2.1    28.086
   28067      st       1    MUSC   Si1Yd       1       2.1    28.086
   28068      st       1    MUSC   Si1Ye       1       2.1    28.086
   28069      st       1    MUSC   Si1Yf       1       2.1    28.086
   28070      st       1    MUSC   Si1Yg       1       2.1    28.086
   28071      st       1    MUSC   Si1Yh       1       2.1    28.086
   28072      st       1    MUSC   Si1Yi       1       2.1    28.086
   28073      st       1    MUSC   Si1Yj       1       2.1    28.086
   28074      st       1    MUSC   Si1Yk       1       2.1    28.086
   28075      st       1    MUSC   Si1Yl       1       2.1    28.086
   28076      st       1    MUSC   Si1Ym       1       2.1    28.086
   28077      ob       1    MUSC   O04fZ       1     -1.05    15.999
   28078      ob       1    MUSC   O04fa       1     -1.05    15.999
   28079      ob       1    MUSC   O04fb       1     -1.05    15.999
   28080      ob       1    MUSC   O04fc       1     -1.05    15.999
   28081      oh       1    MUSC   O04fd       1     -0.95    15.999
   28082      oh       1    MUSC   O04fe       1     -0.95    15.999
   28083      oh       1    MUSC   O04ff       1     -0.95    15.999
   28084      oh       1    MUSC   O04fg       1     -0.95    15.999
   28085      ob       1    MUSC   O04fh       1     -1.05    15.999
   28086      ob       1    MUSC   O04fi       1     -1.05    15.999
   28087      ob       1    MUSC   O04fj       1     -1.05    15.999
   28088      ob       1    MUSC   O04fk       1     -1.05    15.999
   28089      ob       1    MUSC   O04fl       1     -1.05    15.999
   28090      ob       1    MUSC   O04fm       1     -1.05    15.999
   28091      ob       1    MUSC   O04fn       1     -1.05    15.999
   28092      ob       1    MUSC   O04fo       1     -1.05    15.999
   28093      ob       1    MUSC   O04fp       1     -1.05    15.999
   28094      ob       1    MUSC   O04fq       1     -1.05    15.999
   28095      ob       1    MUSC   O04fr       1     -1.05    15.999
   28096      ob       1    MUSC   O04fs       1     -1.05    15.999
   28097      ob       1    MUSC   O04ft       1     -1.05    15.999
   28098      ob       1    MUSC   O04fu       1     -1.05    15.999
   28099      ob       1    MUSC   O04fv       1     -1.05    15.999
   28100      ob       1    MUSC   O04fw       1     -1.05    15.999
   28101      ob       1    MUSC   O04fx       1     -1.05    15.999
   28102      ob       1    MUSC   O04fy       1     -1.05    15.999
   28103      ob       1    MUSC   O04fz       1     -1.05    15.999
   28104      ob       1    MUSC   O04g0       1     -1.05    15.999
   28105      oh       1    MUSC   O04g1       1     -0.95    15.999
   28106      oh       1    MUSC   O04g2       1     -0.95    15.999
   28107      oh       1    MUSC   O04g3       1     -0.95    15.999
   28108      oh       1    MUSC   O04g4       1     -0.95    15.999
   28109      ob       1    MUSC   O04g5       1     -1.05    15.999
   28110      ob       1    MUSC   O04g6       1     -1.05    15.999
   28111      ob       1    MUSC   O04g7       1     -1.05    15.999
   28112      ob       1    MUSC   O04g8       1     -1.05    15.999
   28113      ob       1    MUSC   O04g9       1     -1.05    15.999
   28114      ob       1    MUSC   O04gA       1     -1.05    15.999
   28115      ob       1    MUSC   O04gB       1     -1.05    15.999
   28116      ob       1    MUSC   O04gC       1     -1.05    15.999
   28117      ob       1    MUSC   O04gD       1     -1.05    15.999
   28118      ob       1    MUSC   O04gE       1     -1.05    15.999
   28119      ob       1    MUSC   O04gF       1     -1.05    15.999
   28120      ob       1    MUSC   O04gG       1     -1.05    15.999
   28121      ob       1    MUSC   O04gH       1     -1.05    15.999
   28122      ob       1    MUSC   O04gI       1     -1.05    15.999
   28123      ob       1    MUSC   O04gJ       1     -1.05    15.999
   28124      ob       1    MUSC   O04gK       1     -1.05    15.999
   28125       K       1    MUSC   K00I9       1       1.0    39.098
   28126       K       1    MUSC   K00IA       1       1.0    39.098
   28127       K       1    MUSC   K00IB       1       1.0    39.098
   28128       K       1    MUSC   K00IC       1       1.0    39.098
   28129      ao       1    MUSC   Al0mP       1     1.575    26.982
   28130      ao       1    MUSC   Al0mQ       1     1.575    26.982
   28131      ao       1    MUSC   Al0mR       1     1.575    26.982
   28132      ao       1    MUSC   Al0mS       1     1.575    26.982
   28133      ao       1    MUSC   Al0mT       1     1.575    26.982
   28134      ao       1    MUSC   Al0mU       1     1.575    26.982
   28135      ao       1    MUSC   Al0mV       1     1.575    26.982
   28136      ao       1    MUSC   Al0mW       1     1.575    26.982
   28137      st       1    MUSC   Si1Yn       1       2.1    28.086
   28138      st       1    MUSC   Si1Yo       1       2.1    28.086
   28139      st       1    MUSC   Si1Yp       1       2.1    28.086
   28140      st       1    MUSC   Si1Yq       1       2.1    28.086
   28141      st       1    MUSC   Si1Yr       1       2.1    28.086
   28142      st       1    MUSC   Si1Ys       1       2.1    28.086
   28143      st       1    MUSC   Si1Yt       1       2.1    28.086
   28144      st       1    MUSC   Si1Yu       1       2.1    28.086
   28145      st       1    MUSC   Si1Yv       1       2.1    28.086
   28146      st       1    MUSC   Si1Yw       1       2.1    28.086
   28147      st       1    MUSC   Si1Yx       1       2.1    28.086
   28148      st       1    MUSC   Si1Yy       1       2.1    28.086
   28149      st       1    MUSC   Si1Yz       1       2.1    28.086
   28150      st       1    MUSC   Si1Z0       1       2.1    28.086
   28151      st       1    MUSC   Si1Z1       1       2.1    28.086
   28152      st       1    MUSC   Si1Z2       1       2.1    28.086
   28153      ob       1    MUSC   O04gL       1     -1.05    15.999
   28154      ob       1    MUSC   O04gM       1     -1.05    15.999
   28155      ob       1    MUSC   O04gN       1     -1.05    15.999
   28156      ob       1    MUSC   O04gO       1     -1.05    15.999
   28157      oh       1    MUSC   O04gP       1     -0.95    15.999
   28158      oh       1    MUSC   O04gQ       1     -0.95    15.999
   28159      oh       1    MUSC   O04gR       1     -0.95    15.999
   28160      oh       1    MUSC   O04gS       1     -0.95    15.999
   28161      ob       1    MUSC   O04gT       1     -1.05    15.999
   28162      ob       1    MUSC   O04gU       1     -1.05    15.999
   28163      ob       1    MUSC   O04gV       1     -1.05    15.999
   28164      ob       1    MUSC   O04gW       1     -1.05    15.999
   28165      ob       1    MUSC   O04gX       1     -1.05    15.999
   28166      ob       1    MUSC   O04gY       1     -1.05    15.999
   28167      ob       1    MUSC   O04gZ       1     -1.05    15.999
   28168      ob       1    MUSC   O04ga       1     -1.05    15.999
   28169      ob       1    MUSC   O04gb       1     -1.05    15.999
   28170      ob       1    MUSC   O04gc       1     -1.05    15.999
   28171      ob       1    MUSC   O04gd       1     -1.05    15.999
   28172      ob       1    MUSC   O04ge       1     -1.05    15.999
   28173      ob       1    MUSC   O04gf       1     -1.05    15.999
   28174      ob       1    MUSC   O04gg       1     -1.05    15.999
   28175      ob       1    MUSC   O04gh       1     -1.05    15.999
   28176      ob       1    MUSC   O04gi       1     -1.05    15.999
   28177      ob       1    MUSC   O04gj       1     -1.05    15.999
   28178      ob       1    MUSC   O04gk       1     -1.05    15.999
   28179      ob       1    MUSC   O04gl       1     -1.05    15.999
   28180      ob       1    MUSC   O04gm       1     -1.05    15.999
   28181      oh       1    MUSC   O04gn       1     -0.95    15.999
   28182      oh       1    MUSC   O04go       1     -0.95    15.999
   28183      oh       1    MUSC   O04gp       1     -0.95    15.999
   28184      oh       1    MUSC   O04gq       1     -0.95    15.999
   28185      ob       1    MUSC   O04gr       1     -1.05    15.999
   28186      ob       1    MUSC   O04gs       1     -1.05    15.999
   28187      ob       1    MUSC   O04gt       1     -1.05    15.999
   28188      ob       1    MUSC   O04gu       1     -1.05    15.999
   28189      ob       1    MUSC   O04gv       1     -1.05    15.999
   28190      ob       1    MUSC   O04gw       1     -1.05    15.999
   28191      ob       1    MUSC   O04gx       1     -1.05    15.999
   28192      ob       1    MUSC   O04gy       1     -1.05    15.999
   28193      ob       1    MUSC   O04gz       1     -1.05    15.999
   28194      ob       1    MUSC   O04h0       1     -1.05    15.999
   28195      ob       1    MUSC   O04h1       1     -1.05    15.999
   28196      ob       1    MUSC   O04h2       1     -1.05    15.999
   28197      ob       1    MUSC   O04h3       1     -1.05    15.999
   28198      ob       1    MUSC   O04h4       1     -1.05    15.999
   28199      ob       1    MUSC   O04h5       1     -1.05    15.999
   28200      ob       1    MUSC   O04h6       1     -1.05    15.999
   28201       K       1    MUSC   K00ID       1       1.0    39.098
   28202       K       1    MUSC   K00IE       1       1.0    39.098
   28203      ao       1    MUSC   Al0mX       1     1.575    26.982
   28204      ao       1    MUSC   Al0mY       1     1.575    26.982
   28205      ao       1    MUSC   Al0mZ       1     1.575    26.982
   28206      ao       1    MUSC   Al0ma       1     1.575    26.982
   28207      ao       1    MUSC   Al0mb       1     1.575    26.982
   28208      ao       1    MUSC   Al0mc       1     1.575    26.982
   28209      ao       1    MUSC   Al0md       1     1.575    26.982
   28210      ao       1    MUSC   Al0me       1     1.575    26.982
   28211      st       1    MUSC   Si1Z3       1       2.1    28.086
   28212      st       1    MUSC   Si1Z4       1       2.1    28.086
   28213      st       1    MUSC   Si1Z5       1       2.1    28.086
   28214      st       1    MUSC   Si1Z6       1       2.1    28.086
   28215      st       1    MUSC   Si1Z7       1       2.1    28.086
   28216      st       1    MUSC   Si1Z8       1       2.1    28.086
   28217      st       1    MUSC   Si1Z9       1       2.1    28.086
   28218      st       1    MUSC   Si1ZA       1       2.1    28.086
   28219      st       1    MUSC   Si1ZB       1       2.1    28.086
   28220      st       1    MUSC   Si1ZC       1       2.1    28.086
   28221      st       1    MUSC   Si1ZD       1       2.1    28.086
   28222      st       1    MUSC   Si1ZE       1       2.1    28.086
   28223      st       1    MUSC   Si1ZF       1       2.1    28.086
   28224      st       1    MUSC   Si1ZG       1       2.1    28.086
   28225      st       1    MUSC   Si1ZH       1       2.1    28.086
   28226      st       1    MUSC   Si1ZI       1       2.1    28.086
   28227      ob       1    MUSC   O04h7       1     -1.05    15.999
   28228      ob       1    MUSC   O04h8       1     -1.05    15.999
   28229      ob       1    MUSC   O04h9       1     -1.05    15.999
   28230      ob       1    MUSC   O04hA       1     -1.05    15.999
   28231      oh       1    MUSC   O04hB       1     -0.95    15.999
   28232      oh       1    MUSC   O04hC       1     -0.95    15.999
   28233      oh       1    MUSC   O04hD       1     -0.95    15.999
   28234      oh       1    MUSC   O04hE       1     -0.95    15.999
   28235      ob       1    MUSC   O04hF       1     -1.05    15.999
   28236      ob       1    MUSC   O04hG       1     -1.05    15.999
   28237      ob       1    MUSC   O04hH       1     -1.05    15.999
   28238      ob       1    MUSC   O04hI       1     -1.05    15.999
   28239      ob       1    MUSC   O04hJ       1     -1.05    15.999
   28240      ob       1    MUSC   O04hK       1     -1.05    15.999
   28241      ob       1    MUSC   O04hL       1     -1.05    15.999
   28242      ob       1    MUSC   O04hM       1     -1.05    15.999
   28243      ob       1    MUSC   O04hN       1     -1.05    15.999
   28244      ob       1    MUSC   O04hO       1     -1.05    15.999
   28245      ob       1    MUSC   O04hP       1     -1.05    15.999
   28246      ob       1    MUSC   O04hQ       1     -1.05    15.999
   28247      ob       1    MUSC   O04hR       1     -1.05    15.999
   28248      ob       1    MUSC   O04hS       1     -1.05    15.999
   28249      ob       1    MUSC   O04hT       1     -1.05    15.999
   28250      ob       1    MUSC   O04hU       1     -1.05    15.999
   28251      ob       1    MUSC   O04hV       1     -1.05    15.999
   28252      ob       1    MUSC   O04hW       1     -1.05    15.999
   28253      ob       1    MUSC   O04hX       1     -1.05    15.999
   28254      ob       1    MUSC   O04hY       1     -1.05    15.999
   28255      oh       1    MUSC   O04hZ       1     -0.95    15.999
   28256      oh       1    MUSC   O04ha       1     -0.95    15.999
   28257      oh       1    MUSC   O04hb       1     -0.95    15.999
   28258      oh       1    MUSC   O04hc       1     -0.95    15.999
   28259      ob       1    MUSC   O04hd       1     -1.05    15.999
   28260      ob       1    MUSC   O04he       1     -1.05    15.999
   28261      ob       1    MUSC   O04hf       1     -1.05    15.999
   28262      ob       1    MUSC   O04hg       1     -1.05    15.999
   28263      ob       1    MUSC   O04hh       1     -1.05    15.999
   28264      ob       1    MUSC   O04hi       1     -1.05    15.999
   28265      ob       1    MUSC   O04hj       1     -1.05    15.999
   28266      ob       1    MUSC   O04hk       1     -1.05    15.999
   28267      ob       1    MUSC   O04hl       1     -1.05    15.999
   28268      ob       1    MUSC   O04hm       1     -1.05    15.999
   28269      ob       1    MUSC   O04hn       1     -1.05    15.999
   28270      ob       1    MUSC   O04ho       1     -1.05    15.999
   28271      ob       1    MUSC   O04hp       1     -1.05    15.999
   28272      ob       1    MUSC   O04hq       1     -1.05    15.999
   28273      ob       1    MUSC   O04hr       1     -1.05    15.999
   28274      ob       1    MUSC   O04hs       1     -1.05    15.999
   28275       K       1    MUSC   K00IF       1       1.0    39.098
   28276       K       1    MUSC   K00IG       1       1.0    39.098
   28277       K       1    MUSC   K00IH       1       1.0    39.098
   28278       K       1    MUSC   K00II       1       1.0    39.098
   28279      ao       1    MUSC   Al0mf       1     1.575    26.982
   28280      ao       1    MUSC   Al0mg       1     1.575    26.982
   28281      ao       1    MUSC   Al0mh       1     1.575    26.982
   28282      ao       1    MUSC   Al0mi       1     1.575    26.982
   28283      ao       1    MUSC   Al0mj       1     1.575    26.982
   28284      ao       1    MUSC   Al0mk       1     1.575    26.982
   28285      ao       1    MUSC   Al0ml       1     1.575    26.982
   28286      ao       1    MUSC   Al0mm       1     1.575    26.982
   28287      st       1    MUSC   Si1ZJ       1       2.1    28.086
   28288      st       1    MUSC   Si1ZK       1       2.1    28.086
   28289      st       1    MUSC   Si1ZL       1       2.1    28.086
   28290      st       1    MUSC   Si1ZM       1       2.1    28.086
   28291      st       1    MUSC   Si1ZN       1       2.1    28.086
   28292      st       1    MUSC   Si1ZO       1       2.1    28.086
   28293      st       1    MUSC   Si1ZP       1       2.1    28.086
   28294      st       1    MUSC   Si1ZQ       1       2.1    28.086
   28295      st       1    MUSC   Si1ZR       1       2.1    28.086
   28296      st       1    MUSC   Si1ZS       1       2.1    28.086
   28297      st       1    MUSC   Si1ZT       1       2.1    28.086
   28298      st       1    MUSC   Si1ZU       1       2.1    28.086
   28299      st       1    MUSC   Si1ZV       1       2.1    28.086
   28300      st       1    MUSC   Si1ZW       1       2.1    28.086
   28301      st       1    MUSC   Si1ZX       1       2.1    28.086
   28302      st       1    MUSC   Si1ZY       1       2.1    28.086
   28303      ob       1    MUSC   O04ht       1     -1.05    15.999
   28304      ob       1    MUSC   O04hu       1     -1.05    15.999
   28305      ob       1    MUSC   O04hv       1     -1.05    15.999
   28306      ob       1    MUSC   O04hw       1     -1.05    15.999
   28307      oh       1    MUSC   O04hx       1     -0.95    15.999
   28308      oh       1    MUSC   O04hy       1     -0.95    15.999
   28309      oh       1    MUSC   O04hz       1     -0.95    15.999
   28310      oh       1    MUSC   O04i0       1     -0.95    15.999
   28311      ob       1    MUSC   O04i1       1     -1.05    15.999
   28312      ob       1    MUSC   O04i2       1     -1.05    15.999
   28313      ob       1    MUSC   O04i3       1     -1.05    15.999
   28314      ob       1    MUSC   O04i4       1     -1.05    15.999
   28315      ob       1    MUSC   O04i5       1     -1.05    15.999
   28316      ob       1    MUSC   O04i6       1     -1.05    15.999
   28317      ob       1    MUSC   O04i7       1     -1.05    15.999
   28318      ob       1    MUSC   O04i8       1     -1.05    15.999
   28319      ob       1    MUSC   O04i9       1     -1.05    15.999
   28320      ob       1    MUSC   O04iA       1     -1.05    15.999
   28321      ob       1    MUSC   O04iB       1     -1.05    15.999
   28322      ob       1    MUSC   O04iC       1     -1.05    15.999
   28323      ob       1    MUSC   O04iD       1     -1.05    15.999
   28324      ob       1    MUSC   O04iE       1     -1.05    15.999
   28325      ob       1    MUSC   O04iF       1     -1.05    15.999
   28326      ob       1    MUSC   O04iG       1     -1.05    15.999
   28327      ob       1    MUSC   O04iH       1     -1.05    15.999
   28328      ob       1    MUSC   O04iI       1     -1.05    15.999
   28329      ob       1    MUSC   O04iJ       1     -1.05    15.999
   28330      ob       1    MUSC   O04iK       1     -1.05    15.999
   28331      oh       1    MUSC   O04iL       1     -0.95    15.999
   28332      oh       1    MUSC   O04iM       1     -0.95    15.999
   28333      oh       1    MUSC   O04iN       1     -0.95    15.999
   28334      oh       1    MUSC   O04iO       1     -0.95    15.999
   28335      ob       1    MUSC   O04iP       1     -1.05    15.999
   28336      ob       1    MUSC   O04iQ       1     -1.05    15.999
   28337      ob       1    MUSC   O04iR       1     -1.05    15.999
   28338      ob       1    MUSC   O04iS       1     -1.05    15.999
   28339      ob       1    MUSC   O04iT       1     -1.05    15.999
   28340      ob       1    MUSC   O04iU       1     -1.05    15.999
   28341      ob       1    MUSC   O04iV       1     -1.05    15.999
   28342      ob       1    MUSC   O04iW       1     -1.05    15.999
   28343      ob       1    MUSC   O04iX       1     -1.05    15.999
   28344      ob       1    MUSC   O04iY       1     -1.05    15.999
   28345      ob       1    MUSC   O04iZ       1     -1.05    15.999
   28346      ob       1    MUSC   O04ia       1     -1.05    15.999
   28347      ob       1    MUSC   O04ib       1     -1.05    15.999
   28348      ob       1    MUSC   O04ic       1     -1.05    15.999
   28349      ob       1    MUSC   O04id       1     -1.05    15.999
   28350      ob       1    MUSC   O04ie       1     -1.05    15.999
   28351       K       1    MUSC   K00IJ       1       1.0    39.098
   28352       K       1    MUSC   K00IK       1       1.0    39.098
   28353      ao       1    MUSC   Al0mn       1     1.575    26.982
   28354      ao       1    MUSC   Al0mo       1     1.575    26.982
   28355      ao       1    MUSC   Al0mp       1     1.575    26.982
   28356      ao       1    MUSC   Al0mq       1     1.575    26.982
   28357      ao       1    MUSC   Al0mr       1     1.575    26.982
   28358      ao       1    MUSC   Al0ms       1     1.575    26.982
   28359      ao       1    MUSC   Al0mt       1     1.575    26.982
   28360      ao       1    MUSC   Al0mu       1     1.575    26.982
   28361      st       1    MUSC   Si1ZZ       1       2.1    28.086
   28362      st       1    MUSC   Si1Za       1       2.1    28.086
   28363      st       1    MUSC   Si1Zb       1       2.1    28.086
   28364      st       1    MUSC   Si1Zc       1       2.1    28.086
   28365      st       1    MUSC   Si1Zd       1       2.1    28.086
   28366      st       1    MUSC   Si1Ze       1       2.1    28.086
   28367      st       1    MUSC   Si1Zf       1       2.1    28.086
   28368      st       1    MUSC   Si1Zg       1       2.1    28.086
   28369      st       1    MUSC   Si1Zh       1       2.1    28.086
   28370      st       1    MUSC   Si1Zi       1       2.1    28.086
   28371      st       1    MUSC   Si1Zj       1       2.1    28.086
   28372      st       1    MUSC   Si1Zk       1       2.1    28.086
   28373      st       1    MUSC   Si1Zl       1       2.1    28.086
   28374      st       1    MUSC   Si1Zm       1       2.1    28.086
   28375      st       1    MUSC   Si1Zn       1       2.1    28.086
   28376      st       1    MUSC   Si1Zo       1       2.1    28.086
   28377      ob       1    MUSC   O04if       1     -1.05    15.999
   28378      ob       1    MUSC   O04ig       1     -1.05    15.999
   28379      ob       1    MUSC   O04ih       1     -1.05    15.999
   28380      ob       1    MUSC   O04ii       1     -1.05    15.999
   28381      oh       1    MUSC   O04ij       1     -0.95    15.999
   28382      oh       1    MUSC   O04ik       1     -0.95    15.999
   28383      oh       1    MUSC   O04il       1     -0.95    15.999
   28384      oh       1    MUSC   O04im       1     -0.95    15.999
   28385      ob       1    MUSC   O04in       1     -1.05    15.999
   28386      ob       1    MUSC   O04io       1     -1.05    15.999
   28387      ob       1    MUSC   O04ip       1     -1.05    15.999
   28388      ob       1    MUSC   O04iq       1     -1.05    15.999
   28389      ob       1    MUSC   O04ir       1     -1.05    15.999
   28390      ob       1    MUSC   O04is       1     -1.05    15.999
   28391      ob       1    MUSC   O04it       1     -1.05    15.999
   28392      ob       1    MUSC   O04iu       1     -1.05    15.999
   28393      ob       1    MUSC   O04iv       1     -1.05    15.999
   28394      ob       1    MUSC   O04iw       1     -1.05    15.999
   28395      ob       1    MUSC   O04ix       1     -1.05    15.999
   28396      ob       1    MUSC   O04iy       1     -1.05    15.999
   28397      ob       1    MUSC   O04iz       1     -1.05    15.999
   28398      ob       1    MUSC   O04j0       1     -1.05    15.999
   28399      ob       1    MUSC   O04j1       1     -1.05    15.999
   28400      ob       1    MUSC   O04j2       1     -1.05    15.999
   28401      ob       1    MUSC   O04j3       1     -1.05    15.999
   28402      ob       1    MUSC   O04j4       1     -1.05    15.999
   28403      ob       1    MUSC   O04j5       1     -1.05    15.999
   28404      ob       1    MUSC   O04j6       1     -1.05    15.999
   28405      oh       1    MUSC   O04j7       1     -0.95    15.999
   28406      oh       1    MUSC   O04j8       1     -0.95    15.999
   28407      oh       1    MUSC   O04j9       1     -0.95    15.999
   28408      oh       1    MUSC   O04jA       1     -0.95    15.999
   28409      ob       1    MUSC   O04jB       1     -1.05    15.999
   28410      ob       1    MUSC   O04jC       1     -1.05    15.999
   28411      ob       1    MUSC   O04jD       1     -1.05    15.999
   28412      ob       1    MUSC   O04jE       1     -1.05    15.999
   28413      ob       1    MUSC   O04jF       1     -1.05    15.999
   28414      ob       1    MUSC   O04jG       1     -1.05    15.999
   28415      ob       1    MUSC   O04jH       1     -1.05    15.999
   28416      ob       1    MUSC   O04jI       1     -1.05    15.999
   28417      ob       1    MUSC   O04jJ       1     -1.05    15.999
   28418      ob       1    MUSC   O04jK       1     -1.05    15.999
   28419      ob       1    MUSC   O04jL       1     -1.05    15.999
   28420      ob       1    MUSC   O04jM       1     -1.05    15.999
   28421      ob       1    MUSC   O04jN       1     -1.05    15.999
   28422      ob       1    MUSC   O04jO       1     -1.05    15.999
   28423      ob       1    MUSC   O04jP       1     -1.05    15.999
   28424      ob       1    MUSC   O04jQ       1     -1.05    15.999
   28425       K       1    MUSC   K00IL       1       1.0    39.098
   28426       K       1    MUSC   K00IM       1       1.0    39.098
   28427       K       1    MUSC   K00IN       1       1.0    39.098
   28428       K       1    MUSC   K00IO       1       1.0    39.098
   28429      ao       1    MUSC   Al0mv       1     1.575    26.982
   28430      ao       1    MUSC   Al0mw       1     1.575    26.982
   28431      ao       1    MUSC   Al0mx       1     1.575    26.982
   28432      ao       1    MUSC   Al0my       1     1.575    26.982
   28433      ao       1    MUSC   Al0mz       1     1.575    26.982
   28434      ao       1    MUSC   Al0n0       1     1.575    26.982
   28435      ao       1    MUSC   Al0n1       1     1.575    26.982
   28436      ao       1    MUSC   Al0n2       1     1.575    26.982
   28437      st       1    MUSC   Si1Zp       1       2.1    28.086
   28438      st       1    MUSC   Si1Zq       1       2.1    28.086
   28439      st       1    MUSC   Si1Zr       1       2.1    28.086
   28440      st       1    MUSC   Si1Zs       1       2.1    28.086
   28441      st       1    MUSC   Si1Zt       1       2.1    28.086
   28442      st       1    MUSC   Si1Zu       1       2.1    28.086
   28443      st       1    MUSC   Si1Zv       1       2.1    28.086
   28444      st       1    MUSC   Si1Zw       1       2.1    28.086
   28445      st       1    MUSC   Si1Zx       1       2.1    28.086
   28446      st       1    MUSC   Si1Zy       1       2.1    28.086
   28447      st       1    MUSC   Si1Zz       1       2.1    28.086
   28448      st       1    MUSC   Si1a0       1       2.1    28.086
   28449      st       1    MUSC   Si1a1       1       2.1    28.086
   28450      st       1    MUSC   Si1a2       1       2.1    28.086
   28451      st       1    MUSC   Si1a3       1       2.1    28.086
   28452      st       1    MUSC   Si1a4       1       2.1    28.086
   28453      ob       1    MUSC   O04jR       1     -1.05    15.999
   28454      ob       1    MUSC   O04jS       1     -1.05    15.999
   28455      ob       1    MUSC   O04jT       1     -1.05    15.999
   28456      ob       1    MUSC   O04jU       1     -1.05    15.999
   28457      oh       1    MUSC   O04jV       1     -0.95    15.999
   28458      oh       1    MUSC   O04jW       1     -0.95    15.999
   28459      oh       1    MUSC   O04jX       1     -0.95    15.999
   28460      oh       1    MUSC   O04jY       1     -0.95    15.999
   28461      ob       1    MUSC   O04jZ       1     -1.05    15.999
   28462      ob       1    MUSC   O04ja       1     -1.05    15.999
   28463      ob       1    MUSC   O04jb       1     -1.05    15.999
   28464      ob       1    MUSC   O04jc       1     -1.05    15.999
   28465      ob       1    MUSC   O04jd       1     -1.05    15.999
   28466      ob       1    MUSC   O04je       1     -1.05    15.999
   28467      ob       1    MUSC   O04jf       1     -1.05    15.999
   28468      ob       1    MUSC   O04jg       1     -1.05    15.999
   28469      ob       1    MUSC   O04jh       1     -1.05    15.999
   28470      ob       1    MUSC   O04ji       1     -1.05    15.999
   28471      ob       1    MUSC   O04jj       1     -1.05    15.999
   28472      ob       1    MUSC   O04jk       1     -1.05    15.999
   28473      ob       1    MUSC   O04jl       1     -1.05    15.999
   28474      ob       1    MUSC   O04jm       1     -1.05    15.999
   28475      ob       1    MUSC   O04jn       1     -1.05    15.999
   28476      ob       1    MUSC   O04jo       1     -1.05    15.999
   28477      ob       1    MUSC   O04jp       1     -1.05    15.999
   28478      ob       1    MUSC   O04jq       1     -1.05    15.999
   28479      ob       1    MUSC   O04jr       1     -1.05    15.999
   28480      ob       1    MUSC   O04js       1     -1.05    15.999
   28481      oh       1    MUSC   O04jt       1     -0.95    15.999
   28482      oh       1    MUSC   O04ju       1     -0.95    15.999
   28483      oh       1    MUSC   O04jv       1     -0.95    15.999
   28484      oh       1    MUSC   O04jw       1     -0.95    15.999
   28485      ob       1    MUSC   O04jx       1     -1.05    15.999
   28486      ob       1    MUSC   O04jy       1     -1.05    15.999
   28487      ob       1    MUSC   O04jz       1     -1.05    15.999
   28488      ob       1    MUSC   O04k0       1     -1.05    15.999
   28489      ob       1    MUSC   O04k1       1     -1.05    15.999
   28490      ob       1    MUSC   O04k2       1     -1.05    15.999
   28491      ob       1    MUSC   O04k3       1     -1.05    15.999
   28492      ob       1    MUSC   O04k4       1     -1.05    15.999
   28493      ob       1    MUSC   O04k5       1     -1.05    15.999
   28494      ob       1    MUSC   O04k6       1     -1.05    15.999
   28495      ob       1    MUSC   O04k7       1     -1.05    15.999
   28496      ob       1    MUSC   O04k8       1     -1.05    15.999
   28497      ob       1    MUSC   O04k9       1     -1.05    15.999
   28498      ob       1    MUSC   O04kA       1     -1.05    15.999
   28499      ob       1    MUSC   O04kB       1     -1.05    15.999
   28500      ob       1    MUSC   O04kC       1     -1.05    15.999
   28501       K       1    MUSC   K00IP       1       1.0    39.098
   28502       K       1    MUSC   K00IQ       1       1.0    39.098
   28503      ao       1    MUSC   Al0n3       1     1.575    26.982
   28504      ao       1    MUSC   Al0n4       1     1.575    26.982
   28505      ao       1    MUSC   Al0n5       1     1.575    26.982
   28506      ao       1    MUSC   Al0n6       1     1.575    26.982
   28507      ao       1    MUSC   Al0n7       1     1.575    26.982
   28508      ao       1    MUSC   Al0n8       1     1.575    26.982
   28509      ao       1    MUSC   Al0n9       1     1.575    26.982
   28510      ao       1    MUSC   Al0nA       1     1.575    26.982
   28511      st       1    MUSC   Si1a5       1       2.1    28.086
   28512      st       1    MUSC   Si1a6       1       2.1    28.086
   28513      st       1    MUSC   Si1a7       1       2.1    28.086
   28514      st       1    MUSC   Si1a8       1       2.1    28.086
   28515      st       1    MUSC   Si1a9       1       2.1    28.086
   28516      st       1    MUSC   Si1aA       1       2.1    28.086
   28517      st       1    MUSC   Si1aB       1       2.1    28.086
   28518      st       1    MUSC   Si1aC       1       2.1    28.086
   28519      st       1    MUSC   Si1aD       1       2.1    28.086
   28520      st       1    MUSC   Si1aE       1       2.1    28.086
   28521      st       1    MUSC   Si1aF       1       2.1    28.086
   28522      st       1    MUSC   Si1aG       1       2.1    28.086
   28523      st       1    MUSC   Si1aH       1       2.1    28.086
   28524      st       1    MUSC   Si1aI       1       2.1    28.086
   28525      st       1    MUSC   Si1aJ       1       2.1    28.086
   28526      st       1    MUSC   Si1aK       1       2.1    28.086
   28527      ob       1    MUSC   O04kD       1     -1.05    15.999
   28528      ob       1    MUSC   O04kE       1     -1.05    15.999
   28529      ob       1    MUSC   O04kF       1     -1.05    15.999
   28530      ob       1    MUSC   O04kG       1     -1.05    15.999
   28531      oh       1    MUSC   O04kH       1     -0.95    15.999
   28532      oh       1    MUSC   O04kI       1     -0.95    15.999
   28533      oh       1    MUSC   O04kJ       1     -0.95    15.999
   28534      oh       1    MUSC   O04kK       1     -0.95    15.999
   28535      ob       1    MUSC   O04kL       1     -1.05    15.999
   28536      ob       1    MUSC   O04kM       1     -1.05    15.999
   28537      ob       1    MUSC   O04kN       1     -1.05    15.999
   28538      ob       1    MUSC   O04kO       1     -1.05    15.999
   28539      ob       1    MUSC   O04kP       1     -1.05    15.999
   28540      ob       1    MUSC   O04kQ       1     -1.05    15.999
   28541      ob       1    MUSC   O04kR       1     -1.05    15.999
   28542      ob       1    MUSC   O04kS       1     -1.05    15.999
   28543      ob       1    MUSC   O04kT       1     -1.05    15.999
   28544      ob       1    MUSC   O04kU       1     -1.05    15.999
   28545      ob       1    MUSC   O04kV       1     -1.05    15.999
   28546      ob       1    MUSC   O04kW       1     -1.05    15.999
   28547      ob       1    MUSC   O04kX       1     -1.05    15.999
   28548      ob       1    MUSC   O04kY       1     -1.05    15.999
   28549      ob       1    MUSC   O04kZ       1     -1.05    15.999
   28550      ob       1    MUSC   O04ka       1     -1.05    15.999
   28551      ob       1    MUSC   O04kb       1     -1.05    15.999
   28552      ob       1    MUSC   O04kc       1     -1.05    15.999
   28553      ob       1    MUSC   O04kd       1     -1.05    15.999
   28554      ob       1    MUSC   O04ke       1     -1.05    15.999
   28555      oh       1    MUSC   O04kf       1     -0.95    15.999
   28556      oh       1    MUSC   O04kg       1     -0.95    15.999
   28557      oh       1    MUSC   O04kh       1     -0.95    15.999
   28558      oh       1    MUSC   O04ki       1     -0.95    15.999
   28559      ob       1    MUSC   O04kj       1     -1.05    15.999
   28560      ob       1    MUSC   O04kk       1     -1.05    15.999
   28561      ob       1    MUSC   O04kl       1     -1.05    15.999
   28562      ob       1    MUSC   O04km       1     -1.05    15.999
   28563      ob       1    MUSC   O04kn       1     -1.05    15.999
   28564      ob       1    MUSC   O04ko       1     -1.05    15.999
   28565      ob       1    MUSC   O04kp       1     -1.05    15.999
   28566      ob       1    MUSC   O04kq       1     -1.05    15.999
   28567      ob       1    MUSC   O04kr       1     -1.05    15.999
   28568      ob       1    MUSC   O04ks       1     -1.05    15.999
   28569      ob       1    MUSC   O04kt       1     -1.05    15.999
   28570      ob       1    MUSC   O04ku       1     -1.05    15.999
   28571      ob       1    MUSC   O04kv       1     -1.05    15.999
   28572      ob       1    MUSC   O04kw       1     -1.05    15.999
   28573      ob       1    MUSC   O04kx       1     -1.05    15.999
   28574      ob       1    MUSC   O04ky       1     -1.05    15.999
   28575       K       1    MUSC   K00IR       1       1.0    39.098
   28576       K       1    MUSC   K00IS       1       1.0    39.098
   28577       K       1    MUSC   K00IT       1       1.0    39.098
   28578       K       1    MUSC   K00IU       1       1.0    39.098
   28579      ao       1    MUSC   Al0nB       1     1.575    26.982
   28580      ao       1    MUSC   Al0nC       1     1.575    26.982
   28581      ao       1    MUSC   Al0nD       1     1.575    26.982
   28582      ao       1    MUSC   Al0nE       1     1.575    26.982
   28583      ao       1    MUSC   Al0nF       1     1.575    26.982
   28584      ao       1    MUSC   Al0nG       1     1.575    26.982
   28585      ao       1    MUSC   Al0nH       1     1.575    26.982
   28586      ao       1    MUSC   Al0nI       1     1.575    26.982
   28587      st       1    MUSC   Si1aL       1       2.1    28.086
   28588      st       1    MUSC   Si1aM       1       2.1    28.086
   28589      st       1    MUSC   Si1aN       1       2.1    28.086
   28590      st       1    MUSC   Si1aO       1       2.1    28.086
   28591      st       1    MUSC   Si1aP       1       2.1    28.086
   28592      st       1    MUSC   Si1aQ       1       2.1    28.086
   28593      st       1    MUSC   Si1aR       1       2.1    28.086
   28594      st       1    MUSC   Si1aS       1       2.1    28.086
   28595      st       1    MUSC   Si1aT       1       2.1    28.086
   28596      st       1    MUSC   Si1aU       1       2.1    28.086
   28597      st       1    MUSC   Si1aV       1       2.1    28.086
   28598      st       1    MUSC   Si1aW       1       2.1    28.086
   28599      st       1    MUSC   Si1aX       1       2.1    28.086
   28600      st       1    MUSC   Si1aY       1       2.1    28.086
   28601      st       1    MUSC   Si1aZ       1       2.1    28.086
   28602      st       1    MUSC   Si1aa       1       2.1    28.086
   28603      ob       1    MUSC   O04kz       1     -1.05    15.999
   28604      ob       1    MUSC   O04l0       1     -1.05    15.999
   28605      ob       1    MUSC   O04l1       1     -1.05    15.999
   28606      ob       1    MUSC   O04l2       1     -1.05    15.999
   28607      oh       1    MUSC   O04l3       1     -0.95    15.999
   28608      oh       1    MUSC   O04l4       1     -0.95    15.999
   28609      oh       1    MUSC   O04l5       1     -0.95    15.999
   28610      oh       1    MUSC   O04l6       1     -0.95    15.999
   28611      ob       1    MUSC   O04l7       1     -1.05    15.999
   28612      ob       1    MUSC   O04l8       1     -1.05    15.999
   28613      ob       1    MUSC   O04l9       1     -1.05    15.999
   28614      ob       1    MUSC   O04lA       1     -1.05    15.999
   28615      ob       1    MUSC   O04lB       1     -1.05    15.999
   28616      ob       1    MUSC   O04lC       1     -1.05    15.999
   28617      ob       1    MUSC   O04lD       1     -1.05    15.999
   28618      ob       1    MUSC   O04lE       1     -1.05    15.999
   28619      ob       1    MUSC   O04lF       1     -1.05    15.999
   28620      ob       1    MUSC   O04lG       1     -1.05    15.999
   28621      ob       1    MUSC   O04lH       1     -1.05    15.999
   28622      ob       1    MUSC   O04lI       1     -1.05    15.999
   28623      ob       1    MUSC   O04lJ       1     -1.05    15.999
   28624      ob       1    MUSC   O04lK       1     -1.05    15.999
   28625      ob       1    MUSC   O04lL       1     -1.05    15.999
   28626      ob       1    MUSC   O04lM       1     -1.05    15.999
   28627      ob       1    MUSC   O04lN       1     -1.05    15.999
   28628      ob       1    MUSC   O04lO       1     -1.05    15.999
   28629      ob       1    MUSC   O04lP       1     -1.05    15.999
   28630      ob       1    MUSC   O04lQ       1     -1.05    15.999
   28631      oh       1    MUSC   O04lR       1     -0.95    15.999
   28632      oh       1    MUSC   O04lS       1     -0.95    15.999
   28633      oh       1    MUSC   O04lT       1     -0.95    15.999
   28634      oh       1    MUSC   O04lU       1     -0.95    15.999
   28635      ob       1    MUSC   O04lV       1     -1.05    15.999
   28636      ob       1    MUSC   O04lW       1     -1.05    15.999
   28637      ob       1    MUSC   O04lX       1     -1.05    15.999
   28638      ob       1    MUSC   O04lY       1     -1.05    15.999
   28639      ob       1    MUSC   O04lZ       1     -1.05    15.999
   28640      ob       1    MUSC   O04la       1     -1.05    15.999
   28641      ob       1    MUSC   O04lb       1     -1.05    15.999
   28642      ob       1    MUSC   O04lc       1     -1.05    15.999
   28643      ob       1    MUSC   O04ld       1     -1.05    15.999
   28644      ob       1    MUSC   O04le       1     -1.05    15.999
   28645      ob       1    MUSC   O04lf       1     -1.05    15.999
   28646      ob       1    MUSC   O04lg       1     -1.05    15.999
   28647      ob       1    MUSC   O04lh       1     -1.05    15.999
   28648      ob       1    MUSC   O04li       1     -1.05    15.999
   28649      ob       1    MUSC   O04lj       1     -1.05    15.999
   28650      ob       1    MUSC   O04lk       1     -1.05    15.999
   28651       K       1    MUSC   K00IV       1       1.0    39.098
   28652       K       1    MUSC   K00IW       1       1.0    39.098
   28653      ao       1    MUSC   Al0nJ       1     1.575    26.982
   28654      ao       1    MUSC   Al0nK       1     1.575    26.982
   28655      ao       1    MUSC   Al0nL       1     1.575    26.982
   28656      ao       1    MUSC   Al0nM       1     1.575    26.982
   28657      ao       1    MUSC   Al0nN       1     1.575    26.982
   28658      ao       1    MUSC   Al0nO       1     1.575    26.982
   28659      ao       1    MUSC   Al0nP       1     1.575    26.982
   28660      ao       1    MUSC   Al0nQ       1     1.575    26.982
   28661      st       1    MUSC   Si1ab       1       2.1    28.086
   28662      st       1    MUSC   Si1ac       1       2.1    28.086
   28663      st       1    MUSC   Si1ad       1       2.1    28.086
   28664      st       1    MUSC   Si1ae       1       2.1    28.086
   28665      st       1    MUSC   Si1af       1       2.1    28.086
   28666      st       1    MUSC   Si1ag       1       2.1    28.086
   28667      st       1    MUSC   Si1ah       1       2.1    28.086
   28668      st       1    MUSC   Si1ai       1       2.1    28.086
   28669      st       1    MUSC   Si1aj       1       2.1    28.086
   28670      st       1    MUSC   Si1ak       1       2.1    28.086
   28671      st       1    MUSC   Si1al       1       2.1    28.086
   28672      st       1    MUSC   Si1am       1       2.1    28.086
   28673      st       1    MUSC   Si1an       1       2.1    28.086
   28674      st       1    MUSC   Si1ao       1       2.1    28.086
   28675      st       1    MUSC   Si1ap       1       2.1    28.086
   28676      st       1    MUSC   Si1aq       1       2.1    28.086
   28677      ob       1    MUSC   O04ll       1     -1.05    15.999
   28678      ob       1    MUSC   O04lm       1     -1.05    15.999
   28679      ob       1    MUSC   O04ln       1     -1.05    15.999
   28680      ob       1    MUSC   O04lo       1     -1.05    15.999
   28681      oh       1    MUSC   O04lp       1     -0.95    15.999
   28682      oh       1    MUSC   O04lq       1     -0.95    15.999
   28683      oh       1    MUSC   O04lr       1     -0.95    15.999
   28684      oh       1    MUSC   O04ls       1     -0.95    15.999
   28685      ob       1    MUSC   O04lt       1     -1.05    15.999
   28686      ob       1    MUSC   O04lu       1     -1.05    15.999
   28687      ob       1    MUSC   O04lv       1     -1.05    15.999
   28688      ob       1    MUSC   O04lw       1     -1.05    15.999
   28689      ob       1    MUSC   O04lx       1     -1.05    15.999
   28690      ob       1    MUSC   O04ly       1     -1.05    15.999
   28691      ob       1    MUSC   O04lz       1     -1.05    15.999
   28692      ob       1    MUSC   O04m0       1     -1.05    15.999
   28693      ob       1    MUSC   O04m1       1     -1.05    15.999
   28694      ob       1    MUSC   O04m2       1     -1.05    15.999
   28695      ob       1    MUSC   O04m3       1     -1.05    15.999
   28696      ob       1    MUSC   O04m4       1     -1.05    15.999
   28697      ob       1    MUSC   O04m5       1     -1.05    15.999
   28698      ob       1    MUSC   O04m6       1     -1.05    15.999
   28699      ob       1    MUSC   O04m7       1     -1.05    15.999
   28700      ob       1    MUSC   O04m8       1     -1.05    15.999
   28701      ob       1    MUSC   O04m9       1     -1.05    15.999
   28702      ob       1    MUSC   O04mA       1     -1.05    15.999
   28703      ob       1    MUSC   O04mB       1     -1.05    15.999
   28704      ob       1    MUSC   O04mC       1     -1.05    15.999
   28705      oh       1    MUSC   O04mD       1     -0.95    15.999
   28706      oh       1    MUSC   O04mE       1     -0.95    15.999
   28707      oh       1    MUSC   O04mF       1     -0.95    15.999
   28708      oh       1    MUSC   O04mG       1     -0.95    15.999
   28709      ob       1    MUSC   O04mH       1     -1.05    15.999
   28710      ob       1    MUSC   O04mI       1     -1.05    15.999
   28711      ob       1    MUSC   O04mJ       1     -1.05    15.999
   28712      ob       1    MUSC   O04mK       1     -1.05    15.999
   28713      ob       1    MUSC   O04mL       1     -1.05    15.999
   28714      ob       1    MUSC   O04mM       1     -1.05    15.999
   28715      ob       1    MUSC   O04mN       1     -1.05    15.999
   28716      ob       1    MUSC   O04mO       1     -1.05    15.999
   28717      ob       1    MUSC   O04mP       1     -1.05    15.999
   28718      ob       1    MUSC   O04mQ       1     -1.05    15.999
   28719      ob       1    MUSC   O04mR       1     -1.05    15.999
   28720      ob       1    MUSC   O04mS       1     -1.05    15.999
   28721      ob       1    MUSC   O04mT       1     -1.05    15.999
   28722      ob       1    MUSC   O04mU       1     -1.05    15.999
   28723      ob       1    MUSC   O04mV       1     -1.05    15.999
   28724      ob       1    MUSC   O04mW       1     -1.05    15.999
   28725       K       1    MUSC   K00IX       1       1.0    39.098
   28726       K       1    MUSC   K00IY       1       1.0    39.098
   28727       K       1    MUSC   K00IZ       1       1.0    39.098
   28728       K       1    MUSC   K00Ia       1       1.0    39.098
   28729      ao       1    MUSC   Al0nR       1     1.575    26.982
   28730      ao       1    MUSC   Al0nS       1     1.575    26.982
   28731      ao       1    MUSC   Al0nT       1     1.575    26.982
   28732      ao       1    MUSC   Al0nU       1     1.575    26.982
   28733      ao       1    MUSC   Al0nV       1     1.575    26.982
   28734      ao       1    MUSC   Al0nW       1     1.575    26.982
   28735      ao       1    MUSC   Al0nX       1     1.575    26.982
   28736      ao       1    MUSC   Al0nY       1     1.575    26.982
   28737      st       1    MUSC   Si1ar       1       2.1    28.086
   28738      st       1    MUSC   Si1as       1       2.1    28.086
   28739      st       1    MUSC   Si1at       1       2.1    28.086
   28740      st       1    MUSC   Si1au       1       2.1    28.086
   28741      st       1    MUSC   Si1av       1       2.1    28.086
   28742      st       1    MUSC   Si1aw       1       2.1    28.086
   28743      st       1    MUSC   Si1ax       1       2.1    28.086
   28744      st       1    MUSC   Si1ay       1       2.1    28.086
   28745      st       1    MUSC   Si1az       1       2.1    28.086
   28746      st       1    MUSC   Si1b0       1       2.1    28.086
   28747      st       1    MUSC   Si1b1       1       2.1    28.086
   28748      st       1    MUSC   Si1b2       1       2.1    28.086
   28749      st       1    MUSC   Si1b3       1       2.1    28.086
   28750      st       1    MUSC   Si1b4       1       2.1    28.086
   28751      st       1    MUSC   Si1b5       1       2.1    28.086
   28752      st       1    MUSC   Si1b6       1       2.1    28.086
   28753      ob       1    MUSC   O04mX       1     -1.05    15.999
   28754      ob       1    MUSC   O04mY       1     -1.05    15.999
   28755      ob       1    MUSC   O04mZ       1     -1.05    15.999
   28756      ob       1    MUSC   O04ma       1     -1.05    15.999
   28757      oh       1    MUSC   O04mb       1     -0.95    15.999
   28758      oh       1    MUSC   O04mc       1     -0.95    15.999
   28759      oh       1    MUSC   O04md       1     -0.95    15.999
   28760      oh       1    MUSC   O04me       1     -0.95    15.999
   28761      ob       1    MUSC   O04mf       1     -1.05    15.999
   28762      ob       1    MUSC   O04mg       1     -1.05    15.999
   28763      ob       1    MUSC   O04mh       1     -1.05    15.999
   28764      ob       1    MUSC   O04mi       1     -1.05    15.999
   28765      ob       1    MUSC   O04mj       1     -1.05    15.999
   28766      ob       1    MUSC   O04mk       1     -1.05    15.999
   28767      ob       1    MUSC   O04ml       1     -1.05    15.999
   28768      ob       1    MUSC   O04mm       1     -1.05    15.999
   28769      ob       1    MUSC   O04mn       1     -1.05    15.999
   28770      ob       1    MUSC   O04mo       1     -1.05    15.999
   28771      ob       1    MUSC   O04mp       1     -1.05    15.999
   28772      ob       1    MUSC   O04mq       1     -1.05    15.999
   28773      ob       1    MUSC   O04mr       1     -1.05    15.999
   28774      ob       1    MUSC   O04ms       1     -1.05    15.999
   28775      ob       1    MUSC   O04mt       1     -1.05    15.999
   28776      ob       1    MUSC   O04mu       1     -1.05    15.999
   28777      ob       1    MUSC   O04mv       1     -1.05    15.999
   28778      ob       1    MUSC   O04mw       1     -1.05    15.999
   28779      ob       1    MUSC   O04mx       1     -1.05    15.999
   28780      ob       1    MUSC   O04my       1     -1.05    15.999
   28781      oh       1    MUSC   O04mz       1     -0.95    15.999
   28782      oh       1    MUSC   O04n0       1     -0.95    15.999
   28783      oh       1    MUSC   O04n1       1     -0.95    15.999
   28784      oh       1    MUSC   O04n2       1     -0.95    15.999
   28785      ob       1    MUSC   O04n3       1     -1.05    15.999
   28786      ob       1    MUSC   O04n4       1     -1.05    15.999
   28787      ob       1    MUSC   O04n5       1     -1.05    15.999
   28788      ob       1    MUSC   O04n6       1     -1.05    15.999
   28789      ob       1    MUSC   O04n7       1     -1.05    15.999
   28790      ob       1    MUSC   O04n8       1     -1.05    15.999
   28791      ob       1    MUSC   O04n9       1     -1.05    15.999
   28792      ob       1    MUSC   O04nA       1     -1.05    15.999
   28793      ob       1    MUSC   O04nB       1     -1.05    15.999
   28794      ob       1    MUSC   O04nC       1     -1.05    15.999
   28795      ob       1    MUSC   O04nD       1     -1.05    15.999
   28796      ob       1    MUSC   O04nE       1     -1.05    15.999
   28797      ob       1    MUSC   O04nF       1     -1.05    15.999
   28798      ob       1    MUSC   O04nG       1     -1.05    15.999
   28799      ob       1    MUSC   O04nH       1     -1.05    15.999
   28800      ob       1    MUSC   O04nI       1     -1.05    15.999
   28801       K       1    MUSC   K00Ib       1       1.0    39.098
   28802       K       1    MUSC   K00Ic       1       1.0    39.098
   28803      ao       1    MUSC   Al0nZ       1     1.575    26.982
   28804      ao       1    MUSC   Al0na       1     1.575    26.982
   28805      ao       1    MUSC   Al0nb       1     1.575    26.982
   28806      ao       1    MUSC   Al0nc       1     1.575    26.982
   28807      ao       1    MUSC   Al0nd       1     1.575    26.982
   28808      ao       1    MUSC   Al0ne       1     1.575    26.982
   28809      ao       1    MUSC   Al0nf       1     1.575    26.982
   28810      ao       1    MUSC   Al0ng       1     1.575    26.982
   28811      st       1    MUSC   Si1b7       1       2.1    28.086
   28812      st       1    MUSC   Si1b8       1       2.1    28.086
   28813      st       1    MUSC   Si1b9       1       2.1    28.086
   28814      st       1    MUSC   Si1bA       1       2.1    28.086
   28815      st       1    MUSC   Si1bB       1       2.1    28.086
   28816      st       1    MUSC   Si1bC       1       2.1    28.086
   28817      st       1    MUSC   Si1bD       1       2.1    28.086
   28818      st       1    MUSC   Si1bE       1       2.1    28.086
   28819      st       1    MUSC   Si1bF       1       2.1    28.086
   28820      st       1    MUSC   Si1bG       1       2.1    28.086
   28821      st       1    MUSC   Si1bH       1       2.1    28.086
   28822      st       1    MUSC   Si1bI       1       2.1    28.086
   28823      st       1    MUSC   Si1bJ       1       2.1    28.086
   28824      st       1    MUSC   Si1bK       1       2.1    28.086
   28825      st       1    MUSC   Si1bL       1       2.1    28.086
   28826      st       1    MUSC   Si1bM       1       2.1    28.086
   28827      ob       1    MUSC   O04nJ       1     -1.05    15.999
   28828      ob       1    MUSC   O04nK       1     -1.05    15.999
   28829      ob       1    MUSC   O04nL       1     -1.05    15.999
   28830      ob       1    MUSC   O04nM       1     -1.05    15.999
   28831      oh       1    MUSC   O04nN       1     -0.95    15.999
   28832      oh       1    MUSC   O04nO       1     -0.95    15.999
   28833      oh       1    MUSC   O04nP       1     -0.95    15.999
   28834      oh       1    MUSC   O04nQ       1     -0.95    15.999
   28835      ob       1    MUSC   O04nR       1     -1.05    15.999
   28836      ob       1    MUSC   O04nS       1     -1.05    15.999
   28837      ob       1    MUSC   O04nT       1     -1.05    15.999
   28838      ob       1    MUSC   O04nU       1     -1.05    15.999
   28839      ob       1    MUSC   O04nV       1     -1.05    15.999
   28840      ob       1    MUSC   O04nW       1     -1.05    15.999
   28841      ob       1    MUSC   O04nX       1     -1.05    15.999
   28842      ob       1    MUSC   O04nY       1     -1.05    15.999
   28843      ob       1    MUSC   O04nZ       1     -1.05    15.999
   28844      ob       1    MUSC   O04na       1     -1.05    15.999
   28845      ob       1    MUSC   O04nb       1     -1.05    15.999
   28846      ob       1    MUSC   O04nc       1     -1.05    15.999
   28847      ob       1    MUSC   O04nd       1     -1.05    15.999
   28848      ob       1    MUSC   O04ne       1     -1.05    15.999
   28849      ob       1    MUSC   O04nf       1     -1.05    15.999
   28850      ob       1    MUSC   O04ng       1     -1.05    15.999
   28851      ob       1    MUSC   O04nh       1     -1.05    15.999
   28852      ob       1    MUSC   O04ni       1     -1.05    15.999
   28853      ob       1    MUSC   O04nj       1     -1.05    15.999
   28854      ob       1    MUSC   O04nk       1     -1.05    15.999
   28855      oh       1    MUSC   O04nl       1     -0.95    15.999
   28856      oh       1    MUSC   O04nm       1     -0.95    15.999
   28857      oh       1    MUSC   O04nn       1     -0.95    15.999
   28858      oh       1    MUSC   O04no       1     -0.95    15.999
   28859      ob       1    MUSC   O04np       1     -1.05    15.999
   28860      ob       1    MUSC   O04nq       1     -1.05    15.999
   28861      ob       1    MUSC   O04nr       1     -1.05    15.999
   28862      ob       1    MUSC   O04ns       1     -1.05    15.999
   28863      ob       1    MUSC   O04nt       1     -1.05    15.999
   28864      ob       1    MUSC   O04nu       1     -1.05    15.999
   28865      ob       1    MUSC   O04nv       1     -1.05    15.999
   28866      ob       1    MUSC   O04nw       1     -1.05    15.999
   28867      ob       1    MUSC   O04nx       1     -1.05    15.999
   28868      ob       1    MUSC   O04ny       1     -1.05    15.999
   28869      ob       1    MUSC   O04nz       1     -1.05    15.999
   28870      ob       1    MUSC   O04o0       1     -1.05    15.999
   28871      ob       1    MUSC   O04o1       1     -1.05    15.999
   28872      ob       1    MUSC   O04o2       1     -1.05    15.999
   28873      ob       1    MUSC   O04o3       1     -1.05    15.999
   28874      ob       1    MUSC   O04o4       1     -1.05    15.999
   28875       K       1    MUSC   K00Id       1       1.0    39.098
   28876       K       1    MUSC   K00Ie       1       1.0    39.098
   28877       K       1    MUSC   K00If       1       1.0    39.098
   28878       K       1    MUSC   K00Ig       1       1.0    39.098
   28879      ao       1    MUSC   Al0nh       1     1.575    26.982
   28880      ao       1    MUSC   Al0ni       1     1.575    26.982
   28881      ao       1    MUSC   Al0nj       1     1.575    26.982
   28882      ao       1    MUSC   Al0nk       1     1.575    26.982
   28883      ao       1    MUSC   Al0nl       1     1.575    26.982
   28884      ao       1    MUSC   Al0nm       1     1.575    26.982
   28885      ao       1    MUSC   Al0nn       1     1.575    26.982
   28886      ao       1    MUSC   Al0no       1     1.575    26.982
   28887      st       1    MUSC   Si1bN       1       2.1    28.086
   28888      st       1    MUSC   Si1bO       1       2.1    28.086
   28889      st       1    MUSC   Si1bP       1       2.1    28.086
   28890      st       1    MUSC   Si1bQ       1       2.1    28.086
   28891      st       1    MUSC   Si1bR       1       2.1    28.086
   28892      st       1    MUSC   Si1bS       1       2.1    28.086
   28893      st       1    MUSC   Si1bT       1       2.1    28.086
   28894      st       1    MUSC   Si1bU       1       2.1    28.086
   28895      st       1    MUSC   Si1bV       1       2.1    28.086
   28896      st       1    MUSC   Si1bW       1       2.1    28.086
   28897      st       1    MUSC   Si1bX       1       2.1    28.086
   28898      st       1    MUSC   Si1bY       1       2.1    28.086
   28899      st       1    MUSC   Si1bZ       1       2.1    28.086
   28900      st       1    MUSC   Si1ba       1       2.1    28.086
   28901      st       1    MUSC   Si1bb       1       2.1    28.086
   28902      st       1    MUSC   Si1bc       1       2.1    28.086
   28903      ob       1    MUSC   O04o5       1     -1.05    15.999
   28904      ob       1    MUSC   O04o6       1     -1.05    15.999
   28905      ob       1    MUSC   O04o7       1     -1.05    15.999
   28906      ob       1    MUSC   O04o8       1     -1.05    15.999
   28907      oh       1    MUSC   O04o9       1     -0.95    15.999
   28908      oh       1    MUSC   O04oA       1     -0.95    15.999
   28909      oh       1    MUSC   O04oB       1     -0.95    15.999
   28910      oh       1    MUSC   O04oC       1     -0.95    15.999
   28911      ob       1    MUSC   O04oD       1     -1.05    15.999
   28912      ob       1    MUSC   O04oE       1     -1.05    15.999
   28913      ob       1    MUSC   O04oF       1     -1.05    15.999
   28914      ob       1    MUSC   O04oG       1     -1.05    15.999
   28915      ob       1    MUSC   O04oH       1     -1.05    15.999
   28916      ob       1    MUSC   O04oI       1     -1.05    15.999
   28917      ob       1    MUSC   O04oJ       1     -1.05    15.999
   28918      ob       1    MUSC   O04oK       1     -1.05    15.999
   28919      ob       1    MUSC   O04oL       1     -1.05    15.999
   28920      ob       1    MUSC   O04oM       1     -1.05    15.999
   28921      ob       1    MUSC   O04oN       1     -1.05    15.999
   28922      ob       1    MUSC   O04oO       1     -1.05    15.999
   28923      ob       1    MUSC   O04oP       1     -1.05    15.999
   28924      ob       1    MUSC   O04oQ       1     -1.05    15.999
   28925      ob       1    MUSC   O04oR       1     -1.05    15.999
   28926      ob       1    MUSC   O04oS       1     -1.05    15.999
   28927      ob       1    MUSC   O04oT       1     -1.05    15.999
   28928      ob       1    MUSC   O04oU       1     -1.05    15.999
   28929      ob       1    MUSC   O04oV       1     -1.05    15.999
   28930      ob       1    MUSC   O04oW       1     -1.05    15.999
   28931      oh       1    MUSC   O04oX       1     -0.95    15.999
   28932      oh       1    MUSC   O04oY       1     -0.95    15.999
   28933      oh       1    MUSC   O04oZ       1     -0.95    15.999
   28934      oh       1    MUSC   O04oa       1     -0.95    15.999
   28935      ob       1    MUSC   O04ob       1     -1.05    15.999
   28936      ob       1    MUSC   O04oc       1     -1.05    15.999
   28937      ob       1    MUSC   O04od       1     -1.05    15.999
   28938      ob       1    MUSC   O04oe       1     -1.05    15.999
   28939      ob       1    MUSC   O04of       1     -1.05    15.999
   28940      ob       1    MUSC   O04og       1     -1.05    15.999
   28941      ob       1    MUSC   O04oh       1     -1.05    15.999
   28942      ob       1    MUSC   O04oi       1     -1.05    15.999
   28943      ob       1    MUSC   O04oj       1     -1.05    15.999
   28944      ob       1    MUSC   O04ok       1     -1.05    15.999
   28945      ob       1    MUSC   O04ol       1     -1.05    15.999
   28946      ob       1    MUSC   O04om       1     -1.05    15.999
   28947      ob       1    MUSC   O04on       1     -1.05    15.999
   28948      ob       1    MUSC   O04oo       1     -1.05    15.999
   28949      ob       1    MUSC   O04op       1     -1.05    15.999
   28950      ob       1    MUSC   O04oq       1     -1.05    15.999
   28951       K       1    MUSC   K00Ih       1       1.0    39.098
   28952       K       1    MUSC   K00Ii       1       1.0    39.098
   28953      ao       1    MUSC   Al0np       1     1.575    26.982
   28954      ao       1    MUSC   Al0nq       1     1.575    26.982
   28955      ao       1    MUSC   Al0nr       1     1.575    26.982
   28956      ao       1    MUSC   Al0ns       1     1.575    26.982
   28957      ao       1    MUSC   Al0nt       1     1.575    26.982
   28958      ao       1    MUSC   Al0nu       1     1.575    26.982
   28959      ao       1    MUSC   Al0nv       1     1.575    26.982
   28960      ao       1    MUSC   Al0nw       1     1.575    26.982
   28961      st       1    MUSC   Si1bd       1       2.1    28.086
   28962      st       1    MUSC   Si1be       1       2.1    28.086
   28963      st       1    MUSC   Si1bf       1       2.1    28.086
   28964      st       1    MUSC   Si1bg       1       2.1    28.086
   28965      st       1    MUSC   Si1bh       1       2.1    28.086
   28966      st       1    MUSC   Si1bi       1       2.1    28.086
   28967      st       1    MUSC   Si1bj       1       2.1    28.086
   28968      st       1    MUSC   Si1bk       1       2.1    28.086
   28969      st       1    MUSC   Si1bl       1       2.1    28.086
   28970      st       1    MUSC   Si1bm       1       2.1    28.086
   28971      st       1    MUSC   Si1bn       1       2.1    28.086
   28972      st       1    MUSC   Si1bo       1       2.1    28.086
   28973      st       1    MUSC   Si1bp       1       2.1    28.086
   28974      st       1    MUSC   Si1bq       1       2.1    28.086
   28975      st       1    MUSC   Si1br       1       2.1    28.086
   28976      st       1    MUSC   Si1bs       1       2.1    28.086
   28977      ob       1    MUSC   O04or       1     -1.05    15.999
   28978      ob       1    MUSC   O04os       1     -1.05    15.999
   28979      ob       1    MUSC   O04ot       1     -1.05    15.999
   28980      ob       1    MUSC   O04ou       1     -1.05    15.999
   28981      oh       1    MUSC   O04ov       1     -0.95    15.999
   28982      oh       1    MUSC   O04ow       1     -0.95    15.999
   28983      oh       1    MUSC   O04ox       1     -0.95    15.999
   28984      oh       1    MUSC   O04oy       1     -0.95    15.999
   28985      ob       1    MUSC   O04oz       1     -1.05    15.999
   28986      ob       1    MUSC   O04p0       1     -1.05    15.999
   28987      ob       1    MUSC   O04p1       1     -1.05    15.999
   28988      ob       1    MUSC   O04p2       1     -1.05    15.999
   28989      ob       1    MUSC   O04p3       1     -1.05    15.999
   28990      ob       1    MUSC   O04p4       1     -1.05    15.999
   28991      ob       1    MUSC   O04p5       1     -1.05    15.999
   28992      ob       1    MUSC   O04p6       1     -1.05    15.999
   28993      ob       1    MUSC   O04p7       1     -1.05    15.999
   28994      ob       1    MUSC   O04p8       1     -1.05    15.999
   28995      ob       1    MUSC   O04p9       1     -1.05    15.999
   28996      ob       1    MUSC   O04pA       1     -1.05    15.999
   28997      ob       1    MUSC   O04pB       1     -1.05    15.999
   28998      ob       1    MUSC   O04pC       1     -1.05    15.999
   28999      ob       1    MUSC   O04pD       1     -1.05    15.999
   29000      ob       1    MUSC   O04pE       1     -1.05    15.999
   29001      ob       1    MUSC   O04pF       1     -1.05    15.999
   29002      ob       1    MUSC   O04pG       1     -1.05    15.999
   29003      ob       1    MUSC   O04pH       1     -1.05    15.999
   29004      ob       1    MUSC   O04pI       1     -1.05    15.999
   29005      oh       1    MUSC   O04pJ       1     -0.95    15.999
   29006      oh       1    MUSC   O04pK       1     -0.95    15.999
   29007      oh       1    MUSC   O04pL       1     -0.95    15.999
   29008      oh       1    MUSC   O04pM       1     -0.95    15.999
   29009      ob       1    MUSC   O04pN       1     -1.05    15.999
   29010      ob       1    MUSC   O04pO       1     -1.05    15.999
   29011      ob       1    MUSC   O04pP       1     -1.05    15.999
   29012      ob       1    MUSC   O04pQ       1     -1.05    15.999
   29013      ob       1    MUSC   O04pR       1     -1.05    15.999
   29014      ob       1    MUSC   O04pS       1     -1.05    15.999
   29015      ob       1    MUSC   O04pT       1     -1.05    15.999
   29016      ob       1    MUSC   O04pU       1     -1.05    15.999
   29017      ob       1    MUSC   O04pV       1     -1.05    15.999
   29018      ob       1    MUSC   O04pW       1     -1.05    15.999
   29019      ob       1    MUSC   O04pX       1     -1.05    15.999
   29020      ob       1    MUSC   O04pY       1     -1.05    15.999
   29021      ob       1    MUSC   O04pZ       1     -1.05    15.999
   29022      ob       1    MUSC   O04pa       1     -1.05    15.999
   29023      ob       1    MUSC   O04pb       1     -1.05    15.999
   29024      ob       1    MUSC   O04pc       1     -1.05    15.999
   29025       K       1    MUSC   K00Ij       1       1.0    39.098
   29026       K       1    MUSC   K00Ik       1       1.0    39.098
   29027       K       1    MUSC   K00Il       1       1.0    39.098
   29028       K       1    MUSC   K00Im       1       1.0    39.098
   29029      ao       1    MUSC   Al0nx       1     1.575    26.982
   29030      ao       1    MUSC   Al0ny       1     1.575    26.982
   29031      ao       1    MUSC   Al0nz       1     1.575    26.982
   29032      ao       1    MUSC   Al0o0       1     1.575    26.982
   29033      ao       1    MUSC   Al0o1       1     1.575    26.982
   29034      ao       1    MUSC   Al0o2       1     1.575    26.982
   29035      ao       1    MUSC   Al0o3       1     1.575    26.982
   29036      ao       1    MUSC   Al0o4       1     1.575    26.982
   29037      st       1    MUSC   Si1bt       1       2.1    28.086
   29038      st       1    MUSC   Si1bu       1       2.1    28.086
   29039      st       1    MUSC   Si1bv       1       2.1    28.086
   29040      st       1    MUSC   Si1bw       1       2.1    28.086
   29041      st       1    MUSC   Si1bx       1       2.1    28.086
   29042      st       1    MUSC   Si1by       1       2.1    28.086
   29043      st       1    MUSC   Si1bz       1       2.1    28.086
   29044      st       1    MUSC   Si1c0       1       2.1    28.086
   29045      st       1    MUSC   Si1c1       1       2.1    28.086
   29046      st       1    MUSC   Si1c2       1       2.1    28.086
   29047      st       1    MUSC   Si1c3       1       2.1    28.086
   29048      st       1    MUSC   Si1c4       1       2.1    28.086
   29049      st       1    MUSC   Si1c5       1       2.1    28.086
   29050      st       1    MUSC   Si1c6       1       2.1    28.086
   29051      st       1    MUSC   Si1c7       1       2.1    28.086
   29052      st       1    MUSC   Si1c8       1       2.1    28.086
   29053      ob       1    MUSC   O04pd       1     -1.05    15.999
   29054      ob       1    MUSC   O04pe       1     -1.05    15.999
   29055      ob       1    MUSC   O04pf       1     -1.05    15.999
   29056      ob       1    MUSC   O04pg       1     -1.05    15.999
   29057      oh       1    MUSC   O04ph       1     -0.95    15.999
   29058      oh       1    MUSC   O04pi       1     -0.95    15.999
   29059      oh       1    MUSC   O04pj       1     -0.95    15.999
   29060      oh       1    MUSC   O04pk       1     -0.95    15.999
   29061      ob       1    MUSC   O04pl       1     -1.05    15.999
   29062      ob       1    MUSC   O04pm       1     -1.05    15.999
   29063      ob       1    MUSC   O04pn       1     -1.05    15.999
   29064      ob       1    MUSC   O04po       1     -1.05    15.999
   29065      ob       1    MUSC   O04pp       1     -1.05    15.999
   29066      ob       1    MUSC   O04pq       1     -1.05    15.999
   29067      ob       1    MUSC   O04pr       1     -1.05    15.999
   29068      ob       1    MUSC   O04ps       1     -1.05    15.999
   29069      ob       1    MUSC   O04pt       1     -1.05    15.999
   29070      ob       1    MUSC   O04pu       1     -1.05    15.999
   29071      ob       1    MUSC   O04pv       1     -1.05    15.999
   29072      ob       1    MUSC   O04pw       1     -1.05    15.999
   29073      ob       1    MUSC   O04px       1     -1.05    15.999
   29074      ob       1    MUSC   O04py       1     -1.05    15.999
   29075      ob       1    MUSC   O04pz       1     -1.05    15.999
   29076      ob       1    MUSC   O04q0       1     -1.05    15.999
   29077      ob       1    MUSC   O04q1       1     -1.05    15.999
   29078      ob       1    MUSC   O04q2       1     -1.05    15.999
   29079      ob       1    MUSC   O04q3       1     -1.05    15.999
   29080      ob       1    MUSC   O04q4       1     -1.05    15.999
   29081      oh       1    MUSC   O04q5       1     -0.95    15.999
   29082      oh       1    MUSC   O04q6       1     -0.95    15.999
   29083      oh       1    MUSC   O04q7       1     -0.95    15.999
   29084      oh       1    MUSC   O04q8       1     -0.95    15.999
   29085      ob       1    MUSC   O04q9       1     -1.05    15.999
   29086      ob       1    MUSC   O04qA       1     -1.05    15.999
   29087      ob       1    MUSC   O04qB       1     -1.05    15.999
   29088      ob       1    MUSC   O04qC       1     -1.05    15.999
   29089      ob       1    MUSC   O04qD       1     -1.05    15.999
   29090      ob       1    MUSC   O04qE       1     -1.05    15.999
   29091      ob       1    MUSC   O04qF       1     -1.05    15.999
   29092      ob       1    MUSC   O04qG       1     -1.05    15.999
   29093      ob       1    MUSC   O04qH       1     -1.05    15.999
   29094      ob       1    MUSC   O04qI       1     -1.05    15.999
   29095      ob       1    MUSC   O04qJ       1     -1.05    15.999
   29096      ob       1    MUSC   O04qK       1     -1.05    15.999
   29097      ob       1    MUSC   O04qL       1     -1.05    15.999
   29098      ob       1    MUSC   O04qM       1     -1.05    15.999
   29099      ob       1    MUSC   O04qN       1     -1.05    15.999
   29100      ob       1    MUSC   O04qO       1     -1.05    15.999
   29101       K       1    MUSC   K00In       1       1.0    39.098
   29102       K       1    MUSC   K00Io       1       1.0    39.098
   29103      ao       1    MUSC   Al0o5       1     1.575    26.982
   29104      ao       1    MUSC   Al0o6       1     1.575    26.982
   29105      ao       1    MUSC   Al0o7       1     1.575    26.982
   29106      ao       1    MUSC   Al0o8       1     1.575    26.982
   29107      ao       1    MUSC   Al0o9       1     1.575    26.982
   29108      ao       1    MUSC   Al0oA       1     1.575    26.982
   29109      ao       1    MUSC   Al0oB       1     1.575    26.982
   29110      ao       1    MUSC   Al0oC       1     1.575    26.982
   29111      st       1    MUSC   Si1c9       1       2.1    28.086
   29112      st       1    MUSC   Si1cA       1       2.1    28.086
   29113      st       1    MUSC   Si1cB       1       2.1    28.086
   29114      st       1    MUSC   Si1cC       1       2.1    28.086
   29115      st       1    MUSC   Si1cD       1       2.1    28.086
   29116      st       1    MUSC   Si1cE       1       2.1    28.086
   29117      st       1    MUSC   Si1cF       1       2.1    28.086
   29118      st       1    MUSC   Si1cG       1       2.1    28.086
   29119      st       1    MUSC   Si1cH       1       2.1    28.086
   29120      st       1    MUSC   Si1cI       1       2.1    28.086
   29121      st       1    MUSC   Si1cJ       1       2.1    28.086
   29122      st       1    MUSC   Si1cK       1       2.1    28.086
   29123      st       1    MUSC   Si1cL       1       2.1    28.086
   29124      st       1    MUSC   Si1cM       1       2.1    28.086
   29125      st       1    MUSC   Si1cN       1       2.1    28.086
   29126      st       1    MUSC   Si1cO       1       2.1    28.086
   29127      ob       1    MUSC   O04qP       1     -1.05    15.999
   29128      ob       1    MUSC   O04qQ       1     -1.05    15.999
   29129      ob       1    MUSC   O04qR       1     -1.05    15.999
   29130      ob       1    MUSC   O04qS       1     -1.05    15.999
   29131      oh       1    MUSC   O04qT       1     -0.95    15.999
   29132      oh       1    MUSC   O04qU       1     -0.95    15.999
   29133      oh       1    MUSC   O04qV       1     -0.95    15.999
   29134      oh       1    MUSC   O04qW       1     -0.95    15.999
   29135      ob       1    MUSC   O04qX       1     -1.05    15.999
   29136      ob       1    MUSC   O04qY       1     -1.05    15.999
   29137      ob       1    MUSC   O04qZ       1     -1.05    15.999
   29138      ob       1    MUSC   O04qa       1     -1.05    15.999
   29139      ob       1    MUSC   O04qb       1     -1.05    15.999
   29140      ob       1    MUSC   O04qc       1     -1.05    15.999
   29141      ob       1    MUSC   O04qd       1     -1.05    15.999
   29142      ob       1    MUSC   O04qe       1     -1.05    15.999
   29143      ob       1    MUSC   O04qf       1     -1.05    15.999
   29144      ob       1    MUSC   O04qg       1     -1.05    15.999
   29145      ob       1    MUSC   O04qh       1     -1.05    15.999
   29146      ob       1    MUSC   O04qi       1     -1.05    15.999
   29147      ob       1    MUSC   O04qj       1     -1.05    15.999
   29148      ob       1    MUSC   O04qk       1     -1.05    15.999
   29149      ob       1    MUSC   O04ql       1     -1.05    15.999
   29150      ob       1    MUSC   O04qm       1     -1.05    15.999
   29151      ob       1    MUSC   O04qn       1     -1.05    15.999
   29152      ob       1    MUSC   O04qo       1     -1.05    15.999
   29153      ob       1    MUSC   O04qp       1     -1.05    15.999
   29154      ob       1    MUSC   O04qq       1     -1.05    15.999
   29155      oh       1    MUSC   O04qr       1     -0.95    15.999
   29156      oh       1    MUSC   O04qs       1     -0.95    15.999
   29157      oh       1    MUSC   O04qt       1     -0.95    15.999
   29158      oh       1    MUSC   O04qu       1     -0.95    15.999
   29159      ob       1    MUSC   O04qv       1     -1.05    15.999
   29160      ob       1    MUSC   O04qw       1     -1.05    15.999
   29161      ob       1    MUSC   O04qx       1     -1.05    15.999
   29162      ob       1    MUSC   O04qy       1     -1.05    15.999
   29163      ob       1    MUSC   O04qz       1     -1.05    15.999
   29164      ob       1    MUSC   O04r0       1     -1.05    15.999
   29165      ob       1    MUSC   O04r1       1     -1.05    15.999
   29166      ob       1    MUSC   O04r2       1     -1.05    15.999
   29167      ob       1    MUSC   O04r3       1     -1.05    15.999
   29168      ob       1    MUSC   O04r4       1     -1.05    15.999
   29169      ob       1    MUSC   O04r5       1     -1.05    15.999
   29170      ob       1    MUSC   O04r6       1     -1.05    15.999
   29171      ob       1    MUSC   O04r7       1     -1.05    15.999
   29172      ob       1    MUSC   O04r8       1     -1.05    15.999
   29173      ob       1    MUSC   O04r9       1     -1.05    15.999
   29174      ob       1    MUSC   O04rA       1     -1.05    15.999
   29175       K       1    MUSC   K00Ip       1       1.0    39.098
   29176       K       1    MUSC   K00Iq       1       1.0    39.098
   29177       K       1    MUSC   K00Ir       1       1.0    39.098
   29178       K       1    MUSC   K00Is       1       1.0    39.098
   29179      ao       1    MUSC   Al0oD       1     1.575    26.982
   29180      ao       1    MUSC   Al0oE       1     1.575    26.982
   29181      ao       1    MUSC   Al0oF       1     1.575    26.982
   29182      ao       1    MUSC   Al0oG       1     1.575    26.982
   29183      ao       1    MUSC   Al0oH       1     1.575    26.982
   29184      ao       1    MUSC   Al0oI       1     1.575    26.982
   29185      ao       1    MUSC   Al0oJ       1     1.575    26.982
   29186      ao       1    MUSC   Al0oK       1     1.575    26.982
   29187      st       1    MUSC   Si1cP       1       2.1    28.086
   29188      st       1    MUSC   Si1cQ       1       2.1    28.086
   29189      st       1    MUSC   Si1cR       1       2.1    28.086
   29190      st       1    MUSC   Si1cS       1       2.1    28.086
   29191      st       1    MUSC   Si1cT       1       2.1    28.086
   29192      st       1    MUSC   Si1cU       1       2.1    28.086
   29193      st       1    MUSC   Si1cV       1       2.1    28.086
   29194      st       1    MUSC   Si1cW       1       2.1    28.086
   29195      st       1    MUSC   Si1cX       1       2.1    28.086
   29196      st       1    MUSC   Si1cY       1       2.1    28.086
   29197      st       1    MUSC   Si1cZ       1       2.1    28.086
   29198      st       1    MUSC   Si1ca       1       2.1    28.086
   29199      st       1    MUSC   Si1cb       1       2.1    28.086
   29200      st       1    MUSC   Si1cc       1       2.1    28.086
   29201      st       1    MUSC   Si1cd       1       2.1    28.086
   29202      st       1    MUSC   Si1ce       1       2.1    28.086
   29203      ob       1    MUSC   O04rB       1     -1.05    15.999
   29204      ob       1    MUSC   O04rC       1     -1.05    15.999
   29205      ob       1    MUSC   O04rD       1     -1.05    15.999
   29206      ob       1    MUSC   O04rE       1     -1.05    15.999
   29207      oh       1    MUSC   O04rF       1     -0.95    15.999
   29208      oh       1    MUSC   O04rG       1     -0.95    15.999
   29209      oh       1    MUSC   O04rH       1     -0.95    15.999
   29210      oh       1    MUSC   O04rI       1     -0.95    15.999
   29211      ob       1    MUSC   O04rJ       1     -1.05    15.999
   29212      ob       1    MUSC   O04rK       1     -1.05    15.999
   29213      ob       1    MUSC   O04rL       1     -1.05    15.999
   29214      ob       1    MUSC   O04rM       1     -1.05    15.999
   29215      ob       1    MUSC   O04rN       1     -1.05    15.999
   29216      ob       1    MUSC   O04rO       1     -1.05    15.999
   29217      ob       1    MUSC   O04rP       1     -1.05    15.999
   29218      ob       1    MUSC   O04rQ       1     -1.05    15.999
   29219      ob       1    MUSC   O04rR       1     -1.05    15.999
   29220      ob       1    MUSC   O04rS       1     -1.05    15.999
   29221      ob       1    MUSC   O04rT       1     -1.05    15.999
   29222      ob       1    MUSC   O04rU       1     -1.05    15.999
   29223      ob       1    MUSC   O04rV       1     -1.05    15.999
   29224      ob       1    MUSC   O04rW       1     -1.05    15.999
   29225      ob       1    MUSC   O04rX       1     -1.05    15.999
   29226      ob       1    MUSC   O04rY       1     -1.05    15.999
   29227      ob       1    MUSC   O04rZ       1     -1.05    15.999
   29228      ob       1    MUSC   O04ra       1     -1.05    15.999
   29229      ob       1    MUSC   O04rb       1     -1.05    15.999
   29230      ob       1    MUSC   O04rc       1     -1.05    15.999
   29231      oh       1    MUSC   O04rd       1     -0.95    15.999
   29232      oh       1    MUSC   O04re       1     -0.95    15.999
   29233      oh       1    MUSC   O04rf       1     -0.95    15.999
   29234      oh       1    MUSC   O04rg       1     -0.95    15.999
   29235      ob       1    MUSC   O04rh       1     -1.05    15.999
   29236      ob       1    MUSC   O04ri       1     -1.05    15.999
   29237      ob       1    MUSC   O04rj       1     -1.05    15.999
   29238      ob       1    MUSC   O04rk       1     -1.05    15.999
   29239      ob       1    MUSC   O04rl       1     -1.05    15.999
   29240      ob       1    MUSC   O04rm       1     -1.05    15.999
   29241      ob       1    MUSC   O04rn       1     -1.05    15.999
   29242      ob       1    MUSC   O04ro       1     -1.05    15.999
   29243      ob       1    MUSC   O04rp       1     -1.05    15.999
   29244      ob       1    MUSC   O04rq       1     -1.05    15.999
   29245      ob       1    MUSC   O04rr       1     -1.05    15.999
   29246      ob       1    MUSC   O04rs       1     -1.05    15.999
   29247      ob       1    MUSC   O04rt       1     -1.05    15.999
   29248      ob       1    MUSC   O04ru       1     -1.05    15.999
   29249      ob       1    MUSC   O04rv       1     -1.05    15.999
   29250      ob       1    MUSC   O04rw       1     -1.05    15.999
   29251       K       1    MUSC   K00It       1       1.0    39.098
   29252       K       1    MUSC   K00Iu       1       1.0    39.098
   29253      ao       1    MUSC   Al0oL       1     1.575    26.982
   29254      ao       1    MUSC   Al0oM       1     1.575    26.982
   29255      ao       1    MUSC   Al0oN       1     1.575    26.982
   29256      ao       1    MUSC   Al0oO       1     1.575    26.982
   29257      ao       1    MUSC   Al0oP       1     1.575    26.982
   29258      ao       1    MUSC   Al0oQ       1     1.575    26.982
   29259      ao       1    MUSC   Al0oR       1     1.575    26.982
   29260      ao       1    MUSC   Al0oS       1     1.575    26.982
   29261      st       1    MUSC   Si1cf       1       2.1    28.086
   29262      st       1    MUSC   Si1cg       1       2.1    28.086
   29263      st       1    MUSC   Si1ch       1       2.1    28.086
   29264      st       1    MUSC   Si1ci       1       2.1    28.086
   29265      st       1    MUSC   Si1cj       1       2.1    28.086
   29266      st       1    MUSC   Si1ck       1       2.1    28.086
   29267      st       1    MUSC   Si1cl       1       2.1    28.086
   29268      st       1    MUSC   Si1cm       1       2.1    28.086
   29269      st       1    MUSC   Si1cn       1       2.1    28.086
   29270      st       1    MUSC   Si1co       1       2.1    28.086
   29271      st       1    MUSC   Si1cp       1       2.1    28.086
   29272      st       1    MUSC   Si1cq       1       2.1    28.086
   29273      st       1    MUSC   Si1cr       1       2.1    28.086
   29274      st       1    MUSC   Si1cs       1       2.1    28.086
   29275      st       1    MUSC   Si1ct       1       2.1    28.086
   29276      st       1    MUSC   Si1cu       1       2.1    28.086
   29277      ob       1    MUSC   O04rx       1     -1.05    15.999
   29278      ob       1    MUSC   O04ry       1     -1.05    15.999
   29279      ob       1    MUSC   O04rz       1     -1.05    15.999
   29280      ob       1    MUSC   O04s0       1     -1.05    15.999
   29281      oh       1    MUSC   O04s1       1     -0.95    15.999
   29282      oh       1    MUSC   O04s2       1     -0.95    15.999
   29283      oh       1    MUSC   O04s3       1     -0.95    15.999
   29284      oh       1    MUSC   O04s4       1     -0.95    15.999
   29285      ob       1    MUSC   O04s5       1     -1.05    15.999
   29286      ob       1    MUSC   O04s6       1     -1.05    15.999
   29287      ob       1    MUSC   O04s7       1     -1.05    15.999
   29288      ob       1    MUSC   O04s8       1     -1.05    15.999
   29289      ob       1    MUSC   O04s9       1     -1.05    15.999
   29290      ob       1    MUSC   O04sA       1     -1.05    15.999
   29291      ob       1    MUSC   O04sB       1     -1.05    15.999
   29292      ob       1    MUSC   O04sC       1     -1.05    15.999
   29293      ob       1    MUSC   O04sD       1     -1.05    15.999
   29294      ob       1    MUSC   O04sE       1     -1.05    15.999
   29295      ob       1    MUSC   O04sF       1     -1.05    15.999
   29296      ob       1    MUSC   O04sG       1     -1.05    15.999
   29297      ob       1    MUSC   O04sH       1     -1.05    15.999
   29298      ob       1    MUSC   O04sI       1     -1.05    15.999
   29299      ob       1    MUSC   O04sJ       1     -1.05    15.999
   29300      ob       1    MUSC   O04sK       1     -1.05    15.999
   29301      ob       1    MUSC   O04sL       1     -1.05    15.999
   29302      ob       1    MUSC   O04sM       1     -1.05    15.999
   29303      ob       1    MUSC   O04sN       1     -1.05    15.999
   29304      ob       1    MUSC   O04sO       1     -1.05    15.999
   29305      oh       1    MUSC   O04sP       1     -0.95    15.999
   29306      oh       1    MUSC   O04sQ       1     -0.95    15.999
   29307      oh       1    MUSC   O04sR       1     -0.95    15.999
   29308      oh       1    MUSC   O04sS       1     -0.95    15.999
   29309      ob       1    MUSC   O04sT       1     -1.05    15.999
   29310      ob       1    MUSC   O04sU       1     -1.05    15.999
   29311      ob       1    MUSC   O04sV       1     -1.05    15.999
   29312      ob       1    MUSC   O04sW       1     -1.05    15.999
   29313      ob       1    MUSC   O04sX       1     -1.05    15.999
   29314      ob       1    MUSC   O04sY       1     -1.05    15.999
   29315      ob       1    MUSC   O04sZ       1     -1.05    15.999
   29316      ob       1    MUSC   O04sa       1     -1.05    15.999
   29317      ob       1    MUSC   O04sb       1     -1.05    15.999
   29318      ob       1    MUSC   O04sc       1     -1.05    15.999
   29319      ob       1    MUSC   O04sd       1     -1.05    15.999
   29320      ob       1    MUSC   O04se       1     -1.05    15.999
   29321      ob       1    MUSC   O04sf       1     -1.05    15.999
   29322      ob       1    MUSC   O04sg       1     -1.05    15.999
   29323      ob       1    MUSC   O04sh       1     -1.05    15.999
   29324      ob       1    MUSC   O04si       1     -1.05    15.999
   29325       K       1    MUSC   K00Iv       1       1.0    39.098
   29326       K       1    MUSC   K00Iw       1       1.0    39.098
   29327       K       1    MUSC   K00Ix       1       1.0    39.098
   29328       K       1    MUSC   K00Iy       1       1.0    39.098
   29329      ao       1    MUSC   Al0oT       1     1.575    26.982
   29330      ao       1    MUSC   Al0oU       1     1.575    26.982
   29331      ao       1    MUSC   Al0oV       1     1.575    26.982
   29332      ao       1    MUSC   Al0oW       1     1.575    26.982
   29333      ao       1    MUSC   Al0oX       1     1.575    26.982
   29334      ao       1    MUSC   Al0oY       1     1.575    26.982
   29335      ao       1    MUSC   Al0oZ       1     1.575    26.982
   29336      ao       1    MUSC   Al0oa       1     1.575    26.982
   29337      st       1    MUSC   Si1cv       1       2.1    28.086
   29338      st       1    MUSC   Si1cw       1       2.1    28.086
   29339      st       1    MUSC   Si1cx       1       2.1    28.086
   29340      st       1    MUSC   Si1cy       1       2.1    28.086
   29341      st       1    MUSC   Si1cz       1       2.1    28.086
   29342      st       1    MUSC   Si1d0       1       2.1    28.086
   29343      st       1    MUSC   Si1d1       1       2.1    28.086
   29344      st       1    MUSC   Si1d2       1       2.1    28.086
   29345      st       1    MUSC   Si1d3       1       2.1    28.086
   29346      st       1    MUSC   Si1d4       1       2.1    28.086
   29347      st       1    MUSC   Si1d5       1       2.1    28.086
   29348      st       1    MUSC   Si1d6       1       2.1    28.086
   29349      st       1    MUSC   Si1d7       1       2.1    28.086
   29350      st       1    MUSC   Si1d8       1       2.1    28.086
   29351      st       1    MUSC   Si1d9       1       2.1    28.086
   29352      st       1    MUSC   Si1dA       1       2.1    28.086
   29353      ob       1    MUSC   O04sj       1     -1.05    15.999
   29354      ob       1    MUSC   O04sk       1     -1.05    15.999
   29355      ob       1    MUSC   O04sl       1     -1.05    15.999
   29356      ob       1    MUSC   O04sm       1     -1.05    15.999
   29357      oh       1    MUSC   O04sn       1     -0.95    15.999
   29358      oh       1    MUSC   O04so       1     -0.95    15.999
   29359      oh       1    MUSC   O04sp       1     -0.95    15.999
   29360      oh       1    MUSC   O04sq       1     -0.95    15.999
   29361      ob       1    MUSC   O04sr       1     -1.05    15.999
   29362      ob       1    MUSC   O04ss       1     -1.05    15.999
   29363      ob       1    MUSC   O04st       1     -1.05    15.999
   29364      ob       1    MUSC   O04su       1     -1.05    15.999
   29365      ob       1    MUSC   O04sv       1     -1.05    15.999
   29366      ob       1    MUSC   O04sw       1     -1.05    15.999
   29367      ob       1    MUSC   O04sx       1     -1.05    15.999
   29368      ob       1    MUSC   O04sy       1     -1.05    15.999
   29369      ob       1    MUSC   O04sz       1     -1.05    15.999
   29370      ob       1    MUSC   O04t0       1     -1.05    15.999
   29371      ob       1    MUSC   O04t1       1     -1.05    15.999
   29372      ob       1    MUSC   O04t2       1     -1.05    15.999
   29373      ob       1    MUSC   O04t3       1     -1.05    15.999
   29374      ob       1    MUSC   O04t4       1     -1.05    15.999
   29375      ob       1    MUSC   O04t5       1     -1.05    15.999
   29376      ob       1    MUSC   O04t6       1     -1.05    15.999
   29377      ob       1    MUSC   O04t7       1     -1.05    15.999
   29378      ob       1    MUSC   O04t8       1     -1.05    15.999
   29379      ob       1    MUSC   O04t9       1     -1.05    15.999
   29380      ob       1    MUSC   O04tA       1     -1.05    15.999
   29381      oh       1    MUSC   O04tB       1     -0.95    15.999
   29382      oh       1    MUSC   O04tC       1     -0.95    15.999
   29383      oh       1    MUSC   O04tD       1     -0.95    15.999
   29384      oh       1    MUSC   O04tE       1     -0.95    15.999
   29385      ob       1    MUSC   O04tF       1     -1.05    15.999
   29386      ob       1    MUSC   O04tG       1     -1.05    15.999
   29387      ob       1    MUSC   O04tH       1     -1.05    15.999
   29388      ob       1    MUSC   O04tI       1     -1.05    15.999
   29389      ob       1    MUSC   O04tJ       1     -1.05    15.999
   29390      ob       1    MUSC   O04tK       1     -1.05    15.999
   29391      ob       1    MUSC   O04tL       1     -1.05    15.999
   29392      ob       1    MUSC   O04tM       1     -1.05    15.999
   29393      ob       1    MUSC   O04tN       1     -1.05    15.999
   29394      ob       1    MUSC   O04tO       1     -1.05    15.999
   29395      ob       1    MUSC   O04tP       1     -1.05    15.999
   29396      ob       1    MUSC   O04tQ       1     -1.05    15.999
   29397      ob       1    MUSC   O04tR       1     -1.05    15.999
   29398      ob       1    MUSC   O04tS       1     -1.05    15.999
   29399      ob       1    MUSC   O04tT       1     -1.05    15.999
   29400      ob       1    MUSC   O04tU       1     -1.05    15.999
   29401       K       1    MUSC   K00Iz       1       1.0    39.098
   29402       K       1    MUSC   K00J0       1       1.0    39.098
   29403      ao       1    MUSC   Al0ob       1     1.575    26.982
   29404      ao       1    MUSC   Al0oc       1     1.575    26.982
   29405      ao       1    MUSC   Al0od       1     1.575    26.982
   29406      ao       1    MUSC   Al0oe       1     1.575    26.982
   29407      ao       1    MUSC   Al0of       1     1.575    26.982
   29408      ao       1    MUSC   Al0og       1     1.575    26.982
   29409      ao       1    MUSC   Al0oh       1     1.575    26.982
   29410      ao       1    MUSC   Al0oi       1     1.575    26.982
   29411      st       1    MUSC   Si1dB       1       2.1    28.086
   29412      st       1    MUSC   Si1dC       1       2.1    28.086
   29413      st       1    MUSC   Si1dD       1       2.1    28.086
   29414      st       1    MUSC   Si1dE       1       2.1    28.086
   29415      st       1    MUSC   Si1dF       1       2.1    28.086
   29416      st       1    MUSC   Si1dG       1       2.1    28.086
   29417      st       1    MUSC   Si1dH       1       2.1    28.086
   29418      st       1    MUSC   Si1dI       1       2.1    28.086
   29419      st       1    MUSC   Si1dJ       1       2.1    28.086
   29420      st       1    MUSC   Si1dK       1       2.1    28.086
   29421      st       1    MUSC   Si1dL       1       2.1    28.086
   29422      st       1    MUSC   Si1dM       1       2.1    28.086
   29423      st       1    MUSC   Si1dN       1       2.1    28.086
   29424      st       1    MUSC   Si1dO       1       2.1    28.086
   29425      st       1    MUSC   Si1dP       1       2.1    28.086
   29426      st       1    MUSC   Si1dQ       1       2.1    28.086
   29427      ob       1    MUSC   O04tV       1     -1.05    15.999
   29428      ob       1    MUSC   O04tW       1     -1.05    15.999
   29429      ob       1    MUSC   O04tX       1     -1.05    15.999
   29430      ob       1    MUSC   O04tY       1     -1.05    15.999
   29431      oh       1    MUSC   O04tZ       1     -0.95    15.999
   29432      oh       1    MUSC   O04ta       1     -0.95    15.999
   29433      oh       1    MUSC   O04tb       1     -0.95    15.999
   29434      oh       1    MUSC   O04tc       1     -0.95    15.999
   29435      ob       1    MUSC   O04td       1     -1.05    15.999
   29436      ob       1    MUSC   O04te       1     -1.05    15.999
   29437      ob       1    MUSC   O04tf       1     -1.05    15.999
   29438      ob       1    MUSC   O04tg       1     -1.05    15.999
   29439      ob       1    MUSC   O04th       1     -1.05    15.999
   29440      ob       1    MUSC   O04ti       1     -1.05    15.999
   29441      ob       1    MUSC   O04tj       1     -1.05    15.999
   29442      ob       1    MUSC   O04tk       1     -1.05    15.999
   29443      ob       1    MUSC   O04tl       1     -1.05    15.999
   29444      ob       1    MUSC   O04tm       1     -1.05    15.999
   29445      ob       1    MUSC   O04tn       1     -1.05    15.999
   29446      ob       1    MUSC   O04to       1     -1.05    15.999
   29447      ob       1    MUSC   O04tp       1     -1.05    15.999
   29448      ob       1    MUSC   O04tq       1     -1.05    15.999
   29449      ob       1    MUSC   O04tr       1     -1.05    15.999
   29450      ob       1    MUSC   O04ts       1     -1.05    15.999
   29451      ob       1    MUSC   O04tt       1     -1.05    15.999
   29452      ob       1    MUSC   O04tu       1     -1.05    15.999
   29453      ob       1    MUSC   O04tv       1     -1.05    15.999
   29454      ob       1    MUSC   O04tw       1     -1.05    15.999
   29455      oh       1    MUSC   O04tx       1     -0.95    15.999
   29456      oh       1    MUSC   O04ty       1     -0.95    15.999
   29457      oh       1    MUSC   O04tz       1     -0.95    15.999
   29458      oh       1    MUSC   O04u0       1     -0.95    15.999
   29459      ob       1    MUSC   O04u1       1     -1.05    15.999
   29460      ob       1    MUSC   O04u2       1     -1.05    15.999
   29461      ob       1    MUSC   O04u3       1     -1.05    15.999
   29462      ob       1    MUSC   O04u4       1     -1.05    15.999
   29463      ob       1    MUSC   O04u5       1     -1.05    15.999
   29464      ob       1    MUSC   O04u6       1     -1.05    15.999
   29465      ob       1    MUSC   O04u7       1     -1.05    15.999
   29466      ob       1    MUSC   O04u8       1     -1.05    15.999
   29467      ob       1    MUSC   O04u9       1     -1.05    15.999
   29468      ob       1    MUSC   O04uA       1     -1.05    15.999
   29469      ob       1    MUSC   O04uB       1     -1.05    15.999
   29470      ob       1    MUSC   O04uC       1     -1.05    15.999
   29471      ob       1    MUSC   O04uD       1     -1.05    15.999
   29472      ob       1    MUSC   O04uE       1     -1.05    15.999
   29473      ob       1    MUSC   O04uF       1     -1.05    15.999
   29474      ob       1    MUSC   O04uG       1     -1.05    15.999
   29475       K       1    MUSC   K00J1       1       1.0    39.098
   29476       K       1    MUSC   K00J2       1       1.0    39.098
   29477       K       1    MUSC   K00J3       1       1.0    39.098
   29478       K       1    MUSC   K00J4       1       1.0    39.098
   29479      ao       1    MUSC   Al0oj       1     1.575    26.982
   29480      ao       1    MUSC   Al0ok       1     1.575    26.982
   29481      ao       1    MUSC   Al0ol       1     1.575    26.982
   29482      ao       1    MUSC   Al0om       1     1.575    26.982
   29483      ao       1    MUSC   Al0on       1     1.575    26.982
   29484      ao       1    MUSC   Al0oo       1     1.575    26.982
   29485      ao       1    MUSC   Al0op       1     1.575    26.982
   29486      ao       1    MUSC   Al0oq       1     1.575    26.982
   29487      st       1    MUSC   Si1dR       1       2.1    28.086
   29488      st       1    MUSC   Si1dS       1       2.1    28.086
   29489      st       1    MUSC   Si1dT       1       2.1    28.086
   29490      st       1    MUSC   Si1dU       1       2.1    28.086
   29491      st       1    MUSC   Si1dV       1       2.1    28.086
   29492      st       1    MUSC   Si1dW       1       2.1    28.086
   29493      st       1    MUSC   Si1dX       1       2.1    28.086
   29494      st       1    MUSC   Si1dY       1       2.1    28.086
   29495      st       1    MUSC   Si1dZ       1       2.1    28.086
   29496      st       1    MUSC   Si1da       1       2.1    28.086
   29497      st       1    MUSC   Si1db       1       2.1    28.086
   29498      st       1    MUSC   Si1dc       1       2.1    28.086
   29499      st       1    MUSC   Si1dd       1       2.1    28.086
   29500      st       1    MUSC   Si1de       1       2.1    28.086
   29501      st       1    MUSC   Si1df       1       2.1    28.086
   29502      st       1    MUSC   Si1dg       1       2.1    28.086
   29503      ob       1    MUSC   O04uH       1     -1.05    15.999
   29504      ob       1    MUSC   O04uI       1     -1.05    15.999
   29505      ob       1    MUSC   O04uJ       1     -1.05    15.999
   29506      ob       1    MUSC   O04uK       1     -1.05    15.999
   29507      oh       1    MUSC   O04uL       1     -0.95    15.999
   29508      oh       1    MUSC   O04uM       1     -0.95    15.999
   29509      oh       1    MUSC   O04uN       1     -0.95    15.999
   29510      oh       1    MUSC   O04uO       1     -0.95    15.999
   29511      ob       1    MUSC   O04uP       1     -1.05    15.999
   29512      ob       1    MUSC   O04uQ       1     -1.05    15.999
   29513      ob       1    MUSC   O04uR       1     -1.05    15.999
   29514      ob       1    MUSC   O04uS       1     -1.05    15.999
   29515      ob       1    MUSC   O04uT       1     -1.05    15.999
   29516      ob       1    MUSC   O04uU       1     -1.05    15.999
   29517      ob       1    MUSC   O04uV       1     -1.05    15.999
   29518      ob       1    MUSC   O04uW       1     -1.05    15.999
   29519      ob       1    MUSC   O04uX       1     -1.05    15.999
   29520      ob       1    MUSC   O04uY       1     -1.05    15.999
   29521      ob       1    MUSC   O04uZ       1     -1.05    15.999
   29522      ob       1    MUSC   O04ua       1     -1.05    15.999
   29523      ob       1    MUSC   O04ub       1     -1.05    15.999
   29524      ob       1    MUSC   O04uc       1     -1.05    15.999
   29525      ob       1    MUSC   O04ud       1     -1.05    15.999
   29526      ob       1    MUSC   O04ue       1     -1.05    15.999
   29527      ob       1    MUSC   O04uf       1     -1.05    15.999
   29528      ob       1    MUSC   O04ug       1     -1.05    15.999
   29529      ob       1    MUSC   O04uh       1     -1.05    15.999
   29530      ob       1    MUSC   O04ui       1     -1.05    15.999
   29531      oh       1    MUSC   O04uj       1     -0.95    15.999
   29532      oh       1    MUSC   O04uk       1     -0.95    15.999
   29533      oh       1    MUSC   O04ul       1     -0.95    15.999
   29534      oh       1    MUSC   O04um       1     -0.95    15.999
   29535      ob       1    MUSC   O04un       1     -1.05    15.999
   29536      ob       1    MUSC   O04uo       1     -1.05    15.999
   29537      ob       1    MUSC   O04up       1     -1.05    15.999
   29538      ob       1    MUSC   O04uq       1     -1.05    15.999
   29539      ob       1    MUSC   O04ur       1     -1.05    15.999
   29540      ob       1    MUSC   O04us       1     -1.05    15.999
   29541      ob       1    MUSC   O04ut       1     -1.05    15.999
   29542      ob       1    MUSC   O04uu       1     -1.05    15.999
   29543      ob       1    MUSC   O04uv       1     -1.05    15.999
   29544      ob       1    MUSC   O04uw       1     -1.05    15.999
   29545      ob       1    MUSC   O04ux       1     -1.05    15.999
   29546      ob       1    MUSC   O04uy       1     -1.05    15.999
   29547      ob       1    MUSC   O04uz       1     -1.05    15.999
   29548      ob       1    MUSC   O04v0       1     -1.05    15.999
   29549      ob       1    MUSC   O04v1       1     -1.05    15.999
   29550      ob       1    MUSC   O04v2       1     -1.05    15.999
   29551       K       1    MUSC   K00J5       1       1.0    39.098
   29552       K       1    MUSC   K00J6       1       1.0    39.098
   29553      ao       1    MUSC   Al0or       1     1.575    26.982
   29554      ao       1    MUSC   Al0os       1     1.575    26.982
   29555      ao       1    MUSC   Al0ot       1     1.575    26.982
   29556      ao       1    MUSC   Al0ou       1     1.575    26.982
   29557      ao       1    MUSC   Al0ov       1     1.575    26.982
   29558      ao       1    MUSC   Al0ow       1     1.575    26.982
   29559      ao       1    MUSC   Al0ox       1     1.575    26.982
   29560      ao       1    MUSC   Al0oy       1     1.575    26.982
   29561      st       1    MUSC   Si1dh       1       2.1    28.086
   29562      st       1    MUSC   Si1di       1       2.1    28.086
   29563      st       1    MUSC   Si1dj       1       2.1    28.086
   29564      st       1    MUSC   Si1dk       1       2.1    28.086
   29565      st       1    MUSC   Si1dl       1       2.1    28.086
   29566      st       1    MUSC   Si1dm       1       2.1    28.086
   29567      st       1    MUSC   Si1dn       1       2.1    28.086
   29568      st       1    MUSC   Si1do       1       2.1    28.086
   29569      st       1    MUSC   Si1dp       1       2.1    28.086
   29570      st       1    MUSC   Si1dq       1       2.1    28.086
   29571      st       1    MUSC   Si1dr       1       2.1    28.086
   29572      st       1    MUSC   Si1ds       1       2.1    28.086
   29573      st       1    MUSC   Si1dt       1       2.1    28.086
   29574      st       1    MUSC   Si1du       1       2.1    28.086
   29575      st       1    MUSC   Si1dv       1       2.1    28.086
   29576      st       1    MUSC   Si1dw       1       2.1    28.086
   29577      ob       1    MUSC   O04v3       1     -1.05    15.999
   29578      ob       1    MUSC   O04v4       1     -1.05    15.999
   29579      ob       1    MUSC   O04v5       1     -1.05    15.999
   29580      ob       1    MUSC   O04v6       1     -1.05    15.999
   29581      oh       1    MUSC   O04v7       1     -0.95    15.999
   29582      oh       1    MUSC   O04v8       1     -0.95    15.999
   29583      oh       1    MUSC   O04v9       1     -0.95    15.999
   29584      oh       1    MUSC   O04vA       1     -0.95    15.999
   29585      ob       1    MUSC   O04vB       1     -1.05    15.999
   29586      ob       1    MUSC   O04vC       1     -1.05    15.999
   29587      ob       1    MUSC   O04vD       1     -1.05    15.999
   29588      ob       1    MUSC   O04vE       1     -1.05    15.999
   29589      ob       1    MUSC   O04vF       1     -1.05    15.999
   29590      ob       1    MUSC   O04vG       1     -1.05    15.999
   29591      ob       1    MUSC   O04vH       1     -1.05    15.999
   29592      ob       1    MUSC   O04vI       1     -1.05    15.999
   29593      ob       1    MUSC   O04vJ       1     -1.05    15.999
   29594      ob       1    MUSC   O04vK       1     -1.05    15.999
   29595      ob       1    MUSC   O04vL       1     -1.05    15.999
   29596      ob       1    MUSC   O04vM       1     -1.05    15.999
   29597      ob       1    MUSC   O04vN       1     -1.05    15.999
   29598      ob       1    MUSC   O04vO       1     -1.05    15.999
   29599      ob       1    MUSC   O04vP       1     -1.05    15.999
   29600      ob       1    MUSC   O04vQ       1     -1.05    15.999
   29601      ob       1    MUSC   O04vR       1     -1.05    15.999
   29602      ob       1    MUSC   O04vS       1     -1.05    15.999
   29603      ob       1    MUSC   O04vT       1     -1.05    15.999
   29604      ob       1    MUSC   O04vU       1     -1.05    15.999
   29605      oh       1    MUSC   O04vV       1     -0.95    15.999
   29606      oh       1    MUSC   O04vW       1     -0.95    15.999
   29607      oh       1    MUSC   O04vX       1     -0.95    15.999
   29608      oh       1    MUSC   O04vY       1     -0.95    15.999
   29609      ob       1    MUSC   O04vZ       1     -1.05    15.999
   29610      ob       1    MUSC   O04va       1     -1.05    15.999
   29611      ob       1    MUSC   O04vb       1     -1.05    15.999
   29612      ob       1    MUSC   O04vc       1     -1.05    15.999
   29613      ob       1    MUSC   O04vd       1     -1.05    15.999
   29614      ob       1    MUSC   O04ve       1     -1.05    15.999
   29615      ob       1    MUSC   O04vf       1     -1.05    15.999
   29616      ob       1    MUSC   O04vg       1     -1.05    15.999
   29617      ob       1    MUSC   O04vh       1     -1.05    15.999
   29618      ob       1    MUSC   O04vi       1     -1.05    15.999
   29619      ob       1    MUSC   O04vj       1     -1.05    15.999
   29620      ob       1    MUSC   O04vk       1     -1.05    15.999
   29621      ob       1    MUSC   O04vl       1     -1.05    15.999
   29622      ob       1    MUSC   O04vm       1     -1.05    15.999
   29623      ob       1    MUSC   O04vn       1     -1.05    15.999
   29624      ob       1    MUSC   O04vo       1     -1.05    15.999
   29625       K       1    MUSC   K00J7       1       1.0    39.098
   29626       K       1    MUSC   K00J8       1       1.0    39.098
   29627       K       1    MUSC   K00J9       1       1.0    39.098
   29628       K       1    MUSC   K00JA       1       1.0    39.098
   29629      ao       1    MUSC   Al0oz       1     1.575    26.982
   29630      ao       1    MUSC   Al0p0       1     1.575    26.982
   29631      ao       1    MUSC   Al0p1       1     1.575    26.982
   29632      ao       1    MUSC   Al0p2       1     1.575    26.982
   29633      ao       1    MUSC   Al0p3       1     1.575    26.982
   29634      ao       1    MUSC   Al0p4       1     1.575    26.982
   29635      ao       1    MUSC   Al0p5       1     1.575    26.982
   29636      ao       1    MUSC   Al0p6       1     1.575    26.982
   29637      st       1    MUSC   Si1dx       1       2.1    28.086
   29638      st       1    MUSC   Si1dy       1       2.1    28.086
   29639      st       1    MUSC   Si1dz       1       2.1    28.086
   29640      st       1    MUSC   Si1e0       1       2.1    28.086
   29641      st       1    MUSC   Si1e1       1       2.1    28.086
   29642      st       1    MUSC   Si1e2       1       2.1    28.086
   29643      st       1    MUSC   Si1e3       1       2.1    28.086
   29644      st       1    MUSC   Si1e4       1       2.1    28.086
   29645      st       1    MUSC   Si1e5       1       2.1    28.086
   29646      st       1    MUSC   Si1e6       1       2.1    28.086
   29647      st       1    MUSC   Si1e7       1       2.1    28.086
   29648      st       1    MUSC   Si1e8       1       2.1    28.086
   29649      st       1    MUSC   Si1e9       1       2.1    28.086
   29650      st       1    MUSC   Si1eA       1       2.1    28.086
   29651      st       1    MUSC   Si1eB       1       2.1    28.086
   29652      st       1    MUSC   Si1eC       1       2.1    28.086
   29653      ob       1    MUSC   O04vp       1     -1.05    15.999
   29654      ob       1    MUSC   O04vq       1     -1.05    15.999
   29655      ob       1    MUSC   O04vr       1     -1.05    15.999
   29656      ob       1    MUSC   O04vs       1     -1.05    15.999
   29657      oh       1    MUSC   O04vt       1     -0.95    15.999
   29658      oh       1    MUSC   O04vu       1     -0.95    15.999
   29659      oh       1    MUSC   O04vv       1     -0.95    15.999
   29660      oh       1    MUSC   O04vw       1     -0.95    15.999
   29661      ob       1    MUSC   O04vx       1     -1.05    15.999
   29662      ob       1    MUSC   O04vy       1     -1.05    15.999
   29663      ob       1    MUSC   O04vz       1     -1.05    15.999
   29664      ob       1    MUSC   O04w0       1     -1.05    15.999
   29665      ob       1    MUSC   O04w1       1     -1.05    15.999
   29666      ob       1    MUSC   O04w2       1     -1.05    15.999
   29667      ob       1    MUSC   O04w3       1     -1.05    15.999
   29668      ob       1    MUSC   O04w4       1     -1.05    15.999
   29669      ob       1    MUSC   O04w5       1     -1.05    15.999
   29670      ob       1    MUSC   O04w6       1     -1.05    15.999
   29671      ob       1    MUSC   O04w7       1     -1.05    15.999
   29672      ob       1    MUSC   O04w8       1     -1.05    15.999
   29673      ob       1    MUSC   O04w9       1     -1.05    15.999
   29674      ob       1    MUSC   O04wA       1     -1.05    15.999
   29675      ob       1    MUSC   O04wB       1     -1.05    15.999
   29676      ob       1    MUSC   O04wC       1     -1.05    15.999
   29677      ob       1    MUSC   O04wD       1     -1.05    15.999
   29678      ob       1    MUSC   O04wE       1     -1.05    15.999
   29679      ob       1    MUSC   O04wF       1     -1.05    15.999
   29680      ob       1    MUSC   O04wG       1     -1.05    15.999
   29681      oh       1    MUSC   O04wH       1     -0.95    15.999
   29682      oh       1    MUSC   O04wI       1     -0.95    15.999
   29683      oh       1    MUSC   O04wJ       1     -0.95    15.999
   29684      oh       1    MUSC   O04wK       1     -0.95    15.999
   29685      ob       1    MUSC   O04wL       1     -1.05    15.999
   29686      ob       1    MUSC   O04wM       1     -1.05    15.999
   29687      ob       1    MUSC   O04wN       1     -1.05    15.999
   29688      ob       1    MUSC   O04wO       1     -1.05    15.999
   29689      ob       1    MUSC   O04wP       1     -1.05    15.999
   29690      ob       1    MUSC   O04wQ       1     -1.05    15.999
   29691      ob       1    MUSC   O04wR       1     -1.05    15.999
   29692      ob       1    MUSC   O04wS       1     -1.05    15.999
   29693      ob       1    MUSC   O04wT       1     -1.05    15.999
   29694      ob       1    MUSC   O04wU       1     -1.05    15.999
   29695      ob       1    MUSC   O04wV       1     -1.05    15.999
   29696      ob       1    MUSC   O04wW       1     -1.05    15.999
   29697      ob       1    MUSC   O04wX       1     -1.05    15.999
   29698      ob       1    MUSC   O04wY       1     -1.05    15.999
   29699      ob       1    MUSC   O04wZ       1     -1.05    15.999
   29700      ob       1    MUSC   O04wa       1     -1.05    15.999
   29701       K       1    MUSC   K00JB       1       1.0    39.098
   29702       K       1    MUSC   K00JC       1       1.0    39.098
   29703      ao       1    MUSC   Al0p7       1     1.575    26.982
   29704      ao       1    MUSC   Al0p8       1     1.575    26.982
   29705      ao       1    MUSC   Al0p9       1     1.575    26.982
   29706      ao       1    MUSC   Al0pA       1     1.575    26.982
   29707      ao       1    MUSC   Al0pB       1     1.575    26.982
   29708      ao       1    MUSC   Al0pC       1     1.575    26.982
   29709      ao       1    MUSC   Al0pD       1     1.575    26.982
   29710      ao       1    MUSC   Al0pE       1     1.575    26.982
   29711      st       1    MUSC   Si1eD       1       2.1    28.086
   29712      st       1    MUSC   Si1eE       1       2.1    28.086
   29713      st       1    MUSC   Si1eF       1       2.1    28.086
   29714      st       1    MUSC   Si1eG       1       2.1    28.086
   29715      st       1    MUSC   Si1eH       1       2.1    28.086
   29716      st       1    MUSC   Si1eI       1       2.1    28.086
   29717      st       1    MUSC   Si1eJ       1       2.1    28.086
   29718      st       1    MUSC   Si1eK       1       2.1    28.086
   29719      st       1    MUSC   Si1eL       1       2.1    28.086
   29720      st       1    MUSC   Si1eM       1       2.1    28.086
   29721      st       1    MUSC   Si1eN       1       2.1    28.086
   29722      st       1    MUSC   Si1eO       1       2.1    28.086
   29723      st       1    MUSC   Si1eP       1       2.1    28.086
   29724      st       1    MUSC   Si1eQ       1       2.1    28.086
   29725      st       1    MUSC   Si1eR       1       2.1    28.086
   29726      st       1    MUSC   Si1eS       1       2.1    28.086
   29727      ob       1    MUSC   O04wb       1     -1.05    15.999
   29728      ob       1    MUSC   O04wc       1     -1.05    15.999
   29729      ob       1    MUSC   O04wd       1     -1.05    15.999
   29730      ob       1    MUSC   O04we       1     -1.05    15.999
   29731      oh       1    MUSC   O04wf       1     -0.95    15.999
   29732      oh       1    MUSC   O04wg       1     -0.95    15.999
   29733      oh       1    MUSC   O04wh       1     -0.95    15.999
   29734      oh       1    MUSC   O04wi       1     -0.95    15.999
   29735      ob       1    MUSC   O04wj       1     -1.05    15.999
   29736      ob       1    MUSC   O04wk       1     -1.05    15.999
   29737      ob       1    MUSC   O04wl       1     -1.05    15.999
   29738      ob       1    MUSC   O04wm       1     -1.05    15.999
   29739      ob       1    MUSC   O04wn       1     -1.05    15.999
   29740      ob       1    MUSC   O04wo       1     -1.05    15.999
   29741      ob       1    MUSC   O04wp       1     -1.05    15.999
   29742      ob       1    MUSC   O04wq       1     -1.05    15.999
   29743      ob       1    MUSC   O04wr       1     -1.05    15.999
   29744      ob       1    MUSC   O04ws       1     -1.05    15.999
   29745      ob       1    MUSC   O04wt       1     -1.05    15.999
   29746      ob       1    MUSC   O04wu       1     -1.05    15.999
   29747      ob       1    MUSC   O04wv       1     -1.05    15.999
   29748      ob       1    MUSC   O04ww       1     -1.05    15.999
   29749      ob       1    MUSC   O04wx       1     -1.05    15.999
   29750      ob       1    MUSC   O04wy       1     -1.05    15.999
   29751      ob       1    MUSC   O04wz       1     -1.05    15.999
   29752      ob       1    MUSC   O04x0       1     -1.05    15.999
   29753      ob       1    MUSC   O04x1       1     -1.05    15.999
   29754      ob       1    MUSC   O04x2       1     -1.05    15.999
   29755      oh       1    MUSC   O04x3       1     -0.95    15.999
   29756      oh       1    MUSC   O04x4       1     -0.95    15.999
   29757      oh       1    MUSC   O04x5       1     -0.95    15.999
   29758      oh       1    MUSC   O04x6       1     -0.95    15.999
   29759      ob       1    MUSC   O04x7       1     -1.05    15.999
   29760      ob       1    MUSC   O04x8       1     -1.05    15.999
   29761      ob       1    MUSC   O04x9       1     -1.05    15.999
   29762      ob       1    MUSC   O04xA       1     -1.05    15.999
   29763      ob       1    MUSC   O04xB       1     -1.05    15.999
   29764      ob       1    MUSC   O04xC       1     -1.05    15.999
   29765      ob       1    MUSC   O04xD       1     -1.05    15.999
   29766      ob       1    MUSC   O04xE       1     -1.05    15.999
   29767      ob       1    MUSC   O04xF       1     -1.05    15.999
   29768      ob       1    MUSC   O04xG       1     -1.05    15.999
   29769      ob       1    MUSC   O04xH       1     -1.05    15.999
   29770      ob       1    MUSC   O04xI       1     -1.05    15.999
   29771      ob       1    MUSC   O04xJ       1     -1.05    15.999
   29772      ob       1    MUSC   O04xK       1     -1.05    15.999
   29773      ob       1    MUSC   O04xL       1     -1.05    15.999
   29774      ob       1    MUSC   O04xM       1     -1.05    15.999
   29775       K       1    MUSC   K00JD       1       1.0    39.098
   29776       K       1    MUSC   K00JE       1       1.0    39.098
   29777       K       1    MUSC   K00JF       1       1.0    39.098
   29778       K       1    MUSC   K00JG       1       1.0    39.098
   29779      ao       1    MUSC   Al0pF       1     1.575    26.982
   29780      ao       1    MUSC   Al0pG       1     1.575    26.982
   29781      ao       1    MUSC   Al0pH       1     1.575    26.982
   29782      ao       1    MUSC   Al0pI       1     1.575    26.982
   29783      ao       1    MUSC   Al0pJ       1     1.575    26.982
   29784      ao       1    MUSC   Al0pK       1     1.575    26.982
   29785      ao       1    MUSC   Al0pL       1     1.575    26.982
   29786      ao       1    MUSC   Al0pM       1     1.575    26.982
   29787      st       1    MUSC   Si1eT       1       2.1    28.086
   29788      st       1    MUSC   Si1eU       1       2.1    28.086
   29789      st       1    MUSC   Si1eV       1       2.1    28.086
   29790      st       1    MUSC   Si1eW       1       2.1    28.086
   29791      st       1    MUSC   Si1eX       1       2.1    28.086
   29792      st       1    MUSC   Si1eY       1       2.1    28.086
   29793      st       1    MUSC   Si1eZ       1       2.1    28.086
   29794      st       1    MUSC   Si1ea       1       2.1    28.086
   29795      st       1    MUSC   Si1eb       1       2.1    28.086
   29796      st       1    MUSC   Si1ec       1       2.1    28.086
   29797      st       1    MUSC   Si1ed       1       2.1    28.086
   29798      st       1    MUSC   Si1ee       1       2.1    28.086
   29799      st       1    MUSC   Si1ef       1       2.1    28.086
   29800      st       1    MUSC   Si1eg       1       2.1    28.086
   29801      st       1    MUSC   Si1eh       1       2.1    28.086
   29802      st       1    MUSC   Si1ei       1       2.1    28.086
   29803      ob       1    MUSC   O04xN       1     -1.05    15.999
   29804      ob       1    MUSC   O04xO       1     -1.05    15.999
   29805      ob       1    MUSC   O04xP       1     -1.05    15.999
   29806      ob       1    MUSC   O04xQ       1     -1.05    15.999
   29807      oh       1    MUSC   O04xR       1     -0.95    15.999
   29808      oh       1    MUSC   O04xS       1     -0.95    15.999
   29809      oh       1    MUSC   O04xT       1     -0.95    15.999
   29810      oh       1    MUSC   O04xU       1     -0.95    15.999
   29811      ob       1    MUSC   O04xV       1     -1.05    15.999
   29812      ob       1    MUSC   O04xW       1     -1.05    15.999
   29813      ob       1    MUSC   O04xX       1     -1.05    15.999
   29814      ob       1    MUSC   O04xY       1     -1.05    15.999
   29815      ob       1    MUSC   O04xZ       1     -1.05    15.999
   29816      ob       1    MUSC   O04xa       1     -1.05    15.999
   29817      ob       1    MUSC   O04xb       1     -1.05    15.999
   29818      ob       1    MUSC   O04xc       1     -1.05    15.999
   29819      ob       1    MUSC   O04xd       1     -1.05    15.999
   29820      ob       1    MUSC   O04xe       1     -1.05    15.999
   29821      ob       1    MUSC   O04xf       1     -1.05    15.999
   29822      ob       1    MUSC   O04xg       1     -1.05    15.999
   29823      ob       1    MUSC   O04xh       1     -1.05    15.999
   29824      ob       1    MUSC   O04xi       1     -1.05    15.999
   29825      ob       1    MUSC   O04xj       1     -1.05    15.999
   29826      ob       1    MUSC   O04xk       1     -1.05    15.999
   29827      ob       1    MUSC   O04xl       1     -1.05    15.999
   29828      ob       1    MUSC   O04xm       1     -1.05    15.999
   29829      ob       1    MUSC   O04xn       1     -1.05    15.999
   29830      ob       1    MUSC   O04xo       1     -1.05    15.999
   29831      oh       1    MUSC   O04xp       1     -0.95    15.999
   29832      oh       1    MUSC   O04xq       1     -0.95    15.999
   29833      oh       1    MUSC   O04xr       1     -0.95    15.999
   29834      oh       1    MUSC   O04xs       1     -0.95    15.999
   29835      ob       1    MUSC   O04xt       1     -1.05    15.999
   29836      ob       1    MUSC   O04xu       1     -1.05    15.999
   29837      ob       1    MUSC   O04xv       1     -1.05    15.999
   29838      ob       1    MUSC   O04xw       1     -1.05    15.999
   29839      ob       1    MUSC   O04xx       1     -1.05    15.999
   29840      ob       1    MUSC   O04xy       1     -1.05    15.999
   29841      ob       1    MUSC   O04xz       1     -1.05    15.999
   29842      ob       1    MUSC   O04y0       1     -1.05    15.999
   29843      ob       1    MUSC   O04y1       1     -1.05    15.999
   29844      ob       1    MUSC   O04y2       1     -1.05    15.999
   29845      ob       1    MUSC   O04y3       1     -1.05    15.999
   29846      ob       1    MUSC   O04y4       1     -1.05    15.999
   29847      ob       1    MUSC   O04y5       1     -1.05    15.999
   29848      ob       1    MUSC   O04y6       1     -1.05    15.999
   29849      ob       1    MUSC   O04y7       1     -1.05    15.999
   29850      ob       1    MUSC   O04y8       1     -1.05    15.999
   29851       K       1    MUSC   K00JH       1       1.0    39.098
   29852       K       1    MUSC   K00JI       1       1.0    39.098
   29853      ao       1    MUSC   Al0pN       1     1.575    26.982
   29854      ao       1    MUSC   Al0pO       1     1.575    26.982
   29855      ao       1    MUSC   Al0pP       1     1.575    26.982
   29856      ao       1    MUSC   Al0pQ       1     1.575    26.982
   29857      ao       1    MUSC   Al0pR       1     1.575    26.982
   29858      ao       1    MUSC   Al0pS       1     1.575    26.982
   29859      ao       1    MUSC   Al0pT       1     1.575    26.982
   29860      ao       1    MUSC   Al0pU       1     1.575    26.982
   29861      st       1    MUSC   Si1ej       1       2.1    28.086
   29862      st       1    MUSC   Si1ek       1       2.1    28.086
   29863      st       1    MUSC   Si1el       1       2.1    28.086
   29864      st       1    MUSC   Si1em       1       2.1    28.086
   29865      st       1    MUSC   Si1en       1       2.1    28.086
   29866      st       1    MUSC   Si1eo       1       2.1    28.086
   29867      st       1    MUSC   Si1ep       1       2.1    28.086
   29868      st       1    MUSC   Si1eq       1       2.1    28.086
   29869      st       1    MUSC   Si1er       1       2.1    28.086
   29870      st       1    MUSC   Si1es       1       2.1    28.086
   29871      st       1    MUSC   Si1et       1       2.1    28.086
   29872      st       1    MUSC   Si1eu       1       2.1    28.086
   29873      st       1    MUSC   Si1ev       1       2.1    28.086
   29874      st       1    MUSC   Si1ew       1       2.1    28.086
   29875      st       1    MUSC   Si1ex       1       2.1    28.086
   29876      st       1    MUSC   Si1ey       1       2.1    28.086
   29877      ob       1    MUSC   O04y9       1     -1.05    15.999
   29878      ob       1    MUSC   O04yA       1     -1.05    15.999
   29879      ob       1    MUSC   O04yB       1     -1.05    15.999
   29880      ob       1    MUSC   O04yC       1     -1.05    15.999
   29881      oh       1    MUSC   O04yD       1     -0.95    15.999
   29882      oh       1    MUSC   O04yE       1     -0.95    15.999
   29883      oh       1    MUSC   O04yF       1     -0.95    15.999
   29884      oh       1    MUSC   O04yG       1     -0.95    15.999
   29885      ob       1    MUSC   O04yH       1     -1.05    15.999
   29886      ob       1    MUSC   O04yI       1     -1.05    15.999
   29887      ob       1    MUSC   O04yJ       1     -1.05    15.999
   29888      ob       1    MUSC   O04yK       1     -1.05    15.999
   29889      ob       1    MUSC   O04yL       1     -1.05    15.999
   29890      ob       1    MUSC   O04yM       1     -1.05    15.999
   29891      ob       1    MUSC   O04yN       1     -1.05    15.999
   29892      ob       1    MUSC   O04yO       1     -1.05    15.999
   29893      ob       1    MUSC   O04yP       1     -1.05    15.999
   29894      ob       1    MUSC   O04yQ       1     -1.05    15.999
   29895      ob       1    MUSC   O04yR       1     -1.05    15.999
   29896      ob       1    MUSC   O04yS       1     -1.05    15.999
   29897      ob       1    MUSC   O04yT       1     -1.05    15.999
   29898      ob       1    MUSC   O04yU       1     -1.05    15.999
   29899      ob       1    MUSC   O04yV       1     -1.05    15.999
   29900      ob       1    MUSC   O04yW       1     -1.05    15.999
   29901      ob       1    MUSC   O04yX       1     -1.05    15.999
   29902      ob       1    MUSC   O04yY       1     -1.05    15.999
   29903      ob       1    MUSC   O04yZ       1     -1.05    15.999
   29904      ob       1    MUSC   O04ya       1     -1.05    15.999
   29905      oh       1    MUSC   O04yb       1     -0.95    15.999
   29906      oh       1    MUSC   O04yc       1     -0.95    15.999
   29907      oh       1    MUSC   O04yd       1     -0.95    15.999
   29908      oh       1    MUSC   O04ye       1     -0.95    15.999
   29909      ob       1    MUSC   O04yf       1     -1.05    15.999
   29910      ob       1    MUSC   O04yg       1     -1.05    15.999
   29911      ob       1    MUSC   O04yh       1     -1.05    15.999
   29912      ob       1    MUSC   O04yi       1     -1.05    15.999
   29913      ob       1    MUSC   O04yj       1     -1.05    15.999
   29914      ob       1    MUSC   O04yk       1     -1.05    15.999
   29915      ob       1    MUSC   O04yl       1     -1.05    15.999
   29916      ob       1    MUSC   O04ym       1     -1.05    15.999
   29917      ob       1    MUSC   O04yn       1     -1.05    15.999
   29918      ob       1    MUSC   O04yo       1     -1.05    15.999
   29919      ob       1    MUSC   O04yp       1     -1.05    15.999
   29920      ob       1    MUSC   O04yq       1     -1.05    15.999
   29921      ob       1    MUSC   O04yr       1     -1.05    15.999
   29922      ob       1    MUSC   O04ys       1     -1.05    15.999
   29923      ob       1    MUSC   O04yt       1     -1.05    15.999
   29924      ob       1    MUSC   O04yu       1     -1.05    15.999
   29925       K       1    MUSC   K00JJ       1       1.0    39.098
   29926       K       1    MUSC   K00JK       1       1.0    39.098
   29927       K       1    MUSC   K00JL       1       1.0    39.098
   29928       K       1    MUSC   K00JM       1       1.0    39.098
   29929      ao       1    MUSC   Al0pV       1     1.575    26.982
   29930      ao       1    MUSC   Al0pW       1     1.575    26.982
   29931      ao       1    MUSC   Al0pX       1     1.575    26.982
   29932      ao       1    MUSC   Al0pY       1     1.575    26.982
   29933      ao       1    MUSC   Al0pZ       1     1.575    26.982
   29934      ao       1    MUSC   Al0pa       1     1.575    26.982
   29935      ao       1    MUSC   Al0pb       1     1.575    26.982
   29936      ao       1    MUSC   Al0pc       1     1.575    26.982
   29937      st       1    MUSC   Si1ez       1       2.1    28.086
   29938      st       1    MUSC   Si1f0       1       2.1    28.086
   29939      st       1    MUSC   Si1f1       1       2.1    28.086
   29940      st       1    MUSC   Si1f2       1       2.1    28.086
   29941      st       1    MUSC   Si1f3       1       2.1    28.086
   29942      st       1    MUSC   Si1f4       1       2.1    28.086
   29943      st       1    MUSC   Si1f5       1       2.1    28.086
   29944      st       1    MUSC   Si1f6       1       2.1    28.086
   29945      st       1    MUSC   Si1f7       1       2.1    28.086
   29946      st       1    MUSC   Si1f8       1       2.1    28.086
   29947      st       1    MUSC   Si1f9       1       2.1    28.086
   29948      st       1    MUSC   Si1fA       1       2.1    28.086
   29949      st       1    MUSC   Si1fB       1       2.1    28.086
   29950      st       1    MUSC   Si1fC       1       2.1    28.086
   29951      st       1    MUSC   Si1fD       1       2.1    28.086
   29952      st       1    MUSC   Si1fE       1       2.1    28.086
   29953      ob       1    MUSC   O04yv       1     -1.05    15.999
   29954      ob       1    MUSC   O04yw       1     -1.05    15.999
   29955      ob       1    MUSC   O04yx       1     -1.05    15.999
   29956      ob       1    MUSC   O04yy       1     -1.05    15.999
   29957      oh       1    MUSC   O04yz       1     -0.95    15.999
   29958      oh       1    MUSC   O04z0       1     -0.95    15.999
   29959      oh       1    MUSC   O04z1       1     -0.95    15.999
   29960      oh       1    MUSC   O04z2       1     -0.95    15.999
   29961      ob       1    MUSC   O04z3       1     -1.05    15.999
   29962      ob       1    MUSC   O04z4       1     -1.05    15.999
   29963      ob       1    MUSC   O04z5       1     -1.05    15.999
   29964      ob       1    MUSC   O04z6       1     -1.05    15.999
   29965      ob       1    MUSC   O04z7       1     -1.05    15.999
   29966      ob       1    MUSC   O04z8       1     -1.05    15.999
   29967      ob       1    MUSC   O04z9       1     -1.05    15.999
   29968      ob       1    MUSC   O04zA       1     -1.05    15.999
   29969      ob       1    MUSC   O04zB       1     -1.05    15.999
   29970      ob       1    MUSC   O04zC       1     -1.05    15.999
   29971      ob       1    MUSC   O04zD       1     -1.05    15.999
   29972      ob       1    MUSC   O04zE       1     -1.05    15.999
   29973      ob       1    MUSC   O04zF       1     -1.05    15.999
   29974      ob       1    MUSC   O04zG       1     -1.05    15.999
   29975      ob       1    MUSC   O04zH       1     -1.05    15.999
   29976      ob       1    MUSC   O04zI       1     -1.05    15.999
   29977      ob       1    MUSC   O04zJ       1     -1.05    15.999
   29978      ob       1    MUSC   O04zK       1     -1.05    15.999
   29979      ob       1    MUSC   O04zL       1     -1.05    15.999
   29980      ob       1    MUSC   O04zM       1     -1.05    15.999
   29981      oh       1    MUSC   O04zN       1     -0.95    15.999
   29982      oh       1    MUSC   O04zO       1     -0.95    15.999
   29983      oh       1    MUSC   O04zP       1     -0.95    15.999
   29984      oh       1    MUSC   O04zQ       1     -0.95    15.999
   29985      ob       1    MUSC   O04zR       1     -1.05    15.999
   29986      ob       1    MUSC   O04zS       1     -1.05    15.999
   29987      ob       1    MUSC   O04zT       1     -1.05    15.999
   29988      ob       1    MUSC   O04zU       1     -1.05    15.999
   29989      ob       1    MUSC   O04zV       1     -1.05    15.999
   29990      ob       1    MUSC   O04zW       1     -1.05    15.999
   29991      ob       1    MUSC   O04zX       1     -1.05    15.999
   29992      ob       1    MUSC   O04zY       1     -1.05    15.999
   29993      ob       1    MUSC   O04zZ       1     -1.05    15.999
   29994      ob       1    MUSC   O04za       1     -1.05    15.999
   29995      ob       1    MUSC   O04zb       1     -1.05    15.999
   29996      ob       1    MUSC   O04zc       1     -1.05    15.999
   29997      ob       1    MUSC   O04zd       1     -1.05    15.999
   29998      ob       1    MUSC   O04ze       1     -1.05    15.999
   29999      ob       1    MUSC   O04zf       1     -1.05    15.999
   30000      ob       1    MUSC   O04zg       1     -1.05    15.999
   30001       K       1    MUSC   K00JN       1       1.0    39.098
   30002       K       1    MUSC   K00JO       1       1.0    39.098
   30003      ao       1    MUSC   Al0pd       1     1.575    26.982
   30004      ao       1    MUSC   Al0pe       1     1.575    26.982
   30005      ao       1    MUSC   Al0pf       1     1.575    26.982
   30006      ao       1    MUSC   Al0pg       1     1.575    26.982
   30007      ao       1    MUSC   Al0ph       1     1.575    26.982
   30008      ao       1    MUSC   Al0pi       1     1.575    26.982
   30009      ao       1    MUSC   Al0pj       1     1.575    26.982
   30010      ao       1    MUSC   Al0pk       1     1.575    26.982
   30011      st       1    MUSC   Si1fF       1       2.1    28.086
   30012      st       1    MUSC   Si1fG       1       2.1    28.086
   30013      st       1    MUSC   Si1fH       1       2.1    28.086
   30014      st       1    MUSC   Si1fI       1       2.1    28.086
   30015      st       1    MUSC   Si1fJ       1       2.1    28.086
   30016      st       1    MUSC   Si1fK       1       2.1    28.086
   30017      st       1    MUSC   Si1fL       1       2.1    28.086
   30018      st       1    MUSC   Si1fM       1       2.1    28.086
   30019      st       1    MUSC   Si1fN       1       2.1    28.086
   30020      st       1    MUSC   Si1fO       1       2.1    28.086
   30021      st       1    MUSC   Si1fP       1       2.1    28.086
   30022      st       1    MUSC   Si1fQ       1       2.1    28.086
   30023      st       1    MUSC   Si1fR       1       2.1    28.086
   30024      st       1    MUSC   Si1fS       1       2.1    28.086
   30025      st       1    MUSC   Si1fT       1       2.1    28.086
   30026      st       1    MUSC   Si1fU       1       2.1    28.086
   30027      ob       1    MUSC   O04zh       1     -1.05    15.999
   30028      ob       1    MUSC   O04zi       1     -1.05    15.999
   30029      ob       1    MUSC   O04zj       1     -1.05    15.999
   30030      ob       1    MUSC   O04zk       1     -1.05    15.999
   30031      oh       1    MUSC   O04zl       1     -0.95    15.999
   30032      oh       1    MUSC   O04zm       1     -0.95    15.999
   30033      oh       1    MUSC   O04zn       1     -0.95    15.999
   30034      oh       1    MUSC   O04zo       1     -0.95    15.999
   30035      ob       1    MUSC   O04zp       1     -1.05    15.999
   30036      ob       1    MUSC   O04zq       1     -1.05    15.999
   30037      ob       1    MUSC   O04zr       1     -1.05    15.999
   30038      ob       1    MUSC   O04zs       1     -1.05    15.999
   30039      ob       1    MUSC   O04zt       1     -1.05    15.999
   30040      ob       1    MUSC   O04zu       1     -1.05    15.999
   30041      ob       1    MUSC   O04zv       1     -1.05    15.999
   30042      ob       1    MUSC   O04zw       1     -1.05    15.999
   30043      ob       1    MUSC   O04zx       1     -1.05    15.999
   30044      ob       1    MUSC   O04zy       1     -1.05    15.999
   30045      ob       1    MUSC   O04zz       1     -1.05    15.999
   30046      ob       1    MUSC   O0500       1     -1.05    15.999
   30047      ob       1    MUSC   O0501       1     -1.05    15.999
   30048      ob       1    MUSC   O0502       1     -1.05    15.999
   30049      ob       1    MUSC   O0503       1     -1.05    15.999
   30050      ob       1    MUSC   O0504       1     -1.05    15.999
   30051      ob       1    MUSC   O0505       1     -1.05    15.999
   30052      ob       1    MUSC   O0506       1     -1.05    15.999
   30053      ob       1    MUSC   O0507       1     -1.05    15.999
   30054      ob       1    MUSC   O0508       1     -1.05    15.999
   30055      oh       1    MUSC   O0509       1     -0.95    15.999
   30056      oh       1    MUSC   O050A       1     -0.95    15.999
   30057      oh       1    MUSC   O050B       1     -0.95    15.999
   30058      oh       1    MUSC   O050C       1     -0.95    15.999
   30059      ob       1    MUSC   O050D       1     -1.05    15.999
   30060      ob       1    MUSC   O050E       1     -1.05    15.999
   30061      ob       1    MUSC   O050F       1     -1.05    15.999
   30062      ob       1    MUSC   O050G       1     -1.05    15.999
   30063      ob       1    MUSC   O050H       1     -1.05    15.999
   30064      ob       1    MUSC   O050I       1     -1.05    15.999
   30065      ob       1    MUSC   O050J       1     -1.05    15.999
   30066      ob       1    MUSC   O050K       1     -1.05    15.999
   30067      ob       1    MUSC   O050L       1     -1.05    15.999
   30068      ob       1    MUSC   O050M       1     -1.05    15.999
   30069      ob       1    MUSC   O050N       1     -1.05    15.999
   30070      ob       1    MUSC   O050O       1     -1.05    15.999
   30071      ob       1    MUSC   O050P       1     -1.05    15.999
   30072      ob       1    MUSC   O050Q       1     -1.05    15.999
   30073      ob       1    MUSC   O050R       1     -1.05    15.999
   30074      ob       1    MUSC   O050S       1     -1.05    15.999
   30075       K       1    MUSC   K00JP       1       1.0    39.098
   30076       K       1    MUSC   K00JQ       1       1.0    39.098
   30077       K       1    MUSC   K00JR       1       1.0    39.098
   30078       K       1    MUSC   K00JS       1       1.0    39.098
   30079      ao       1    MUSC   Al0pl       1     1.575    26.982
   30080      ao       1    MUSC   Al0pm       1     1.575    26.982
   30081      ao       1    MUSC   Al0pn       1     1.575    26.982
   30082      ao       1    MUSC   Al0po       1     1.575    26.982
   30083      ao       1    MUSC   Al0pp       1     1.575    26.982
   30084      ao       1    MUSC   Al0pq       1     1.575    26.982
   30085      ao       1    MUSC   Al0pr       1     1.575    26.982
   30086      ao       1    MUSC   Al0ps       1     1.575    26.982
   30087      st       1    MUSC   Si1fV       1       2.1    28.086
   30088      st       1    MUSC   Si1fW       1       2.1    28.086
   30089      st       1    MUSC   Si1fX       1       2.1    28.086
   30090      st       1    MUSC   Si1fY       1       2.1    28.086
   30091      st       1    MUSC   Si1fZ       1       2.1    28.086
   30092      st       1    MUSC   Si1fa       1       2.1    28.086
   30093      st       1    MUSC   Si1fb       1       2.1    28.086
   30094      st       1    MUSC   Si1fc       1       2.1    28.086
   30095      st       1    MUSC   Si1fd       1       2.1    28.086
   30096      st       1    MUSC   Si1fe       1       2.1    28.086
   30097      st       1    MUSC   Si1ff       1       2.1    28.086
   30098      st       1    MUSC   Si1fg       1       2.1    28.086
   30099      st       1    MUSC   Si1fh       1       2.1    28.086
   30100      st       1    MUSC   Si1fi       1       2.1    28.086
   30101      st       1    MUSC   Si1fj       1       2.1    28.086
   30102      st       1    MUSC   Si1fk       1       2.1    28.086
   30103      ob       1    MUSC   O050T       1     -1.05    15.999
   30104      ob       1    MUSC   O050U       1     -1.05    15.999
   30105      ob       1    MUSC   O050V       1     -1.05    15.999
   30106      ob       1    MUSC   O050W       1     -1.05    15.999
   30107      oh       1    MUSC   O050X       1     -0.95    15.999
   30108      oh       1    MUSC   O050Y       1     -0.95    15.999
   30109      oh       1    MUSC   O050Z       1     -0.95    15.999
   30110      oh       1    MUSC   O050a       1     -0.95    15.999
   30111      ob       1    MUSC   O050b       1     -1.05    15.999
   30112      ob       1    MUSC   O050c       1     -1.05    15.999
   30113      ob       1    MUSC   O050d       1     -1.05    15.999
   30114      ob       1    MUSC   O050e       1     -1.05    15.999
   30115      ob       1    MUSC   O050f       1     -1.05    15.999
   30116      ob       1    MUSC   O050g       1     -1.05    15.999
   30117      ob       1    MUSC   O050h       1     -1.05    15.999
   30118      ob       1    MUSC   O050i       1     -1.05    15.999
   30119      ob       1    MUSC   O050j       1     -1.05    15.999
   30120      ob       1    MUSC   O050k       1     -1.05    15.999
   30121      ob       1    MUSC   O050l       1     -1.05    15.999
   30122      ob       1    MUSC   O050m       1     -1.05    15.999
   30123      ob       1    MUSC   O050n       1     -1.05    15.999
   30124      ob       1    MUSC   O050o       1     -1.05    15.999
   30125      ob       1    MUSC   O050p       1     -1.05    15.999
   30126      ob       1    MUSC   O050q       1     -1.05    15.999
   30127      ob       1    MUSC   O050r       1     -1.05    15.999
   30128      ob       1    MUSC   O050s       1     -1.05    15.999
   30129      ob       1    MUSC   O050t       1     -1.05    15.999
   30130      ob       1    MUSC   O050u       1     -1.05    15.999
   30131      oh       1    MUSC   O050v       1     -0.95    15.999
   30132      oh       1    MUSC   O050w       1     -0.95    15.999
   30133      oh       1    MUSC   O050x       1     -0.95    15.999
   30134      oh       1    MUSC   O050y       1     -0.95    15.999
   30135      ob       1    MUSC   O050z       1     -1.05    15.999
   30136      ob       1    MUSC   O0510       1     -1.05    15.999
   30137      ob       1    MUSC   O0511       1     -1.05    15.999
   30138      ob       1    MUSC   O0512       1     -1.05    15.999
   30139      ob       1    MUSC   O0513       1     -1.05    15.999
   30140      ob       1    MUSC   O0514       1     -1.05    15.999
   30141      ob       1    MUSC   O0515       1     -1.05    15.999
   30142      ob       1    MUSC   O0516       1     -1.05    15.999
   30143      ob       1    MUSC   O0517       1     -1.05    15.999
   30144      ob       1    MUSC   O0518       1     -1.05    15.999
   30145      ob       1    MUSC   O0519       1     -1.05    15.999
   30146      ob       1    MUSC   O051A       1     -1.05    15.999
   30147      ob       1    MUSC   O051B       1     -1.05    15.999
   30148      ob       1    MUSC   O051C       1     -1.05    15.999
   30149      ob       1    MUSC   O051D       1     -1.05    15.999
   30150      ob       1    MUSC   O051E       1     -1.05    15.999
   30151       K       1    MUSC   K00JT       1       1.0    39.098
   30152       K       1    MUSC   K00JU       1       1.0    39.098
   30153      ao       1    MUSC   Al0pt       1     1.575    26.982
   30154      ao       1    MUSC   Al0pu       1     1.575    26.982
   30155      ao       1    MUSC   Al0pv       1     1.575    26.982
   30156      ao       1    MUSC   Al0pw       1     1.575    26.982
   30157      ao       1    MUSC   Al0px       1     1.575    26.982
   30158      ao       1    MUSC   Al0py       1     1.575    26.982
   30159      ao       1    MUSC   Al0pz       1     1.575    26.982
   30160      ao       1    MUSC   Al0q0       1     1.575    26.982
   30161      st       1    MUSC   Si1fl       1       2.1    28.086
   30162      st       1    MUSC   Si1fm       1       2.1    28.086
   30163      st       1    MUSC   Si1fn       1       2.1    28.086
   30164      st       1    MUSC   Si1fo       1       2.1    28.086
   30165      st       1    MUSC   Si1fp       1       2.1    28.086
   30166      st       1    MUSC   Si1fq       1       2.1    28.086
   30167      st       1    MUSC   Si1fr       1       2.1    28.086
   30168      st       1    MUSC   Si1fs       1       2.1    28.086
   30169      st       1    MUSC   Si1ft       1       2.1    28.086
   30170      st       1    MUSC   Si1fu       1       2.1    28.086
   30171      st       1    MUSC   Si1fv       1       2.1    28.086
   30172      st       1    MUSC   Si1fw       1       2.1    28.086
   30173      st       1    MUSC   Si1fx       1       2.1    28.086
   30174      st       1    MUSC   Si1fy       1       2.1    28.086
   30175      st       1    MUSC   Si1fz       1       2.1    28.086
   30176      st       1    MUSC   Si1g0       1       2.1    28.086
   30177      ob       1    MUSC   O051F       1     -1.05    15.999
   30178      ob       1    MUSC   O051G       1     -1.05    15.999
   30179      ob       1    MUSC   O051H       1     -1.05    15.999
   30180      ob       1    MUSC   O051I       1     -1.05    15.999
   30181      oh       1    MUSC   O051J       1     -0.95    15.999
   30182      oh       1    MUSC   O051K       1     -0.95    15.999
   30183      oh       1    MUSC   O051L       1     -0.95    15.999
   30184      oh       1    MUSC   O051M       1     -0.95    15.999
   30185      ob       1    MUSC   O051N       1     -1.05    15.999
   30186      ob       1    MUSC   O051O       1     -1.05    15.999
   30187      ob       1    MUSC   O051P       1     -1.05    15.999
   30188      ob       1    MUSC   O051Q       1     -1.05    15.999
   30189      ob       1    MUSC   O051R       1     -1.05    15.999
   30190      ob       1    MUSC   O051S       1     -1.05    15.999
   30191      ob       1    MUSC   O051T       1     -1.05    15.999
   30192      ob       1    MUSC   O051U       1     -1.05    15.999
   30193      ob       1    MUSC   O051V       1     -1.05    15.999
   30194      ob       1    MUSC   O051W       1     -1.05    15.999
   30195      ob       1    MUSC   O051X       1     -1.05    15.999
   30196      ob       1    MUSC   O051Y       1     -1.05    15.999
   30197      ob       1    MUSC   O051Z       1     -1.05    15.999
   30198      ob       1    MUSC   O051a       1     -1.05    15.999
   30199      ob       1    MUSC   O051b       1     -1.05    15.999
   30200      ob       1    MUSC   O051c       1     -1.05    15.999
   30201      ob       1    MUSC   O051d       1     -1.05    15.999
   30202      ob       1    MUSC   O051e       1     -1.05    15.999
   30203      ob       1    MUSC   O051f       1     -1.05    15.999
   30204      ob       1    MUSC   O051g       1     -1.05    15.999
   30205      oh       1    MUSC   O051h       1     -0.95    15.999
   30206      oh       1    MUSC   O051i       1     -0.95    15.999
   30207      oh       1    MUSC   O051j       1     -0.95    15.999
   30208      oh       1    MUSC   O051k       1     -0.95    15.999
   30209      ob       1    MUSC   O051l       1     -1.05    15.999
   30210      ob       1    MUSC   O051m       1     -1.05    15.999
   30211      ob       1    MUSC   O051n       1     -1.05    15.999
   30212      ob       1    MUSC   O051o       1     -1.05    15.999
   30213      ob       1    MUSC   O051p       1     -1.05    15.999
   30214      ob       1    MUSC   O051q       1     -1.05    15.999
   30215      ob       1    MUSC   O051r       1     -1.05    15.999
   30216      ob       1    MUSC   O051s       1     -1.05    15.999
   30217      ob       1    MUSC   O051t       1     -1.05    15.999
   30218      ob       1    MUSC   O051u       1     -1.05    15.999
   30219      ob       1    MUSC   O051v       1     -1.05    15.999
   30220      ob       1    MUSC   O051w       1     -1.05    15.999
   30221      ob       1    MUSC   O051x       1     -1.05    15.999
   30222      ob       1    MUSC   O051y       1     -1.05    15.999
   30223      ob       1    MUSC   O051z       1     -1.05    15.999
   30224      ob       1    MUSC   O0520       1     -1.05    15.999
   30225       K       1    MUSC   K00JV       1       1.0    39.098
   30226       K       1    MUSC   K00JW       1       1.0    39.098
   30227       K       1    MUSC   K00JX       1       1.0    39.098
   30228       K       1    MUSC   K00JY       1       1.0    39.098
   30229      ao       1    MUSC   Al0q1       1     1.575    26.982
   30230      ao       1    MUSC   Al0q2       1     1.575    26.982
   30231      ao       1    MUSC   Al0q3       1     1.575    26.982
   30232      ao       1    MUSC   Al0q4       1     1.575    26.982
   30233      ao       1    MUSC   Al0q5       1     1.575    26.982
   30234      ao       1    MUSC   Al0q6       1     1.575    26.982
   30235      ao       1    MUSC   Al0q7       1     1.575    26.982
   30236      ao       1    MUSC   Al0q8       1     1.575    26.982
   30237      st       1    MUSC   Si1g1       1       2.1    28.086
   30238      st       1    MUSC   Si1g2       1       2.1    28.086
   30239      st       1    MUSC   Si1g3       1       2.1    28.086
   30240      st       1    MUSC   Si1g4       1       2.1    28.086
   30241      st       1    MUSC   Si1g5       1       2.1    28.086
   30242      st       1    MUSC   Si1g6       1       2.1    28.086
   30243      st       1    MUSC   Si1g7       1       2.1    28.086
   30244      st       1    MUSC   Si1g8       1       2.1    28.086
   30245      st       1    MUSC   Si1g9       1       2.1    28.086
   30246      st       1    MUSC   Si1gA       1       2.1    28.086
   30247      st       1    MUSC   Si1gB       1       2.1    28.086
   30248      st       1    MUSC   Si1gC       1       2.1    28.086
   30249      st       1    MUSC   Si1gD       1       2.1    28.086
   30250      st       1    MUSC   Si1gE       1       2.1    28.086
   30251      st       1    MUSC   Si1gF       1       2.1    28.086
   30252      st       1    MUSC   Si1gG       1       2.1    28.086
   30253      ob       1    MUSC   O0521       1     -1.05    15.999
   30254      ob       1    MUSC   O0522       1     -1.05    15.999
   30255      ob       1    MUSC   O0523       1     -1.05    15.999
   30256      ob       1    MUSC   O0524       1     -1.05    15.999
   30257      oh       1    MUSC   O0525       1     -0.95    15.999
   30258      oh       1    MUSC   O0526       1     -0.95    15.999
   30259      oh       1    MUSC   O0527       1     -0.95    15.999
   30260      oh       1    MUSC   O0528       1     -0.95    15.999
   30261      ob       1    MUSC   O0529       1     -1.05    15.999
   30262      ob       1    MUSC   O052A       1     -1.05    15.999
   30263      ob       1    MUSC   O052B       1     -1.05    15.999
   30264      ob       1    MUSC   O052C       1     -1.05    15.999
   30265      ob       1    MUSC   O052D       1     -1.05    15.999
   30266      ob       1    MUSC   O052E       1     -1.05    15.999
   30267      ob       1    MUSC   O052F       1     -1.05    15.999
   30268      ob       1    MUSC   O052G       1     -1.05    15.999
   30269      ob       1    MUSC   O052H       1     -1.05    15.999
   30270      ob       1    MUSC   O052I       1     -1.05    15.999
   30271      ob       1    MUSC   O052J       1     -1.05    15.999
   30272      ob       1    MUSC   O052K       1     -1.05    15.999
   30273      ob       1    MUSC   O052L       1     -1.05    15.999
   30274      ob       1    MUSC   O052M       1     -1.05    15.999
   30275      ob       1    MUSC   O052N       1     -1.05    15.999
   30276      ob       1    MUSC   O052O       1     -1.05    15.999
   30277      ob       1    MUSC   O052P       1     -1.05    15.999
   30278      ob       1    MUSC   O052Q       1     -1.05    15.999
   30279      ob       1    MUSC   O052R       1     -1.05    15.999
   30280      ob       1    MUSC   O052S       1     -1.05    15.999
   30281      oh       1    MUSC   O052T       1     -0.95    15.999
   30282      oh       1    MUSC   O052U       1     -0.95    15.999
   30283      oh       1    MUSC   O052V       1     -0.95    15.999
   30284      oh       1    MUSC   O052W       1     -0.95    15.999
   30285      ob       1    MUSC   O052X       1     -1.05    15.999
   30286      ob       1    MUSC   O052Y       1     -1.05    15.999
   30287      ob       1    MUSC   O052Z       1     -1.05    15.999
   30288      ob       1    MUSC   O052a       1     -1.05    15.999
   30289      ob       1    MUSC   O052b       1     -1.05    15.999
   30290      ob       1    MUSC   O052c       1     -1.05    15.999
   30291      ob       1    MUSC   O052d       1     -1.05    15.999
   30292      ob       1    MUSC   O052e       1     -1.05    15.999
   30293      ob       1    MUSC   O052f       1     -1.05    15.999
   30294      ob       1    MUSC   O052g       1     -1.05    15.999
   30295      ob       1    MUSC   O052h       1     -1.05    15.999
   30296      ob       1    MUSC   O052i       1     -1.05    15.999
   30297      ob       1    MUSC   O052j       1     -1.05    15.999
   30298      ob       1    MUSC   O052k       1     -1.05    15.999
   30299      ob       1    MUSC   O052l       1     -1.05    15.999
   30300      ob       1    MUSC   O052m       1     -1.05    15.999
   30301       K       1    MUSC   K00JZ       1       1.0    39.098
   30302       K       1    MUSC   K00Ja       1       1.0    39.098
   30303      ao       1    MUSC   Al0q9       1     1.575    26.982
   30304      ao       1    MUSC   Al0qA       1     1.575    26.982
   30305      ao       1    MUSC   Al0qB       1     1.575    26.982
   30306      ao       1    MUSC   Al0qC       1     1.575    26.982
   30307      ao       1    MUSC   Al0qD       1     1.575    26.982
   30308      ao       1    MUSC   Al0qE       1     1.575    26.982
   30309      ao       1    MUSC   Al0qF       1     1.575    26.982
   30310      ao       1    MUSC   Al0qG       1     1.575    26.982
   30311      st       1    MUSC   Si1gH       1       2.1    28.086
   30312      st       1    MUSC   Si1gI       1       2.1    28.086
   30313      st       1    MUSC   Si1gJ       1       2.1    28.086
   30314      st       1    MUSC   Si1gK       1       2.1    28.086
   30315      st       1    MUSC   Si1gL       1       2.1    28.086
   30316      st       1    MUSC   Si1gM       1       2.1    28.086
   30317      st       1    MUSC   Si1gN       1       2.1    28.086
   30318      st       1    MUSC   Si1gO       1       2.1    28.086
   30319      st       1    MUSC   Si1gP       1       2.1    28.086
   30320      st       1    MUSC   Si1gQ       1       2.1    28.086
   30321      st       1    MUSC   Si1gR       1       2.1    28.086
   30322      st       1    MUSC   Si1gS       1       2.1    28.086
   30323      st       1    MUSC   Si1gT       1       2.1    28.086
   30324      st       1    MUSC   Si1gU       1       2.1    28.086
   30325      st       1    MUSC   Si1gV       1       2.1    28.086
   30326      st       1    MUSC   Si1gW       1       2.1    28.086
   30327      ob       1    MUSC   O052n       1     -1.05    15.999
   30328      ob       1    MUSC   O052o       1     -1.05    15.999
   30329      ob       1    MUSC   O052p       1     -1.05    15.999
   30330      ob       1    MUSC   O052q       1     -1.05    15.999
   30331      oh       1    MUSC   O052r       1     -0.95    15.999
   30332      oh       1    MUSC   O052s       1     -0.95    15.999
   30333      oh       1    MUSC   O052t       1     -0.95    15.999
   30334      oh       1    MUSC   O052u       1     -0.95    15.999
   30335      ob       1    MUSC   O052v       1     -1.05    15.999
   30336      ob       1    MUSC   O052w       1     -1.05    15.999
   30337      ob       1    MUSC   O052x       1     -1.05    15.999
   30338      ob       1    MUSC   O052y       1     -1.05    15.999
   30339      ob       1    MUSC   O052z       1     -1.05    15.999
   30340      ob       1    MUSC   O0530       1     -1.05    15.999
   30341      ob       1    MUSC   O0531       1     -1.05    15.999
   30342      ob       1    MUSC   O0532       1     -1.05    15.999
   30343      ob       1    MUSC   O0533       1     -1.05    15.999
   30344      ob       1    MUSC   O0534       1     -1.05    15.999
   30345      ob       1    MUSC   O0535       1     -1.05    15.999
   30346      ob       1    MUSC   O0536       1     -1.05    15.999
   30347      ob       1    MUSC   O0537       1     -1.05    15.999
   30348      ob       1    MUSC   O0538       1     -1.05    15.999
   30349      ob       1    MUSC   O0539       1     -1.05    15.999
   30350      ob       1    MUSC   O053A       1     -1.05    15.999
   30351      ob       1    MUSC   O053B       1     -1.05    15.999
   30352      ob       1    MUSC   O053C       1     -1.05    15.999
   30353      ob       1    MUSC   O053D       1     -1.05    15.999
   30354      ob       1    MUSC   O053E       1     -1.05    15.999
   30355      oh       1    MUSC   O053F       1     -0.95    15.999
   30356      oh       1    MUSC   O053G       1     -0.95    15.999
   30357      oh       1    MUSC   O053H       1     -0.95    15.999
   30358      oh       1    MUSC   O053I       1     -0.95    15.999
   30359      ob       1    MUSC   O053J       1     -1.05    15.999
   30360      ob       1    MUSC   O053K       1     -1.05    15.999
   30361      ob       1    MUSC   O053L       1     -1.05    15.999
   30362      ob       1    MUSC   O053M       1     -1.05    15.999
   30363      ob       1    MUSC   O053N       1     -1.05    15.999
   30364      ob       1    MUSC   O053O       1     -1.05    15.999
   30365      ob       1    MUSC   O053P       1     -1.05    15.999
   30366      ob       1    MUSC   O053Q       1     -1.05    15.999
   30367      ob       1    MUSC   O053R       1     -1.05    15.999
   30368      ob       1    MUSC   O053S       1     -1.05    15.999
   30369      ob       1    MUSC   O053T       1     -1.05    15.999
   30370      ob       1    MUSC   O053U       1     -1.05    15.999
   30371      ob       1    MUSC   O053V       1     -1.05    15.999
   30372      ob       1    MUSC   O053W       1     -1.05    15.999
   30373      ob       1    MUSC   O053X       1     -1.05    15.999
   30374      ob       1    MUSC   O053Y       1     -1.05    15.999
   30375       K       1    MUSC   K00Jb       1       1.0    39.098
   30376       K       1    MUSC   K00Jc       1       1.0    39.098
   30377       K       1    MUSC   K00Jd       1       1.0    39.098
   30378       K       1    MUSC   K00Je       1       1.0    39.098
   30379      ao       1    MUSC   Al0qH       1     1.575    26.982
   30380      ao       1    MUSC   Al0qI       1     1.575    26.982
   30381      ao       1    MUSC   Al0qJ       1     1.575    26.982
   30382      ao       1    MUSC   Al0qK       1     1.575    26.982
   30383      ao       1    MUSC   Al0qL       1     1.575    26.982
   30384      ao       1    MUSC   Al0qM       1     1.575    26.982
   30385      ao       1    MUSC   Al0qN       1     1.575    26.982
   30386      ao       1    MUSC   Al0qO       1     1.575    26.982
   30387      st       1    MUSC   Si1gX       1       2.1    28.086
   30388      st       1    MUSC   Si1gY       1       2.1    28.086
   30389      st       1    MUSC   Si1gZ       1       2.1    28.086
   30390      st       1    MUSC   Si1ga       1       2.1    28.086
   30391      st       1    MUSC   Si1gb       1       2.1    28.086
   30392      st       1    MUSC   Si1gc       1       2.1    28.086
   30393      st       1    MUSC   Si1gd       1       2.1    28.086
   30394      st       1    MUSC   Si1ge       1       2.1    28.086
   30395      st       1    MUSC   Si1gf       1       2.1    28.086
   30396      st       1    MUSC   Si1gg       1       2.1    28.086
   30397      st       1    MUSC   Si1gh       1       2.1    28.086
   30398      st       1    MUSC   Si1gi       1       2.1    28.086
   30399      st       1    MUSC   Si1gj       1       2.1    28.086
   30400      st       1    MUSC   Si1gk       1       2.1    28.086
   30401      st       1    MUSC   Si1gl       1       2.1    28.086
   30402      st       1    MUSC   Si1gm       1       2.1    28.086
   30403      ob       1    MUSC   O053Z       1     -1.05    15.999
   30404      ob       1    MUSC   O053a       1     -1.05    15.999
   30405      ob       1    MUSC   O053b       1     -1.05    15.999
   30406      ob       1    MUSC   O053c       1     -1.05    15.999
   30407      oh       1    MUSC   O053d       1     -0.95    15.999
   30408      oh       1    MUSC   O053e       1     -0.95    15.999
   30409      oh       1    MUSC   O053f       1     -0.95    15.999
   30410      oh       1    MUSC   O053g       1     -0.95    15.999
   30411      ob       1    MUSC   O053h       1     -1.05    15.999
   30412      ob       1    MUSC   O053i       1     -1.05    15.999
   30413      ob       1    MUSC   O053j       1     -1.05    15.999
   30414      ob       1    MUSC   O053k       1     -1.05    15.999
   30415      ob       1    MUSC   O053l       1     -1.05    15.999
   30416      ob       1    MUSC   O053m       1     -1.05    15.999
   30417      ob       1    MUSC   O053n       1     -1.05    15.999
   30418      ob       1    MUSC   O053o       1     -1.05    15.999
   30419      ob       1    MUSC   O053p       1     -1.05    15.999
   30420      ob       1    MUSC   O053q       1     -1.05    15.999
   30421      ob       1    MUSC   O053r       1     -1.05    15.999
   30422      ob       1    MUSC   O053s       1     -1.05    15.999
   30423      ob       1    MUSC   O053t       1     -1.05    15.999
   30424      ob       1    MUSC   O053u       1     -1.05    15.999
   30425      ob       1    MUSC   O053v       1     -1.05    15.999
   30426      ob       1    MUSC   O053w       1     -1.05    15.999
   30427      ob       1    MUSC   O053x       1     -1.05    15.999
   30428      ob       1    MUSC   O053y       1     -1.05    15.999
   30429      ob       1    MUSC   O053z       1     -1.05    15.999
   30430      ob       1    MUSC   O0540       1     -1.05    15.999
   30431      oh       1    MUSC   O0541       1     -0.95    15.999
   30432      oh       1    MUSC   O0542       1     -0.95    15.999
   30433      oh       1    MUSC   O0543       1     -0.95    15.999
   30434      oh       1    MUSC   O0544       1     -0.95    15.999
   30435      ob       1    MUSC   O0545       1     -1.05    15.999
   30436      ob       1    MUSC   O0546       1     -1.05    15.999
   30437      ob       1    MUSC   O0547       1     -1.05    15.999
   30438      ob       1    MUSC   O0548       1     -1.05    15.999
   30439      ob       1    MUSC   O0549       1     -1.05    15.999
   30440      ob       1    MUSC   O054A       1     -1.05    15.999
   30441      ob       1    MUSC   O054B       1     -1.05    15.999
   30442      ob       1    MUSC   O054C       1     -1.05    15.999
   30443      ob       1    MUSC   O054D       1     -1.05    15.999
   30444      ob       1    MUSC   O054E       1     -1.05    15.999
   30445      ob       1    MUSC   O054F       1     -1.05    15.999
   30446      ob       1    MUSC   O054G       1     -1.05    15.999
   30447      ob       1    MUSC   O054H       1     -1.05    15.999
   30448      ob       1    MUSC   O054I       1     -1.05    15.999
   30449      ob       1    MUSC   O054J       1     -1.05    15.999
   30450      ob       1    MUSC   O054K       1     -1.05    15.999
   30451       K       1    MUSC   K00Jf       1       1.0    39.098
   30452       K       1    MUSC   K00Jg       1       1.0    39.098
   30453      ao       1    MUSC   Al0qP       1     1.575    26.982
   30454      ao       1    MUSC   Al0qQ       1     1.575    26.982
   30455      ao       1    MUSC   Al0qR       1     1.575    26.982
   30456      ao       1    MUSC   Al0qS       1     1.575    26.982
   30457      ao       1    MUSC   Al0qT       1     1.575    26.982
   30458      ao       1    MUSC   Al0qU       1     1.575    26.982
   30459      ao       1    MUSC   Al0qV       1     1.575    26.982
   30460      ao       1    MUSC   Al0qW       1     1.575    26.982
   30461      st       1    MUSC   Si1gn       1       2.1    28.086
   30462      st       1    MUSC   Si1go       1       2.1    28.086
   30463      st       1    MUSC   Si1gp       1       2.1    28.086
   30464      st       1    MUSC   Si1gq       1       2.1    28.086
   30465      st       1    MUSC   Si1gr       1       2.1    28.086
   30466      st       1    MUSC   Si1gs       1       2.1    28.086
   30467      st       1    MUSC   Si1gt       1       2.1    28.086
   30468      st       1    MUSC   Si1gu       1       2.1    28.086
   30469      st       1    MUSC   Si1gv       1       2.1    28.086
   30470      st       1    MUSC   Si1gw       1       2.1    28.086
   30471      st       1    MUSC   Si1gx       1       2.1    28.086
   30472      st       1    MUSC   Si1gy       1       2.1    28.086
   30473      st       1    MUSC   Si1gz       1       2.1    28.086
   30474      st       1    MUSC   Si1h0       1       2.1    28.086
   30475      st       1    MUSC   Si1h1       1       2.1    28.086
   30476      st       1    MUSC   Si1h2       1       2.1    28.086
   30477      ob       1    MUSC   O054L       1     -1.05    15.999
   30478      ob       1    MUSC   O054M       1     -1.05    15.999
   30479      ob       1    MUSC   O054N       1     -1.05    15.999
   30480      ob       1    MUSC   O054O       1     -1.05    15.999
   30481      oh       1    MUSC   O054P       1     -0.95    15.999
   30482      oh       1    MUSC   O054Q       1     -0.95    15.999
   30483      oh       1    MUSC   O054R       1     -0.95    15.999
   30484      oh       1    MUSC   O054S       1     -0.95    15.999
   30485      ob       1    MUSC   O054T       1     -1.05    15.999
   30486      ob       1    MUSC   O054U       1     -1.05    15.999
   30487      ob       1    MUSC   O054V       1     -1.05    15.999
   30488      ob       1    MUSC   O054W       1     -1.05    15.999
   30489      ob       1    MUSC   O054X       1     -1.05    15.999
   30490      ob       1    MUSC   O054Y       1     -1.05    15.999
   30491      ob       1    MUSC   O054Z       1     -1.05    15.999
   30492      ob       1    MUSC   O054a       1     -1.05    15.999
   30493      ob       1    MUSC   O054b       1     -1.05    15.999
   30494      ob       1    MUSC   O054c       1     -1.05    15.999
   30495      ob       1    MUSC   O054d       1     -1.05    15.999
   30496      ob       1    MUSC   O054e       1     -1.05    15.999
   30497      ob       1    MUSC   O054f       1     -1.05    15.999
   30498      ob       1    MUSC   O054g       1     -1.05    15.999
   30499      ob       1    MUSC   O054h       1     -1.05    15.999
   30500      ob       1    MUSC   O054i       1     -1.05    15.999
   30501      ob       1    MUSC   O054j       1     -1.05    15.999
   30502      ob       1    MUSC   O054k       1     -1.05    15.999
   30503      ob       1    MUSC   O054l       1     -1.05    15.999
   30504      ob       1    MUSC   O054m       1     -1.05    15.999
   30505      oh       1    MUSC   O054n       1     -0.95    15.999
   30506      oh       1    MUSC   O054o       1     -0.95    15.999
   30507      oh       1    MUSC   O054p       1     -0.95    15.999
   30508      oh       1    MUSC   O054q       1     -0.95    15.999
   30509      ob       1    MUSC   O054r       1     -1.05    15.999
   30510      ob       1    MUSC   O054s       1     -1.05    15.999
   30511      ob       1    MUSC   O054t       1     -1.05    15.999
   30512      ob       1    MUSC   O054u       1     -1.05    15.999
   30513      ob       1    MUSC   O054v       1     -1.05    15.999
   30514      ob       1    MUSC   O054w       1     -1.05    15.999
   30515      ob       1    MUSC   O054x       1     -1.05    15.999
   30516      ob       1    MUSC   O054y       1     -1.05    15.999
   30517      ob       1    MUSC   O054z       1     -1.05    15.999
   30518      ob       1    MUSC   O0550       1     -1.05    15.999
   30519      ob       1    MUSC   O0551       1     -1.05    15.999
   30520      ob       1    MUSC   O0552       1     -1.05    15.999
   30521      ob       1    MUSC   O0553       1     -1.05    15.999
   30522      ob       1    MUSC   O0554       1     -1.05    15.999
   30523      ob       1    MUSC   O0555       1     -1.05    15.999
   30524      ob       1    MUSC   O0556       1     -1.05    15.999
   30525       K       1    MUSC   K00Jh       1       1.0    39.098
   30526       K       1    MUSC   K00Ji       1       1.0    39.098
   30527       K       1    MUSC   K00Jj       1       1.0    39.098
   30528       K       1    MUSC   K00Jk       1       1.0    39.098
   30529      ao       1    MUSC   Al0qX       1     1.575    26.982
   30530      ao       1    MUSC   Al0qY       1     1.575    26.982
   30531      ao       1    MUSC   Al0qZ       1     1.575    26.982
   30532      ao       1    MUSC   Al0qa       1     1.575    26.982
   30533      ao       1    MUSC   Al0qb       1     1.575    26.982
   30534      ao       1    MUSC   Al0qc       1     1.575    26.982
   30535      ao       1    MUSC   Al0qd       1     1.575    26.982
   30536      ao       1    MUSC   Al0qe       1     1.575    26.982
   30537      st       1    MUSC   Si1h3       1       2.1    28.086
   30538      st       1    MUSC   Si1h4       1       2.1    28.086
   30539      st       1    MUSC   Si1h5       1       2.1    28.086
   30540      st       1    MUSC   Si1h6       1       2.1    28.086
   30541      st       1    MUSC   Si1h7       1       2.1    28.086
   30542      st       1    MUSC   Si1h8       1       2.1    28.086
   30543      st       1    MUSC   Si1h9       1       2.1    28.086
   30544      st       1    MUSC   Si1hA       1       2.1    28.086
   30545      st       1    MUSC   Si1hB       1       2.1    28.086
   30546      st       1    MUSC   Si1hC       1       2.1    28.086
   30547      st       1    MUSC   Si1hD       1       2.1    28.086
   30548      st       1    MUSC   Si1hE       1       2.1    28.086
   30549      st       1    MUSC   Si1hF       1       2.1    28.086
   30550      st       1    MUSC   Si1hG       1       2.1    28.086
   30551      st       1    MUSC   Si1hH       1       2.1    28.086
   30552      st       1    MUSC   Si1hI       1       2.1    28.086
   30553      ob       1    MUSC   O0557       1     -1.05    15.999
   30554      ob       1    MUSC   O0558       1     -1.05    15.999
   30555      ob       1    MUSC   O0559       1     -1.05    15.999
   30556      ob       1    MUSC   O055A       1     -1.05    15.999
   30557      oh       1    MUSC   O055B       1     -0.95    15.999
   30558      oh       1    MUSC   O055C       1     -0.95    15.999
   30559      oh       1    MUSC   O055D       1     -0.95    15.999
   30560      oh       1    MUSC   O055E       1     -0.95    15.999
   30561      ob       1    MUSC   O055F       1     -1.05    15.999
   30562      ob       1    MUSC   O055G       1     -1.05    15.999
   30563      ob       1    MUSC   O055H       1     -1.05    15.999
   30564      ob       1    MUSC   O055I       1     -1.05    15.999
   30565      ob       1    MUSC   O055J       1     -1.05    15.999
   30566      ob       1    MUSC   O055K       1     -1.05    15.999
   30567      ob       1    MUSC   O055L       1     -1.05    15.999
   30568      ob       1    MUSC   O055M       1     -1.05    15.999
   30569      ob       1    MUSC   O055N       1     -1.05    15.999
   30570      ob       1    MUSC   O055O       1     -1.05    15.999
   30571      ob       1    MUSC   O055P       1     -1.05    15.999
   30572      ob       1    MUSC   O055Q       1     -1.05    15.999
   30573      ob       1    MUSC   O055R       1     -1.05    15.999
   30574      ob       1    MUSC   O055S       1     -1.05    15.999
   30575      ob       1    MUSC   O055T       1     -1.05    15.999
   30576      ob       1    MUSC   O055U       1     -1.05    15.999
   30577      ob       1    MUSC   O055V       1     -1.05    15.999
   30578      ob       1    MUSC   O055W       1     -1.05    15.999
   30579      ob       1    MUSC   O055X       1     -1.05    15.999
   30580      ob       1    MUSC   O055Y       1     -1.05    15.999
   30581      oh       1    MUSC   O055Z       1     -0.95    15.999
   30582      oh       1    MUSC   O055a       1     -0.95    15.999
   30583      oh       1    MUSC   O055b       1     -0.95    15.999
   30584      oh       1    MUSC   O055c       1     -0.95    15.999
   30585      ob       1    MUSC   O055d       1     -1.05    15.999
   30586      ob       1    MUSC   O055e       1     -1.05    15.999
   30587      ob       1    MUSC   O055f       1     -1.05    15.999
   30588      ob       1    MUSC   O055g       1     -1.05    15.999
   30589      ob       1    MUSC   O055h       1     -1.05    15.999
   30590      ob       1    MUSC   O055i       1     -1.05    15.999
   30591      ob       1    MUSC   O055j       1     -1.05    15.999
   30592      ob       1    MUSC   O055k       1     -1.05    15.999
   30593      ob       1    MUSC   O055l       1     -1.05    15.999
   30594      ob       1    MUSC   O055m       1     -1.05    15.999
   30595      ob       1    MUSC   O055n       1     -1.05    15.999
   30596      ob       1    MUSC   O055o       1     -1.05    15.999
   30597      ob       1    MUSC   O055p       1     -1.05    15.999
   30598      ob       1    MUSC   O055q       1     -1.05    15.999
   30599      ob       1    MUSC   O055r       1     -1.05    15.999
   30600      ob       1    MUSC   O055s       1     -1.05    15.999
   30601       K       1    MUSC   K00Jl       1       1.0    39.098
   30602       K       1    MUSC   K00Jm       1       1.0    39.098
   30603      ao       1    MUSC   Al0qf       1     1.575    26.982
   30604      ao       1    MUSC   Al0qg       1     1.575    26.982
   30605      ao       1    MUSC   Al0qh       1     1.575    26.982
   30606      ao       1    MUSC   Al0qi       1     1.575    26.982
   30607      ao       1    MUSC   Al0qj       1     1.575    26.982
   30608      ao       1    MUSC   Al0qk       1     1.575    26.982
   30609      ao       1    MUSC   Al0ql       1     1.575    26.982
   30610      ao       1    MUSC   Al0qm       1     1.575    26.982
   30611      st       1    MUSC   Si1hJ       1       2.1    28.086
   30612      st       1    MUSC   Si1hK       1       2.1    28.086
   30613      st       1    MUSC   Si1hL       1       2.1    28.086
   30614      st       1    MUSC   Si1hM       1       2.1    28.086
   30615      st       1    MUSC   Si1hN       1       2.1    28.086
   30616      st       1    MUSC   Si1hO       1       2.1    28.086
   30617      st       1    MUSC   Si1hP       1       2.1    28.086
   30618      st       1    MUSC   Si1hQ       1       2.1    28.086
   30619      st       1    MUSC   Si1hR       1       2.1    28.086
   30620      st       1    MUSC   Si1hS       1       2.1    28.086
   30621      st       1    MUSC   Si1hT       1       2.1    28.086
   30622      st       1    MUSC   Si1hU       1       2.1    28.086
   30623      st       1    MUSC   Si1hV       1       2.1    28.086
   30624      st       1    MUSC   Si1hW       1       2.1    28.086
   30625      st       1    MUSC   Si1hX       1       2.1    28.086
   30626      st       1    MUSC   Si1hY       1       2.1    28.086
   30627      ob       1    MUSC   O055t       1     -1.05    15.999
   30628      ob       1    MUSC   O055u       1     -1.05    15.999
   30629      ob       1    MUSC   O055v       1     -1.05    15.999
   30630      ob       1    MUSC   O055w       1     -1.05    15.999
   30631      oh       1    MUSC   O055x       1     -0.95    15.999
   30632      oh       1    MUSC   O055y       1     -0.95    15.999
   30633      oh       1    MUSC   O055z       1     -0.95    15.999
   30634      oh       1    MUSC   O0560       1     -0.95    15.999
   30635      ob       1    MUSC   O0561       1     -1.05    15.999
   30636      ob       1    MUSC   O0562       1     -1.05    15.999
   30637      ob       1    MUSC   O0563       1     -1.05    15.999
   30638      ob       1    MUSC   O0564       1     -1.05    15.999
   30639      ob       1    MUSC   O0565       1     -1.05    15.999
   30640      ob       1    MUSC   O0566       1     -1.05    15.999
   30641      ob       1    MUSC   O0567       1     -1.05    15.999
   30642      ob       1    MUSC   O0568       1     -1.05    15.999
   30643      ob       1    MUSC   O0569       1     -1.05    15.999
   30644      ob       1    MUSC   O056A       1     -1.05    15.999
   30645      ob       1    MUSC   O056B       1     -1.05    15.999
   30646      ob       1    MUSC   O056C       1     -1.05    15.999
   30647      ob       1    MUSC   O056D       1     -1.05    15.999
   30648      ob       1    MUSC   O056E       1     -1.05    15.999
   30649      ob       1    MUSC   O056F       1     -1.05    15.999
   30650      ob       1    MUSC   O056G       1     -1.05    15.999
   30651      ob       1    MUSC   O056H       1     -1.05    15.999
   30652      ob       1    MUSC   O056I       1     -1.05    15.999
   30653      ob       1    MUSC   O056J       1     -1.05    15.999
   30654      ob       1    MUSC   O056K       1     -1.05    15.999
   30655      oh       1    MUSC   O056L       1     -0.95    15.999
   30656      oh       1    MUSC   O056M       1     -0.95    15.999
   30657      oh       1    MUSC   O056N       1     -0.95    15.999
   30658      oh       1    MUSC   O056O       1     -0.95    15.999
   30659      ob       1    MUSC   O056P       1     -1.05    15.999
   30660      ob       1    MUSC   O056Q       1     -1.05    15.999
   30661      ob       1    MUSC   O056R       1     -1.05    15.999
   30662      ob       1    MUSC   O056S       1     -1.05    15.999
   30663      ob       1    MUSC   O056T       1     -1.05    15.999
   30664      ob       1    MUSC   O056U       1     -1.05    15.999
   30665      ob       1    MUSC   O056V       1     -1.05    15.999
   30666      ob       1    MUSC   O056W       1     -1.05    15.999
   30667      ob       1    MUSC   O056X       1     -1.05    15.999
   30668      ob       1    MUSC   O056Y       1     -1.05    15.999
   30669      ob       1    MUSC   O056Z       1     -1.05    15.999
   30670      ob       1    MUSC   O056a       1     -1.05    15.999
   30671      ob       1    MUSC   O056b       1     -1.05    15.999
   30672      ob       1    MUSC   O056c       1     -1.05    15.999
   30673      ob       1    MUSC   O056d       1     -1.05    15.999
   30674      ob       1    MUSC   O056e       1     -1.05    15.999
   30675       K       1    MUSC   K00Jn       1       1.0    39.098
   30676       K       1    MUSC   K00Jo       1       1.0    39.098
   30677       K       1    MUSC   K00Jp       1       1.0    39.098
   30678       K       1    MUSC   K00Jq       1       1.0    39.098
   30679      ao       1    MUSC   Al0qn       1     1.575    26.982
   30680      ao       1    MUSC   Al0qo       1     1.575    26.982
   30681      ao       1    MUSC   Al0qp       1     1.575    26.982
   30682      ao       1    MUSC   Al0qq       1     1.575    26.982
   30683      ao       1    MUSC   Al0qr       1     1.575    26.982
   30684      ao       1    MUSC   Al0qs       1     1.575    26.982
   30685      ao       1    MUSC   Al0qt       1     1.575    26.982
   30686      ao       1    MUSC   Al0qu       1     1.575    26.982
   30687      st       1    MUSC   Si1hZ       1       2.1    28.086
   30688      st       1    MUSC   Si1ha       1       2.1    28.086
   30689      st       1    MUSC   Si1hb       1       2.1    28.086
   30690      st       1    MUSC   Si1hc       1       2.1    28.086
   30691      st       1    MUSC   Si1hd       1       2.1    28.086
   30692      st       1    MUSC   Si1he       1       2.1    28.086
   30693      st       1    MUSC   Si1hf       1       2.1    28.086
   30694      st       1    MUSC   Si1hg       1       2.1    28.086
   30695      st       1    MUSC   Si1hh       1       2.1    28.086
   30696      st       1    MUSC   Si1hi       1       2.1    28.086
   30697      st       1    MUSC   Si1hj       1       2.1    28.086
   30698      st       1    MUSC   Si1hk       1       2.1    28.086
   30699      st       1    MUSC   Si1hl       1       2.1    28.086
   30700      st       1    MUSC   Si1hm       1       2.1    28.086
   30701      st       1    MUSC   Si1hn       1       2.1    28.086
   30702      st       1    MUSC   Si1ho       1       2.1    28.086
   30703      ob       1    MUSC   O056f       1     -1.05    15.999
   30704      ob       1    MUSC   O056g       1     -1.05    15.999
   30705      ob       1    MUSC   O056h       1     -1.05    15.999
   30706      ob       1    MUSC   O056i       1     -1.05    15.999
   30707      oh       1    MUSC   O056j       1     -0.95    15.999
   30708      oh       1    MUSC   O056k       1     -0.95    15.999
   30709      oh       1    MUSC   O056l       1     -0.95    15.999
   30710      oh       1    MUSC   O056m       1     -0.95    15.999
   30711      ob       1    MUSC   O056n       1     -1.05    15.999
   30712      ob       1    MUSC   O056o       1     -1.05    15.999
   30713      ob       1    MUSC   O056p       1     -1.05    15.999
   30714      ob       1    MUSC   O056q       1     -1.05    15.999
   30715      ob       1    MUSC   O056r       1     -1.05    15.999
   30716      ob       1    MUSC   O056s       1     -1.05    15.999
   30717      ob       1    MUSC   O056t       1     -1.05    15.999
   30718      ob       1    MUSC   O056u       1     -1.05    15.999
   30719      ob       1    MUSC   O056v       1     -1.05    15.999
   30720      ob       1    MUSC   O056w       1     -1.05    15.999
   30721      ob       1    MUSC   O056x       1     -1.05    15.999
   30722      ob       1    MUSC   O056y       1     -1.05    15.999
   30723      ob       1    MUSC   O056z       1     -1.05    15.999
   30724      ob       1    MUSC   O0570       1     -1.05    15.999
   30725      ob       1    MUSC   O0571       1     -1.05    15.999
   30726      ob       1    MUSC   O0572       1     -1.05    15.999
   30727      ob       1    MUSC   O0573       1     -1.05    15.999
   30728      ob       1    MUSC   O0574       1     -1.05    15.999
   30729      ob       1    MUSC   O0575       1     -1.05    15.999
   30730      ob       1    MUSC   O0576       1     -1.05    15.999
   30731      oh       1    MUSC   O0577       1     -0.95    15.999
   30732      oh       1    MUSC   O0578       1     -0.95    15.999
   30733      oh       1    MUSC   O0579       1     -0.95    15.999
   30734      oh       1    MUSC   O057A       1     -0.95    15.999
   30735      ob       1    MUSC   O057B       1     -1.05    15.999
   30736      ob       1    MUSC   O057C       1     -1.05    15.999
   30737      ob       1    MUSC   O057D       1     -1.05    15.999
   30738      ob       1    MUSC   O057E       1     -1.05    15.999
   30739      ob       1    MUSC   O057F       1     -1.05    15.999
   30740      ob       1    MUSC   O057G       1     -1.05    15.999
   30741      ob       1    MUSC   O057H       1     -1.05    15.999
   30742      ob       1    MUSC   O057I       1     -1.05    15.999
   30743      ob       1    MUSC   O057J       1     -1.05    15.999
   30744      ob       1    MUSC   O057K       1     -1.05    15.999
   30745      ob       1    MUSC   O057L       1     -1.05    15.999
   30746      ob       1    MUSC   O057M       1     -1.05    15.999
   30747      ob       1    MUSC   O057N       1     -1.05    15.999
   30748      ob       1    MUSC   O057O       1     -1.05    15.999
   30749      ob       1    MUSC   O057P       1     -1.05    15.999
   30750      ob       1    MUSC   O057Q       1     -1.05    15.999
   30751       K       1    MUSC   K00Jr       1       1.0    39.098
   30752       K       1    MUSC   K00Js       1       1.0    39.098
   30753      ao       1    MUSC   Al0qv       1     1.575    26.982
   30754      ao       1    MUSC   Al0qw       1     1.575    26.982
   30755      ao       1    MUSC   Al0qx       1     1.575    26.982
   30756      ao       1    MUSC   Al0qy       1     1.575    26.982
   30757      ao       1    MUSC   Al0qz       1     1.575    26.982
   30758      ao       1    MUSC   Al0r0       1     1.575    26.982
   30759      ao       1    MUSC   Al0r1       1     1.575    26.982
   30760      ao       1    MUSC   Al0r2       1     1.575    26.982
   30761      st       1    MUSC   Si1hp       1       2.1    28.086
   30762      st       1    MUSC   Si1hq       1       2.1    28.086
   30763      st       1    MUSC   Si1hr       1       2.1    28.086
   30764      st       1    MUSC   Si1hs       1       2.1    28.086
   30765      st       1    MUSC   Si1ht       1       2.1    28.086
   30766      st       1    MUSC   Si1hu       1       2.1    28.086
   30767      st       1    MUSC   Si1hv       1       2.1    28.086
   30768      st       1    MUSC   Si1hw       1       2.1    28.086
   30769      st       1    MUSC   Si1hx       1       2.1    28.086
   30770      st       1    MUSC   Si1hy       1       2.1    28.086
   30771      st       1    MUSC   Si1hz       1       2.1    28.086
   30772      st       1    MUSC   Si1i0       1       2.1    28.086
   30773      st       1    MUSC   Si1i1       1       2.1    28.086
   30774      st       1    MUSC   Si1i2       1       2.1    28.086
   30775      st       1    MUSC   Si1i3       1       2.1    28.086
   30776      st       1    MUSC   Si1i4       1       2.1    28.086
   30777      ob       1    MUSC   O057R       1     -1.05    15.999
   30778      ob       1    MUSC   O057S       1     -1.05    15.999
   30779      ob       1    MUSC   O057T       1     -1.05    15.999
   30780      ob       1    MUSC   O057U       1     -1.05    15.999
   30781      oh       1    MUSC   O057V       1     -0.95    15.999
   30782      oh       1    MUSC   O057W       1     -0.95    15.999
   30783      oh       1    MUSC   O057X       1     -0.95    15.999
   30784      oh       1    MUSC   O057Y       1     -0.95    15.999
   30785      ob       1    MUSC   O057Z       1     -1.05    15.999
   30786      ob       1    MUSC   O057a       1     -1.05    15.999
   30787      ob       1    MUSC   O057b       1     -1.05    15.999
   30788      ob       1    MUSC   O057c       1     -1.05    15.999
   30789      ob       1    MUSC   O057d       1     -1.05    15.999
   30790      ob       1    MUSC   O057e       1     -1.05    15.999
   30791      ob       1    MUSC   O057f       1     -1.05    15.999
   30792      ob       1    MUSC   O057g       1     -1.05    15.999
   30793      ob       1    MUSC   O057h       1     -1.05    15.999
   30794      ob       1    MUSC   O057i       1     -1.05    15.999
   30795      ob       1    MUSC   O057j       1     -1.05    15.999
   30796      ob       1    MUSC   O057k       1     -1.05    15.999
   30797      ob       1    MUSC   O057l       1     -1.05    15.999
   30798      ob       1    MUSC   O057m       1     -1.05    15.999
   30799      ob       1    MUSC   O057n       1     -1.05    15.999
   30800      ob       1    MUSC   O057o       1     -1.05    15.999
   30801      ob       1    MUSC   O057p       1     -1.05    15.999
   30802      ob       1    MUSC   O057q       1     -1.05    15.999
   30803      ob       1    MUSC   O057r       1     -1.05    15.999
   30804      ob       1    MUSC   O057s       1     -1.05    15.999
   30805      oh       1    MUSC   O057t       1     -0.95    15.999
   30806      oh       1    MUSC   O057u       1     -0.95    15.999
   30807      oh       1    MUSC   O057v       1     -0.95    15.999
   30808      oh       1    MUSC   O057w       1     -0.95    15.999
   30809      ob       1    MUSC   O057x       1     -1.05    15.999
   30810      ob       1    MUSC   O057y       1     -1.05    15.999
   30811      ob       1    MUSC   O057z       1     -1.05    15.999
   30812      ob       1    MUSC   O0580       1     -1.05    15.999
   30813      ob       1    MUSC   O0581       1     -1.05    15.999
   30814      ob       1    MUSC   O0582       1     -1.05    15.999
   30815      ob       1    MUSC   O0583       1     -1.05    15.999
   30816      ob       1    MUSC   O0584       1     -1.05    15.999
   30817      ob       1    MUSC   O0585       1     -1.05    15.999
   30818      ob       1    MUSC   O0586       1     -1.05    15.999
   30819      ob       1    MUSC   O0587       1     -1.05    15.999
   30820      ob       1    MUSC   O0588       1     -1.05    15.999
   30821      ob       1    MUSC   O0589       1     -1.05    15.999
   30822      ob       1    MUSC   O058A       1     -1.05    15.999
   30823      ob       1    MUSC   O058B       1     -1.05    15.999
   30824      ob       1    MUSC   O058C       1     -1.05    15.999
   30825       K       1    MUSC   K00Jt       1       1.0    39.098
   30826       K       1    MUSC   K00Ju       1       1.0    39.098
   30827       K       1    MUSC   K00Jv       1       1.0    39.098
   30828       K       1    MUSC   K00Jw       1       1.0    39.098
   30829      ao       1    MUSC   Al0r3       1     1.575    26.982
   30830      ao       1    MUSC   Al0r4       1     1.575    26.982
   30831      ao       1    MUSC   Al0r5       1     1.575    26.982
   30832      ao       1    MUSC   Al0r6       1     1.575    26.982
   30833      ao       1    MUSC   Al0r7       1     1.575    26.982
   30834      ao       1    MUSC   Al0r8       1     1.575    26.982
   30835      ao       1    MUSC   Al0r9       1     1.575    26.982
   30836      ao       1    MUSC   Al0rA       1     1.575    26.982
   30837      st       1    MUSC   Si1i5       1       2.1    28.086
   30838      st       1    MUSC   Si1i6       1       2.1    28.086
   30839      st       1    MUSC   Si1i7       1       2.1    28.086
   30840      st       1    MUSC   Si1i8       1       2.1    28.086
   30841      st       1    MUSC   Si1i9       1       2.1    28.086
   30842      st       1    MUSC   Si1iA       1       2.1    28.086
   30843      st       1    MUSC   Si1iB       1       2.1    28.086
   30844      st       1    MUSC   Si1iC       1       2.1    28.086
   30845      st       1    MUSC   Si1iD       1       2.1    28.086
   30846      st       1    MUSC   Si1iE       1       2.1    28.086
   30847      st       1    MUSC   Si1iF       1       2.1    28.086
   30848      st       1    MUSC   Si1iG       1       2.1    28.086
   30849      st       1    MUSC   Si1iH       1       2.1    28.086
   30850      st       1    MUSC   Si1iI       1       2.1    28.086
   30851      st       1    MUSC   Si1iJ       1       2.1    28.086
   30852      st       1    MUSC   Si1iK       1       2.1    28.086
   30853      ob       1    MUSC   O058D       1     -1.05    15.999
   30854      ob       1    MUSC   O058E       1     -1.05    15.999
   30855      ob       1    MUSC   O058F       1     -1.05    15.999
   30856      ob       1    MUSC   O058G       1     -1.05    15.999
   30857      oh       1    MUSC   O058H       1     -0.95    15.999
   30858      oh       1    MUSC   O058I       1     -0.95    15.999
   30859      oh       1    MUSC   O058J       1     -0.95    15.999
   30860      oh       1    MUSC   O058K       1     -0.95    15.999
   30861      ob       1    MUSC   O058L       1     -1.05    15.999
   30862      ob       1    MUSC   O058M       1     -1.05    15.999
   30863      ob       1    MUSC   O058N       1     -1.05    15.999
   30864      ob       1    MUSC   O058O       1     -1.05    15.999
   30865      ob       1    MUSC   O058P       1     -1.05    15.999
   30866      ob       1    MUSC   O058Q       1     -1.05    15.999
   30867      ob       1    MUSC   O058R       1     -1.05    15.999
   30868      ob       1    MUSC   O058S       1     -1.05    15.999
   30869      ob       1    MUSC   O058T       1     -1.05    15.999
   30870      ob       1    MUSC   O058U       1     -1.05    15.999
   30871      ob       1    MUSC   O058V       1     -1.05    15.999
   30872      ob       1    MUSC   O058W       1     -1.05    15.999
   30873      ob       1    MUSC   O058X       1     -1.05    15.999
   30874      ob       1    MUSC   O058Y       1     -1.05    15.999
   30875      ob       1    MUSC   O058Z       1     -1.05    15.999
   30876      ob       1    MUSC   O058a       1     -1.05    15.999
   30877      ob       1    MUSC   O058b       1     -1.05    15.999
   30878      ob       1    MUSC   O058c       1     -1.05    15.999
   30879      ob       1    MUSC   O058d       1     -1.05    15.999
   30880      ob       1    MUSC   O058e       1     -1.05    15.999
   30881      oh       1    MUSC   O058f       1     -0.95    15.999
   30882      oh       1    MUSC   O058g       1     -0.95    15.999
   30883      oh       1    MUSC   O058h       1     -0.95    15.999
   30884      oh       1    MUSC   O058i       1     -0.95    15.999
   30885      ob       1    MUSC   O058j       1     -1.05    15.999
   30886      ob       1    MUSC   O058k       1     -1.05    15.999
   30887      ob       1    MUSC   O058l       1     -1.05    15.999
   30888      ob       1    MUSC   O058m       1     -1.05    15.999
   30889      ob       1    MUSC   O058n       1     -1.05    15.999
   30890      ob       1    MUSC   O058o       1     -1.05    15.999
   30891      ob       1    MUSC   O058p       1     -1.05    15.999
   30892      ob       1    MUSC   O058q       1     -1.05    15.999
   30893      ob       1    MUSC   O058r       1     -1.05    15.999
   30894      ob       1    MUSC   O058s       1     -1.05    15.999
   30895      ob       1    MUSC   O058t       1     -1.05    15.999
   30896      ob       1    MUSC   O058u       1     -1.05    15.999
   30897      ob       1    MUSC   O058v       1     -1.05    15.999
   30898      ob       1    MUSC   O058w       1     -1.05    15.999
   30899      ob       1    MUSC   O058x       1     -1.05    15.999
   30900      ob       1    MUSC   O058y       1     -1.05    15.999
   30901       K       1    MUSC   K00Jx       1       1.0    39.098
   30902       K       1    MUSC   K00Jy       1       1.0    39.098
   30903      ao       1    MUSC   Al0rB       1     1.575    26.982
   30904      ao       1    MUSC   Al0rC       1     1.575    26.982
   30905      ao       1    MUSC   Al0rD       1     1.575    26.982
   30906      ao       1    MUSC   Al0rE       1     1.575    26.982
   30907      ao       1    MUSC   Al0rF       1     1.575    26.982
   30908      ao       1    MUSC   Al0rG       1     1.575    26.982
   30909      ao       1    MUSC   Al0rH       1     1.575    26.982
   30910      ao       1    MUSC   Al0rI       1     1.575    26.982
   30911      st       1    MUSC   Si1iL       1       2.1    28.086
   30912      st       1    MUSC   Si1iM       1       2.1    28.086
   30913      st       1    MUSC   Si1iN       1       2.1    28.086
   30914      st       1    MUSC   Si1iO       1       2.1    28.086
   30915      st       1    MUSC   Si1iP       1       2.1    28.086
   30916      st       1    MUSC   Si1iQ       1       2.1    28.086
   30917      st       1    MUSC   Si1iR       1       2.1    28.086
   30918      st       1    MUSC   Si1iS       1       2.1    28.086
   30919      st       1    MUSC   Si1iT       1       2.1    28.086
   30920      st       1    MUSC   Si1iU       1       2.1    28.086
   30921      st       1    MUSC   Si1iV       1       2.1    28.086
   30922      st       1    MUSC   Si1iW       1       2.1    28.086
   30923      st       1    MUSC   Si1iX       1       2.1    28.086
   30924      st       1    MUSC   Si1iY       1       2.1    28.086
   30925      st       1    MUSC   Si1iZ       1       2.1    28.086
   30926      st       1    MUSC   Si1ia       1       2.1    28.086
   30927      ob       1    MUSC   O058z       1     -1.05    15.999
   30928      ob       1    MUSC   O0590       1     -1.05    15.999
   30929      ob       1    MUSC   O0591       1     -1.05    15.999
   30930      ob       1    MUSC   O0592       1     -1.05    15.999
   30931      oh       1    MUSC   O0593       1     -0.95    15.999
   30932      oh       1    MUSC   O0594       1     -0.95    15.999
   30933      oh       1    MUSC   O0595       1     -0.95    15.999
   30934      oh       1    MUSC   O0596       1     -0.95    15.999
   30935      ob       1    MUSC   O0597       1     -1.05    15.999
   30936      ob       1    MUSC   O0598       1     -1.05    15.999
   30937      ob       1    MUSC   O0599       1     -1.05    15.999
   30938      ob       1    MUSC   O059A       1     -1.05    15.999
   30939      ob       1    MUSC   O059B       1     -1.05    15.999
   30940      ob       1    MUSC   O059C       1     -1.05    15.999
   30941      ob       1    MUSC   O059D       1     -1.05    15.999
   30942      ob       1    MUSC   O059E       1     -1.05    15.999
   30943      ob       1    MUSC   O059F       1     -1.05    15.999
   30944      ob       1    MUSC   O059G       1     -1.05    15.999
   30945      ob       1    MUSC   O059H       1     -1.05    15.999
   30946      ob       1    MUSC   O059I       1     -1.05    15.999
   30947      ob       1    MUSC   O059J       1     -1.05    15.999
   30948      ob       1    MUSC   O059K       1     -1.05    15.999
   30949      ob       1    MUSC   O059L       1     -1.05    15.999
   30950      ob       1    MUSC   O059M       1     -1.05    15.999
   30951      ob       1    MUSC   O059N       1     -1.05    15.999
   30952      ob       1    MUSC   O059O       1     -1.05    15.999
   30953      ob       1    MUSC   O059P       1     -1.05    15.999
   30954      ob       1    MUSC   O059Q       1     -1.05    15.999
   30955      oh       1    MUSC   O059R       1     -0.95    15.999
   30956      oh       1    MUSC   O059S       1     -0.95    15.999
   30957      oh       1    MUSC   O059T       1     -0.95    15.999
   30958      oh       1    MUSC   O059U       1     -0.95    15.999
   30959      ob       1    MUSC   O059V       1     -1.05    15.999
   30960      ob       1    MUSC   O059W       1     -1.05    15.999
   30961      ob       1    MUSC   O059X       1     -1.05    15.999
   30962      ob       1    MUSC   O059Y       1     -1.05    15.999
   30963      ob       1    MUSC   O059Z       1     -1.05    15.999
   30964      ob       1    MUSC   O059a       1     -1.05    15.999
   30965      ob       1    MUSC   O059b       1     -1.05    15.999
   30966      ob       1    MUSC   O059c       1     -1.05    15.999
   30967      ob       1    MUSC   O059d       1     -1.05    15.999
   30968      ob       1    MUSC   O059e       1     -1.05    15.999
   30969      ob       1    MUSC   O059f       1     -1.05    15.999
   30970      ob       1    MUSC   O059g       1     -1.05    15.999
   30971      ob       1    MUSC   O059h       1     -1.05    15.999
   30972      ob       1    MUSC   O059i       1     -1.05    15.999
   30973      ob       1    MUSC   O059j       1     -1.05    15.999
   30974      ob       1    MUSC   O059k       1     -1.05    15.999
   30975       K       1    MUSC   K00Jz       1       1.0    39.098
   30976       K       1    MUSC   K00K0       1       1.0    39.098
   30977       K       1    MUSC   K00K1       1       1.0    39.098
   30978       K       1    MUSC   K00K2       1       1.0    39.098
   30979      ao       1    MUSC   Al0rJ       1     1.575    26.982
   30980      ao       1    MUSC   Al0rK       1     1.575    26.982
   30981      ao       1    MUSC   Al0rL       1     1.575    26.982
   30982      ao       1    MUSC   Al0rM       1     1.575    26.982
   30983      ao       1    MUSC   Al0rN       1     1.575    26.982
   30984      ao       1    MUSC   Al0rO       1     1.575    26.982
   30985      ao       1    MUSC   Al0rP       1     1.575    26.982
   30986      ao       1    MUSC   Al0rQ       1     1.575    26.982
   30987      st       1    MUSC   Si1ib       1       2.1    28.086
   30988      st       1    MUSC   Si1ic       1       2.1    28.086
   30989      st       1    MUSC   Si1id       1       2.1    28.086
   30990      st       1    MUSC   Si1ie       1       2.1    28.086
   30991      st       1    MUSC   Si1if       1       2.1    28.086
   30992      st       1    MUSC   Si1ig       1       2.1    28.086
   30993      st       1    MUSC   Si1ih       1       2.1    28.086
   30994      st       1    MUSC   Si1ii       1       2.1    28.086
   30995      st       1    MUSC   Si1ij       1       2.1    28.086
   30996      st       1    MUSC   Si1ik       1       2.1    28.086
   30997      st       1    MUSC   Si1il       1       2.1    28.086
   30998      st       1    MUSC   Si1im       1       2.1    28.086
   30999      st       1    MUSC   Si1in       1       2.1    28.086
   31000      st       1    MUSC   Si1io       1       2.1    28.086
   31001      st       1    MUSC   Si1ip       1       2.1    28.086
   31002      st       1    MUSC   Si1iq       1       2.1    28.086
   31003      ob       1    MUSC   O059l       1     -1.05    15.999
   31004      ob       1    MUSC   O059m       1     -1.05    15.999
   31005      ob       1    MUSC   O059n       1     -1.05    15.999
   31006      ob       1    MUSC   O059o       1     -1.05    15.999
   31007      oh       1    MUSC   O059p       1     -0.95    15.999
   31008      oh       1    MUSC   O059q       1     -0.95    15.999
   31009      oh       1    MUSC   O059r       1     -0.95    15.999
   31010      oh       1    MUSC   O059s       1     -0.95    15.999
   31011      ob       1    MUSC   O059t       1     -1.05    15.999
   31012      ob       1    MUSC   O059u       1     -1.05    15.999
   31013      ob       1    MUSC   O059v       1     -1.05    15.999
   31014      ob       1    MUSC   O059w       1     -1.05    15.999
   31015      ob       1    MUSC   O059x       1     -1.05    15.999
   31016      ob       1    MUSC   O059y       1     -1.05    15.999
   31017      ob       1    MUSC   O059z       1     -1.05    15.999
   31018      ob       1    MUSC   O05A0       1     -1.05    15.999
   31019      ob       1    MUSC   O05A1       1     -1.05    15.999
   31020      ob       1    MUSC   O05A2       1     -1.05    15.999
   31021      ob       1    MUSC   O05A3       1     -1.05    15.999
   31022      ob       1    MUSC   O05A4       1     -1.05    15.999
   31023      ob       1    MUSC   O05A5       1     -1.05    15.999
   31024      ob       1    MUSC   O05A6       1     -1.05    15.999
   31025      ob       1    MUSC   O05A7       1     -1.05    15.999
   31026      ob       1    MUSC   O05A8       1     -1.05    15.999
   31027      ob       1    MUSC   O05A9       1     -1.05    15.999
   31028      ob       1    MUSC   O05AA       1     -1.05    15.999
   31029      ob       1    MUSC   O05AB       1     -1.05    15.999
   31030      ob       1    MUSC   O05AC       1     -1.05    15.999
   31031      oh       1    MUSC   O05AD       1     -0.95    15.999
   31032      oh       1    MUSC   O05AE       1     -0.95    15.999
   31033      oh       1    MUSC   O05AF       1     -0.95    15.999
   31034      oh       1    MUSC   O05AG       1     -0.95    15.999
   31035      ob       1    MUSC   O05AH       1     -1.05    15.999
   31036      ob       1    MUSC   O05AI       1     -1.05    15.999
   31037      ob       1    MUSC   O05AJ       1     -1.05    15.999
   31038      ob       1    MUSC   O05AK       1     -1.05    15.999
   31039      ob       1    MUSC   O05AL       1     -1.05    15.999
   31040      ob       1    MUSC   O05AM       1     -1.05    15.999
   31041      ob       1    MUSC   O05AN       1     -1.05    15.999
   31042      ob       1    MUSC   O05AO       1     -1.05    15.999
   31043      ob       1    MUSC   O05AP       1     -1.05    15.999
   31044      ob       1    MUSC   O05AQ       1     -1.05    15.999
   31045      ob       1    MUSC   O05AR       1     -1.05    15.999
   31046      ob       1    MUSC   O05AS       1     -1.05    15.999
   31047      ob       1    MUSC   O05AT       1     -1.05    15.999
   31048      ob       1    MUSC   O05AU       1     -1.05    15.999
   31049      ob       1    MUSC   O05AV       1     -1.05    15.999
   31050      ob       1    MUSC   O05AW       1     -1.05    15.999
   31051       K       1    MUSC   K00K3       1       1.0    39.098
   31052       K       1    MUSC   K00K4       1       1.0    39.098
   31053      ao       1    MUSC   Al0rR       1     1.575    26.982
   31054      ao       1    MUSC   Al0rS       1     1.575    26.982
   31055      ao       1    MUSC   Al0rT       1     1.575    26.982
   31056      ao       1    MUSC   Al0rU       1     1.575    26.982
   31057      ao       1    MUSC   Al0rV       1     1.575    26.982
   31058      ao       1    MUSC   Al0rW       1     1.575    26.982
   31059      ao       1    MUSC   Al0rX       1     1.575    26.982
   31060      ao       1    MUSC   Al0rY       1     1.575    26.982
   31061      st       1    MUSC   Si1ir       1       2.1    28.086
   31062      st       1    MUSC   Si1is       1       2.1    28.086
   31063      st       1    MUSC   Si1it       1       2.1    28.086
   31064      st       1    MUSC   Si1iu       1       2.1    28.086
   31065      st       1    MUSC   Si1iv       1       2.1    28.086
   31066      st       1    MUSC   Si1iw       1       2.1    28.086
   31067      st       1    MUSC   Si1ix       1       2.1    28.086
   31068      st       1    MUSC   Si1iy       1       2.1    28.086
   31069      st       1    MUSC   Si1iz       1       2.1    28.086
   31070      st       1    MUSC   Si1j0       1       2.1    28.086
   31071      st       1    MUSC   Si1j1       1       2.1    28.086
   31072      st       1    MUSC   Si1j2       1       2.1    28.086
   31073      st       1    MUSC   Si1j3       1       2.1    28.086
   31074      st       1    MUSC   Si1j4       1       2.1    28.086
   31075      st       1    MUSC   Si1j5       1       2.1    28.086
   31076      st       1    MUSC   Si1j6       1       2.1    28.086
   31077      ob       1    MUSC   O05AX       1     -1.05    15.999
   31078      ob       1    MUSC   O05AY       1     -1.05    15.999
   31079      ob       1    MUSC   O05AZ       1     -1.05    15.999
   31080      ob       1    MUSC   O05Aa       1     -1.05    15.999
   31081      oh       1    MUSC   O05Ab       1     -0.95    15.999
   31082      oh       1    MUSC   O05Ac       1     -0.95    15.999
   31083      oh       1    MUSC   O05Ad       1     -0.95    15.999
   31084      oh       1    MUSC   O05Ae       1     -0.95    15.999
   31085      ob       1    MUSC   O05Af       1     -1.05    15.999
   31086      ob       1    MUSC   O05Ag       1     -1.05    15.999
   31087      ob       1    MUSC   O05Ah       1     -1.05    15.999
   31088      ob       1    MUSC   O05Ai       1     -1.05    15.999
   31089      ob       1    MUSC   O05Aj       1     -1.05    15.999
   31090      ob       1    MUSC   O05Ak       1     -1.05    15.999
   31091      ob       1    MUSC   O05Al       1     -1.05    15.999
   31092      ob       1    MUSC   O05Am       1     -1.05    15.999
   31093      ob       1    MUSC   O05An       1     -1.05    15.999
   31094      ob       1    MUSC   O05Ao       1     -1.05    15.999
   31095      ob       1    MUSC   O05Ap       1     -1.05    15.999
   31096      ob       1    MUSC   O05Aq       1     -1.05    15.999
   31097      ob       1    MUSC   O05Ar       1     -1.05    15.999
   31098      ob       1    MUSC   O05As       1     -1.05    15.999
   31099      ob       1    MUSC   O05At       1     -1.05    15.999
   31100      ob       1    MUSC   O05Au       1     -1.05    15.999
   31101      ob       1    MUSC   O05Av       1     -1.05    15.999
   31102      ob       1    MUSC   O05Aw       1     -1.05    15.999
   31103      ob       1    MUSC   O05Ax       1     -1.05    15.999
   31104      ob       1    MUSC   O05Ay       1     -1.05    15.999
   31105      oh       1    MUSC   O05Az       1     -0.95    15.999
   31106      oh       1    MUSC   O05B0       1     -0.95    15.999
   31107      oh       1    MUSC   O05B1       1     -0.95    15.999
   31108      oh       1    MUSC   O05B2       1     -0.95    15.999
   31109      ob       1    MUSC   O05B3       1     -1.05    15.999
   31110      ob       1    MUSC   O05B4       1     -1.05    15.999
   31111      ob       1    MUSC   O05B5       1     -1.05    15.999
   31112      ob       1    MUSC   O05B6       1     -1.05    15.999
   31113      ob       1    MUSC   O05B7       1     -1.05    15.999
   31114      ob       1    MUSC   O05B8       1     -1.05    15.999
   31115      ob       1    MUSC   O05B9       1     -1.05    15.999
   31116      ob       1    MUSC   O05BA       1     -1.05    15.999
   31117      ob       1    MUSC   O05BB       1     -1.05    15.999
   31118      ob       1    MUSC   O05BC       1     -1.05    15.999
   31119      ob       1    MUSC   O05BD       1     -1.05    15.999
   31120      ob       1    MUSC   O05BE       1     -1.05    15.999
   31121      ob       1    MUSC   O05BF       1     -1.05    15.999
   31122      ob       1    MUSC   O05BG       1     -1.05    15.999
   31123      ob       1    MUSC   O05BH       1     -1.05    15.999
   31124      ob       1    MUSC   O05BI       1     -1.05    15.999
   31125       K       1    MUSC   K00K5       1       1.0    39.098
   31126       K       1    MUSC   K00K6       1       1.0    39.098
   31127       K       1    MUSC   K00K7       1       1.0    39.098
   31128       K       1    MUSC   K00K8       1       1.0    39.098
   31129      ao       1    MUSC   Al0rZ       1     1.575    26.982
   31130      ao       1    MUSC   Al0ra       1     1.575    26.982
   31131      ao       1    MUSC   Al0rb       1     1.575    26.982
   31132      ao       1    MUSC   Al0rc       1     1.575    26.982
   31133      ao       1    MUSC   Al0rd       1     1.575    26.982
   31134      ao       1    MUSC   Al0re       1     1.575    26.982
   31135      ao       1    MUSC   Al0rf       1     1.575    26.982
   31136      ao       1    MUSC   Al0rg       1     1.575    26.982
   31137      st       1    MUSC   Si1j7       1       2.1    28.086
   31138      st       1    MUSC   Si1j8       1       2.1    28.086
   31139      st       1    MUSC   Si1j9       1       2.1    28.086
   31140      st       1    MUSC   Si1jA       1       2.1    28.086
   31141      st       1    MUSC   Si1jB       1       2.1    28.086
   31142      st       1    MUSC   Si1jC       1       2.1    28.086
   31143      st       1    MUSC   Si1jD       1       2.1    28.086
   31144      st       1    MUSC   Si1jE       1       2.1    28.086
   31145      st       1    MUSC   Si1jF       1       2.1    28.086
   31146      st       1    MUSC   Si1jG       1       2.1    28.086
   31147      st       1    MUSC   Si1jH       1       2.1    28.086
   31148      st       1    MUSC   Si1jI       1       2.1    28.086
   31149      st       1    MUSC   Si1jJ       1       2.1    28.086
   31150      st       1    MUSC   Si1jK       1       2.1    28.086
   31151      st       1    MUSC   Si1jL       1       2.1    28.086
   31152      st       1    MUSC   Si1jM       1       2.1    28.086
   31153      ob       1    MUSC   O05BJ       1     -1.05    15.999
   31154      ob       1    MUSC   O05BK       1     -1.05    15.999
   31155      ob       1    MUSC   O05BL       1     -1.05    15.999
   31156      ob       1    MUSC   O05BM       1     -1.05    15.999
   31157      oh       1    MUSC   O05BN       1     -0.95    15.999
   31158      oh       1    MUSC   O05BO       1     -0.95    15.999
   31159      oh       1    MUSC   O05BP       1     -0.95    15.999
   31160      oh       1    MUSC   O05BQ       1     -0.95    15.999
   31161      ob       1    MUSC   O05BR       1     -1.05    15.999
   31162      ob       1    MUSC   O05BS       1     -1.05    15.999
   31163      ob       1    MUSC   O05BT       1     -1.05    15.999
   31164      ob       1    MUSC   O05BU       1     -1.05    15.999
   31165      ob       1    MUSC   O05BV       1     -1.05    15.999
   31166      ob       1    MUSC   O05BW       1     -1.05    15.999
   31167      ob       1    MUSC   O05BX       1     -1.05    15.999
   31168      ob       1    MUSC   O05BY       1     -1.05    15.999
   31169      ob       1    MUSC   O05BZ       1     -1.05    15.999
   31170      ob       1    MUSC   O05Ba       1     -1.05    15.999
   31171      ob       1    MUSC   O05Bb       1     -1.05    15.999
   31172      ob       1    MUSC   O05Bc       1     -1.05    15.999
   31173      ob       1    MUSC   O05Bd       1     -1.05    15.999
   31174      ob       1    MUSC   O05Be       1     -1.05    15.999
   31175      ob       1    MUSC   O05Bf       1     -1.05    15.999
   31176      ob       1    MUSC   O05Bg       1     -1.05    15.999
   31177      ob       1    MUSC   O05Bh       1     -1.05    15.999
   31178      ob       1    MUSC   O05Bi       1     -1.05    15.999
   31179      ob       1    MUSC   O05Bj       1     -1.05    15.999
   31180      ob       1    MUSC   O05Bk       1     -1.05    15.999
   31181      oh       1    MUSC   O05Bl       1     -0.95    15.999
   31182      oh       1    MUSC   O05Bm       1     -0.95    15.999
   31183      oh       1    MUSC   O05Bn       1     -0.95    15.999
   31184      oh       1    MUSC   O05Bo       1     -0.95    15.999
   31185      ob       1    MUSC   O05Bp       1     -1.05    15.999
   31186      ob       1    MUSC   O05Bq       1     -1.05    15.999
   31187      ob       1    MUSC   O05Br       1     -1.05    15.999
   31188      ob       1    MUSC   O05Bs       1     -1.05    15.999
   31189      ob       1    MUSC   O05Bt       1     -1.05    15.999
   31190      ob       1    MUSC   O05Bu       1     -1.05    15.999
   31191      ob       1    MUSC   O05Bv       1     -1.05    15.999
   31192      ob       1    MUSC   O05Bw       1     -1.05    15.999
   31193      ob       1    MUSC   O05Bx       1     -1.05    15.999
   31194      ob       1    MUSC   O05By       1     -1.05    15.999
   31195      ob       1    MUSC   O05Bz       1     -1.05    15.999
   31196      ob       1    MUSC   O05C0       1     -1.05    15.999
   31197      ob       1    MUSC   O05C1       1     -1.05    15.999
   31198      ob       1    MUSC   O05C2       1     -1.05    15.999
   31199      ob       1    MUSC   O05C3       1     -1.05    15.999
   31200      ob       1    MUSC   O05C4       1     -1.05    15.999
   31201       K       1    MUSC   K00K9       1       1.0    39.098
   31202       K       1    MUSC   K00KA       1       1.0    39.098
   31203      ao       1    MUSC   Al0rh       1     1.575    26.982
   31204      ao       1    MUSC   Al0ri       1     1.575    26.982
   31205      ao       1    MUSC   Al0rj       1     1.575    26.982
   31206      ao       1    MUSC   Al0rk       1     1.575    26.982
   31207      ao       1    MUSC   Al0rl       1     1.575    26.982
   31208      ao       1    MUSC   Al0rm       1     1.575    26.982
   31209      ao       1    MUSC   Al0rn       1     1.575    26.982
   31210      ao       1    MUSC   Al0ro       1     1.575    26.982
   31211      st       1    MUSC   Si1jN       1       2.1    28.086
   31212      st       1    MUSC   Si1jO       1       2.1    28.086
   31213      st       1    MUSC   Si1jP       1       2.1    28.086
   31214      st       1    MUSC   Si1jQ       1       2.1    28.086
   31215      st       1    MUSC   Si1jR       1       2.1    28.086
   31216      st       1    MUSC   Si1jS       1       2.1    28.086
   31217      st       1    MUSC   Si1jT       1       2.1    28.086
   31218      st       1    MUSC   Si1jU       1       2.1    28.086
   31219      st       1    MUSC   Si1jV       1       2.1    28.086
   31220      st       1    MUSC   Si1jW       1       2.1    28.086
   31221      st       1    MUSC   Si1jX       1       2.1    28.086
   31222      st       1    MUSC   Si1jY       1       2.1    28.086
   31223      st       1    MUSC   Si1jZ       1       2.1    28.086
   31224      st       1    MUSC   Si1ja       1       2.1    28.086
   31225      st       1    MUSC   Si1jb       1       2.1    28.086
   31226      st       1    MUSC   Si1jc       1       2.1    28.086
   31227      ob       1    MUSC   O05C5       1     -1.05    15.999
   31228      ob       1    MUSC   O05C6       1     -1.05    15.999
   31229      ob       1    MUSC   O05C7       1     -1.05    15.999
   31230      ob       1    MUSC   O05C8       1     -1.05    15.999
   31231      oh       1    MUSC   O05C9       1     -0.95    15.999
   31232      oh       1    MUSC   O05CA       1     -0.95    15.999
   31233      oh       1    MUSC   O05CB       1     -0.95    15.999
   31234      oh       1    MUSC   O05CC       1     -0.95    15.999
   31235      ob       1    MUSC   O05CD       1     -1.05    15.999
   31236      ob       1    MUSC   O05CE       1     -1.05    15.999
   31237      ob       1    MUSC   O05CF       1     -1.05    15.999
   31238      ob       1    MUSC   O05CG       1     -1.05    15.999
   31239      ob       1    MUSC   O05CH       1     -1.05    15.999
   31240      ob       1    MUSC   O05CI       1     -1.05    15.999
   31241      ob       1    MUSC   O05CJ       1     -1.05    15.999
   31242      ob       1    MUSC   O05CK       1     -1.05    15.999
   31243      ob       1    MUSC   O05CL       1     -1.05    15.999
   31244      ob       1    MUSC   O05CM       1     -1.05    15.999
   31245      ob       1    MUSC   O05CN       1     -1.05    15.999
   31246      ob       1    MUSC   O05CO       1     -1.05    15.999
   31247      ob       1    MUSC   O05CP       1     -1.05    15.999
   31248      ob       1    MUSC   O05CQ       1     -1.05    15.999
   31249      ob       1    MUSC   O05CR       1     -1.05    15.999
   31250      ob       1    MUSC   O05CS       1     -1.05    15.999
   31251      ob       1    MUSC   O05CT       1     -1.05    15.999
   31252      ob       1    MUSC   O05CU       1     -1.05    15.999
   31253      ob       1    MUSC   O05CV       1     -1.05    15.999
   31254      ob       1    MUSC   O05CW       1     -1.05    15.999
   31255      oh       1    MUSC   O05CX       1     -0.95    15.999
   31256      oh       1    MUSC   O05CY       1     -0.95    15.999
   31257      oh       1    MUSC   O05CZ       1     -0.95    15.999
   31258      oh       1    MUSC   O05Ca       1     -0.95    15.999
   31259      ob       1    MUSC   O05Cb       1     -1.05    15.999
   31260      ob       1    MUSC   O05Cc       1     -1.05    15.999
   31261      ob       1    MUSC   O05Cd       1     -1.05    15.999
   31262      ob       1    MUSC   O05Ce       1     -1.05    15.999
   31263      ob       1    MUSC   O05Cf       1     -1.05    15.999
   31264      ob       1    MUSC   O05Cg       1     -1.05    15.999
   31265      ob       1    MUSC   O05Ch       1     -1.05    15.999
   31266      ob       1    MUSC   O05Ci       1     -1.05    15.999
   31267      ob       1    MUSC   O05Cj       1     -1.05    15.999
   31268      ob       1    MUSC   O05Ck       1     -1.05    15.999
   31269      ob       1    MUSC   O05Cl       1     -1.05    15.999
   31270      ob       1    MUSC   O05Cm       1     -1.05    15.999
   31271      ob       1    MUSC   O05Cn       1     -1.05    15.999
   31272      ob       1    MUSC   O05Co       1     -1.05    15.999
   31273      ob       1    MUSC   O05Cp       1     -1.05    15.999
   31274      ob       1    MUSC   O05Cq       1     -1.05    15.999
   31275       K       1    MUSC   K00KB       1       1.0    39.098
   31276       K       1    MUSC   K00KC       1       1.0    39.098
   31277       K       1    MUSC   K00KD       1       1.0    39.098
   31278       K       1    MUSC   K00KE       1       1.0    39.098
   31279      ao       1    MUSC   Al0rp       1     1.575    26.982
   31280      ao       1    MUSC   Al0rq       1     1.575    26.982
   31281      ao       1    MUSC   Al0rr       1     1.575    26.982
   31282      ao       1    MUSC   Al0rs       1     1.575    26.982
   31283      ao       1    MUSC   Al0rt       1     1.575    26.982
   31284      ao       1    MUSC   Al0ru       1     1.575    26.982
   31285      ao       1    MUSC   Al0rv       1     1.575    26.982
   31286      ao       1    MUSC   Al0rw       1     1.575    26.982
   31287      st       1    MUSC   Si1jd       1       2.1    28.086
   31288      st       1    MUSC   Si1je       1       2.1    28.086
   31289      st       1    MUSC   Si1jf       1       2.1    28.086
   31290      st       1    MUSC   Si1jg       1       2.1    28.086
   31291      st       1    MUSC   Si1jh       1       2.1    28.086
   31292      st       1    MUSC   Si1ji       1       2.1    28.086
   31293      st       1    MUSC   Si1jj       1       2.1    28.086
   31294      st       1    MUSC   Si1jk       1       2.1    28.086
   31295      st       1    MUSC   Si1jl       1       2.1    28.086
   31296      st       1    MUSC   Si1jm       1       2.1    28.086
   31297      st       1    MUSC   Si1jn       1       2.1    28.086
   31298      st       1    MUSC   Si1jo       1       2.1    28.086
   31299      st       1    MUSC   Si1jp       1       2.1    28.086
   31300      st       1    MUSC   Si1jq       1       2.1    28.086
   31301      st       1    MUSC   Si1jr       1       2.1    28.086
   31302      st       1    MUSC   Si1js       1       2.1    28.086
   31303      ob       1    MUSC   O05Cr       1     -1.05    15.999
   31304      ob       1    MUSC   O05Cs       1     -1.05    15.999
   31305      ob       1    MUSC   O05Ct       1     -1.05    15.999
   31306      ob       1    MUSC   O05Cu       1     -1.05    15.999
   31307      oh       1    MUSC   O05Cv       1     -0.95    15.999
   31308      oh       1    MUSC   O05Cw       1     -0.95    15.999
   31309      oh       1    MUSC   O05Cx       1     -0.95    15.999
   31310      oh       1    MUSC   O05Cy       1     -0.95    15.999
   31311      ob       1    MUSC   O05Cz       1     -1.05    15.999
   31312      ob       1    MUSC   O05D0       1     -1.05    15.999
   31313      ob       1    MUSC   O05D1       1     -1.05    15.999
   31314      ob       1    MUSC   O05D2       1     -1.05    15.999
   31315      ob       1    MUSC   O05D3       1     -1.05    15.999
   31316      ob       1    MUSC   O05D4       1     -1.05    15.999
   31317      ob       1    MUSC   O05D5       1     -1.05    15.999
   31318      ob       1    MUSC   O05D6       1     -1.05    15.999
   31319      ob       1    MUSC   O05D7       1     -1.05    15.999
   31320      ob       1    MUSC   O05D8       1     -1.05    15.999
   31321      ob       1    MUSC   O05D9       1     -1.05    15.999
   31322      ob       1    MUSC   O05DA       1     -1.05    15.999
   31323      ob       1    MUSC   O05DB       1     -1.05    15.999
   31324      ob       1    MUSC   O05DC       1     -1.05    15.999
   31325      ob       1    MUSC   O05DD       1     -1.05    15.999
   31326      ob       1    MUSC   O05DE       1     -1.05    15.999
   31327      ob       1    MUSC   O05DF       1     -1.05    15.999
   31328      ob       1    MUSC   O05DG       1     -1.05    15.999
   31329      ob       1    MUSC   O05DH       1     -1.05    15.999
   31330      ob       1    MUSC   O05DI       1     -1.05    15.999
   31331      oh       1    MUSC   O05DJ       1     -0.95    15.999
   31332      oh       1    MUSC   O05DK       1     -0.95    15.999
   31333      oh       1    MUSC   O05DL       1     -0.95    15.999
   31334      oh       1    MUSC   O05DM       1     -0.95    15.999
   31335      ob       1    MUSC   O05DN       1     -1.05    15.999
   31336      ob       1    MUSC   O05DO       1     -1.05    15.999
   31337      ob       1    MUSC   O05DP       1     -1.05    15.999
   31338      ob       1    MUSC   O05DQ       1     -1.05    15.999
   31339      ob       1    MUSC   O05DR       1     -1.05    15.999
   31340      ob       1    MUSC   O05DS       1     -1.05    15.999
   31341      ob       1    MUSC   O05DT       1     -1.05    15.999
   31342      ob       1    MUSC   O05DU       1     -1.05    15.999
   31343      ob       1    MUSC   O05DV       1     -1.05    15.999
   31344      ob       1    MUSC   O05DW       1     -1.05    15.999
   31345      ob       1    MUSC   O05DX       1     -1.05    15.999
   31346      ob       1    MUSC   O05DY       1     -1.05    15.999
   31347      ob       1    MUSC   O05DZ       1     -1.05    15.999
   31348      ob       1    MUSC   O05Da       1     -1.05    15.999
   31349      ob       1    MUSC   O05Db       1     -1.05    15.999
   31350      ob       1    MUSC   O05Dc       1     -1.05    15.999
   31351       H       1    MUSC   H0001       1     0.425     1.008
   31352       H       1    MUSC   H0002       1     0.425     1.008
   31353       H       1    MUSC   H0003       1     0.425     1.008
   31354       H       1    MUSC   H0004       1     0.425     1.008
   31355       H       1    MUSC   H0005       1     0.425     1.008
   31356       H       1    MUSC   H0006       1     0.425     1.008
   31357       H       1    MUSC   H0007       1     0.425     1.008
   31358       H       1    MUSC   H0008       1     0.425     1.008
   31359       H       1    MUSC   H0009       1     0.425     1.008
   31360       H       1    MUSC   H000A       1     0.425     1.008
   31361       H       1    MUSC   H000B       1     0.425     1.008
   31362       H       1    MUSC   H000C       1     0.425     1.008
   31363       H       1    MUSC   H000D       1     0.425     1.008
   31364       H       1    MUSC   H000E       1     0.425     1.008
   31365       H       1    MUSC   H000F       1     0.425     1.008
   31366       H       1    MUSC   H000G       1     0.425     1.008
   31367       H       1    MUSC   H000H       1     0.425     1.008
   31368       H       1    MUSC   H000I       1     0.425     1.008
   31369       H       1    MUSC   H000J       1     0.425     1.008
   31370       H       1    MUSC   H000K       1     0.425     1.008
   31371       H       1    MUSC   H000L       1     0.425     1.008
   31372       H       1    MUSC   H000M       1     0.425     1.008
   31373       H       1    MUSC   H000N       1     0.425     1.008
   31374       H       1    MUSC   H000O       1     0.425     1.008
   31375       H       1    MUSC   H000P       1     0.425     1.008
   31376       H       1    MUSC   H000Q       1     0.425     1.008
   31377       H       1    MUSC   H000R       1     0.425     1.008
   31378       H       1    MUSC   H000S       1     0.425     1.008
   31379       H       1    MUSC   H000T       1     0.425     1.008
   31380       H       1    MUSC   H000U       1     0.425     1.008
   31381       H       1    MUSC   H000V       1     0.425     1.008
   31382       H       1    MUSC   H000W       1     0.425     1.008
   31383       H       1    MUSC   H000X       1     0.425     1.008
   31384       H       1    MUSC   H000Y       1     0.425     1.008
   31385       H       1    MUSC   H000Z       1     0.425     1.008
   31386       H       1    MUSC   H000a       1     0.425     1.008
   31387       H       1    MUSC   H000b       1     0.425     1.008
   31388       H       1    MUSC   H000c       1     0.425     1.008
   31389       H       1    MUSC   H000d       1     0.425     1.008
   31390       H       1    MUSC   H000e       1     0.425     1.008
   31391       H       1    MUSC   H000f       1     0.425     1.008
   31392       H       1    MUSC   H000g       1     0.425     1.008
   31393       H       1    MUSC   H000h       1     0.425     1.008
   31394       H       1    MUSC   H000i       1     0.425     1.008
   31395       H       1    MUSC   H000j       1     0.425     1.008
   31396       H       1    MUSC   H000k       1     0.425     1.008
   31397       H       1    MUSC   H000l       1     0.425     1.008
   31398       H       1    MUSC   H000m       1     0.425     1.008
   31399       H       1    MUSC   H000n       1     0.425     1.008
   31400       H       1    MUSC   H000o       1     0.425     1.008
   31401       H       1    MUSC   H000p       1     0.425     1.008
   31402       H       1    MUSC   H000q       1     0.425     1.008
   31403       H       1    MUSC   H000r       1     0.425     1.008
   31404       H       1    MUSC   H000s       1     0.425     1.008
   31405       H       1    MUSC   H000t       1     0.425     1.008
   31406       H       1    MUSC   H000u       1     0.425     1.008
   31407       H       1    MUSC   H000v       1     0.425     1.008
   31408       H       1    MUSC   H000w       1     0.425     1.008
   31409       H       1    MUSC   H000x       1     0.425     1.008
   31410       H       1    MUSC   H000y       1     0.425     1.008
   31411       H       1    MUSC   H000z       1     0.425     1.008
   31412       H       1    MUSC   H0010       1     0.425     1.008
   31413       H       1    MUSC   H0011       1     0.425     1.008
   31414       H       1    MUSC   H0012       1     0.425     1.008
   31415       H       1    MUSC   H0013       1     0.425     1.008
   31416       H       1    MUSC   H0014       1     0.425     1.008
   31417       H       1    MUSC   H0015       1     0.425     1.008
   31418       H       1    MUSC   H0016       1     0.425     1.008
   31419       H       1    MUSC   H0017       1     0.425     1.008
   31420       H       1    MUSC   H0018       1     0.425     1.008
   31421       H       1    MUSC   H0019       1     0.425     1.008
   31422       H       1    MUSC   H001A       1     0.425     1.008
   31423       H       1    MUSC   H001B       1     0.425     1.008
   31424       H       1    MUSC   H001C       1     0.425     1.008
   31425       H       1    MUSC   H001D       1     0.425     1.008
   31426       H       1    MUSC   H001E       1     0.425     1.008
   31427       H       1    MUSC   H001F       1     0.425     1.008
   31428       H       1    MUSC   H001G       1     0.425     1.008
   31429       H       1    MUSC   H001H       1     0.425     1.008
   31430       H       1    MUSC   H001I       1     0.425     1.008
   31431       H       1    MUSC   H001J       1     0.425     1.008
   31432       H       1    MUSC   H001K       1     0.425     1.008
   31433       H       1    MUSC   H001L       1     0.425     1.008
   31434       H       1    MUSC   H001M       1     0.425     1.008
   31435       H       1    MUSC   H001N       1     0.425     1.008
   31436       H       1    MUSC   H001O       1     0.425     1.008
   31437       H       1    MUSC   H001P       1     0.425     1.008
   31438       H       1    MUSC   H001Q       1     0.425     1.008
   31439       H       1    MUSC   H001R       1     0.425     1.008
   31440       H       1    MUSC   H001S       1     0.425     1.008
   31441       H       1    MUSC   H001T       1     0.425     1.008
   31442       H       1    MUSC   H001U       1     0.425     1.008
   31443       H       1    MUSC   H001V       1     0.425     1.008
   31444       H       1    MUSC   H001W       1     0.425     1.008
   31445       H       1    MUSC   H001X       1     0.425     1.008
   31446       H       1    MUSC   H001Y       1     0.425     1.008
   31447       H       1    MUSC   H001Z       1     0.425     1.008
   31448       H       1    MUSC   H001a       1     0.425     1.008
   31449       H       1    MUSC   H001b       1     0.425     1.008
   31450       H       1    MUSC   H001c       1     0.425     1.008
   31451       H       1    MUSC   H001d       1     0.425     1.008
   31452       H       1    MUSC   H001e       1     0.425     1.008
   31453       H       1    MUSC   H001f       1     0.425     1.008
   31454       H       1    MUSC   H001g       1     0.425     1.008
   31455       H       1    MUSC   H001h       1     0.425     1.008
   31456       H       1    MUSC   H001i       1     0.425     1.008
   31457       H       1    MUSC   H001j       1     0.425     1.008
   31458       H       1    MUSC   H001k       1     0.425     1.008
   31459       H       1    MUSC   H001l       1     0.425     1.008
   31460       H       1    MUSC   H001m       1     0.425     1.008
   31461       H       1    MUSC   H001n       1     0.425     1.008
   31462       H       1    MUSC   H001o       1     0.425     1.008
   31463       H       1    MUSC   H001p       1     0.425     1.008
   31464       H       1    MUSC   H001q       1     0.425     1.008
   31465       H       1    MUSC   H001r       1     0.425     1.008
   31466       H       1    MUSC   H001s       1     0.425     1.008
   31467       H       1    MUSC   H001t       1     0.425     1.008
   31468       H       1    MUSC   H001u       1     0.425     1.008
   31469       H       1    MUSC   H001v       1     0.425     1.008
   31470       H       1    MUSC   H001w       1     0.425     1.008
   31471       H       1    MUSC   H001x       1     0.425     1.008
   31472       H       1    MUSC   H001y       1     0.425     1.008
   31473       H       1    MUSC   H001z       1     0.425     1.008
   31474       H       1    MUSC   H0020       1     0.425     1.008
   31475       H       1    MUSC   H0021       1     0.425     1.008
   31476       H       1    MUSC   H0022       1     0.425     1.008
   31477       H       1    MUSC   H0023       1     0.425     1.008
   31478       H       1    MUSC   H0024       1     0.425     1.008
   31479       H       1    MUSC   H0025       1     0.425     1.008
   31480       H       1    MUSC   H0026       1     0.425     1.008
   31481       H       1    MUSC   H0027       1     0.425     1.008
   31482       H       1    MUSC   H0028       1     0.425     1.008
   31483       H       1    MUSC   H0029       1     0.425     1.008
   31484       H       1    MUSC   H002A       1     0.425     1.008
   31485       H       1    MUSC   H002B       1     0.425     1.008
   31486       H       1    MUSC   H002C       1     0.425     1.008
   31487       H       1    MUSC   H002D       1     0.425     1.008
   31488       H       1    MUSC   H002E       1     0.425     1.008
   31489       H       1    MUSC   H002F       1     0.425     1.008
   31490       H       1    MUSC   H002G       1     0.425     1.008
   31491       H       1    MUSC   H002H       1     0.425     1.008
   31492       H       1    MUSC   H002I       1     0.425     1.008
   31493       H       1    MUSC   H002J       1     0.425     1.008
   31494       H       1    MUSC   H002K       1     0.425     1.008
   31495       H       1    MUSC   H002L       1     0.425     1.008
   31496       H       1    MUSC   H002M       1     0.425     1.008
   31497       H       1    MUSC   H002N       1     0.425     1.008
   31498       H       1    MUSC   H002O       1     0.425     1.008
   31499       H       1    MUSC   H002P       1     0.425     1.008
   31500       H       1    MUSC   H002Q       1     0.425     1.008
   31501       H       1    MUSC   H002R       1     0.425     1.008
   31502       H       1    MUSC   H002S       1     0.425     1.008
   31503       H       1    MUSC   H002T       1     0.425     1.008
   31504       H       1    MUSC   H002U       1     0.425     1.008
   31505       H       1    MUSC   H002V       1     0.425     1.008
   31506       H       1    MUSC   H002W       1     0.425     1.008
   31507       H       1    MUSC   H002X       1     0.425     1.008
   31508       H       1    MUSC   H002Y       1     0.425     1.008
   31509       H       1    MUSC   H002Z       1     0.425     1.008
   31510       H       1    MUSC   H002a       1     0.425     1.008
   31511       H       1    MUSC   H002b       1     0.425     1.008
   31512       H       1    MUSC   H002c       1     0.425     1.008
   31513       H       1    MUSC   H002d       1     0.425     1.008
   31514       H       1    MUSC   H002e       1     0.425     1.008
   31515       H       1    MUSC   H002f       1     0.425     1.008
   31516       H       1    MUSC   H002g       1     0.425     1.008
   31517       H       1    MUSC   H002h       1     0.425     1.008
   31518       H       1    MUSC   H002i       1     0.425     1.008
   31519       H       1    MUSC   H002j       1     0.425     1.008
   31520       H       1    MUSC   H002k       1     0.425     1.008
   31521       H       1    MUSC   H002l       1     0.425     1.008
   31522       H       1    MUSC   H002m       1     0.425     1.008
   31523       H       1    MUSC   H002n       1     0.425     1.008
   31524       H       1    MUSC   H002o       1     0.425     1.008
   31525       H       1    MUSC   H002p       1     0.425     1.008
   31526       H       1    MUSC   H002q       1     0.425     1.008
   31527       H       1    MUSC   H002r       1     0.425     1.008
   31528       H       1    MUSC   H002s       1     0.425     1.008
   31529       H       1    MUSC   H002t       1     0.425     1.008
   31530       H       1    MUSC   H002u       1     0.425     1.008
   31531       H       1    MUSC   H002v       1     0.425     1.008
   31532       H       1    MUSC   H002w       1     0.425     1.008
   31533       H       1    MUSC   H002x       1     0.425     1.008
   31534       H       1    MUSC   H002y       1     0.425     1.008
   31535       H       1    MUSC   H002z       1     0.425     1.008
   31536       H       1    MUSC   H0030       1     0.425     1.008
   31537       H       1    MUSC   H0031       1     0.425     1.008
   31538       H       1    MUSC   H0032       1     0.425     1.008
   31539       H       1    MUSC   H0033       1     0.425     1.008
   31540       H       1    MUSC   H0034       1     0.425     1.008
   31541       H       1    MUSC   H0035       1     0.425     1.008
   31542       H       1    MUSC   H0036       1     0.425     1.008
   31543       H       1    MUSC   H0037       1     0.425     1.008
   31544       H       1    MUSC   H0038       1     0.425     1.008
   31545       H       1    MUSC   H0039       1     0.425     1.008
   31546       H       1    MUSC   H003A       1     0.425     1.008
   31547       H       1    MUSC   H003B       1     0.425     1.008
   31548       H       1    MUSC   H003C       1     0.425     1.008
   31549       H       1    MUSC   H003D       1     0.425     1.008
   31550       H       1    MUSC   H003E       1     0.425     1.008
   31551       H       1    MUSC   H003F       1     0.425     1.008
   31552       H       1    MUSC   H003G       1     0.425     1.008
   31553       H       1    MUSC   H003H       1     0.425     1.008
   31554       H       1    MUSC   H003I       1     0.425     1.008
   31555       H       1    MUSC   H003J       1     0.425     1.008
   31556       H       1    MUSC   H003K       1     0.425     1.008
   31557       H       1    MUSC   H003L       1     0.425     1.008
   31558       H       1    MUSC   H003M       1     0.425     1.008
   31559       H       1    MUSC   H003N       1     0.425     1.008
   31560       H       1    MUSC   H003O       1     0.425     1.008
   31561       H       1    MUSC   H003P       1     0.425     1.008
   31562       H       1    MUSC   H003Q       1     0.425     1.008
   31563       H       1    MUSC   H003R       1     0.425     1.008
   31564       H       1    MUSC   H003S       1     0.425     1.008
   31565       H       1    MUSC   H003T       1     0.425     1.008
   31566       H       1    MUSC   H003U       1     0.425     1.008
   31567       H       1    MUSC   H003V       1     0.425     1.008
   31568       H       1    MUSC   H003W       1     0.425     1.008
   31569       H       1    MUSC   H003X       1     0.425     1.008
   31570       H       1    MUSC   H003Y       1     0.425     1.008
   31571       H       1    MUSC   H003Z       1     0.425     1.008
   31572       H       1    MUSC   H003a       1     0.425     1.008
   31573       H       1    MUSC   H003b       1     0.425     1.008
   31574       H       1    MUSC   H003c       1     0.425     1.008
   31575       H       1    MUSC   H003d       1     0.425     1.008
   31576       H       1    MUSC   H003e       1     0.425     1.008
   31577       H       1    MUSC   H003f       1     0.425     1.008
   31578       H       1    MUSC   H003g       1     0.425     1.008
   31579       H       1    MUSC   H003h       1     0.425     1.008
   31580       H       1    MUSC   H003i       1     0.425     1.008
   31581       H       1    MUSC   H003j       1     0.425     1.008
   31582       H       1    MUSC   H003k       1     0.425     1.008
   31583       H       1    MUSC   H003l       1     0.425     1.008
   31584       H       1    MUSC   H003m       1     0.425     1.008
   31585       H       1    MUSC   H003n       1     0.425     1.008
   31586       H       1    MUSC   H003o       1     0.425     1.008
   31587       H       1    MUSC   H003p       1     0.425     1.008
   31588       H       1    MUSC   H003q       1     0.425     1.008
   31589       H       1    MUSC   H003r       1     0.425     1.008
   31590       H       1    MUSC   H003s       1     0.425     1.008
   31591       H       1    MUSC   H003t       1     0.425     1.008
   31592       H       1    MUSC   H003u       1     0.425     1.008
   31593       H       1    MUSC   H003v       1     0.425     1.008
   31594       H       1    MUSC   H003w       1     0.425     1.008
   31595       H       1    MUSC   H003x       1     0.425     1.008
   31596       H       1    MUSC   H003y       1     0.425     1.008
   31597       H       1    MUSC   H003z       1     0.425     1.008
   31598       H       1    MUSC   H0040       1     0.425     1.008
   31599       H       1    MUSC   H0041       1     0.425     1.008
   31600       H       1    MUSC   H0042       1     0.425     1.008
   31601       H       1    MUSC   H0043       1     0.425     1.008
   31602       H       1    MUSC   H0044       1     0.425     1.008
   31603       H       1    MUSC   H0045       1     0.425     1.008
   31604       H       1    MUSC   H0046       1     0.425     1.008
   31605       H       1    MUSC   H0047       1     0.425     1.008
   31606       H       1    MUSC   H0048       1     0.425     1.008
   31607       H       1    MUSC   H0049       1     0.425     1.008
   31608       H       1    MUSC   H004A       1     0.425     1.008
   31609       H       1    MUSC   H004B       1     0.425     1.008
   31610       H       1    MUSC   H004C       1     0.425     1.008
   31611       H       1    MUSC   H004D       1     0.425     1.008
   31612       H       1    MUSC   H004E       1     0.425     1.008
   31613       H       1    MUSC   H004F       1     0.425     1.008
   31614       H       1    MUSC   H004G       1     0.425     1.008
   31615       H       1    MUSC   H004H       1     0.425     1.008
   31616       H       1    MUSC   H004I       1     0.425     1.008
   31617       H       1    MUSC   H004J       1     0.425     1.008
   31618       H       1    MUSC   H004K       1     0.425     1.008
   31619       H       1    MUSC   H004L       1     0.425     1.008
   31620       H       1    MUSC   H004M       1     0.425     1.008
   31621       H       1    MUSC   H004N       1     0.425     1.008
   31622       H       1    MUSC   H004O       1     0.425     1.008
   31623       H       1    MUSC   H004P       1     0.425     1.008
   31624       H       1    MUSC   H004Q       1     0.425     1.008
   31625       H       1    MUSC   H004R       1     0.425     1.008
   31626       H       1    MUSC   H004S       1     0.425     1.008
   31627       H       1    MUSC   H004T       1     0.425     1.008
   31628       H       1    MUSC   H004U       1     0.425     1.008
   31629       H       1    MUSC   H004V       1     0.425     1.008
   31630       H       1    MUSC   H004W       1     0.425     1.008
   31631       H       1    MUSC   H004X       1     0.425     1.008
   31632       H       1    MUSC   H004Y       1     0.425     1.008
   31633       H       1    MUSC   H004Z       1     0.425     1.008
   31634       H       1    MUSC   H004a       1     0.425     1.008
   31635       H       1    MUSC   H004b       1     0.425     1.008
   31636       H       1    MUSC   H004c       1     0.425     1.008
   31637       H       1    MUSC   H004d       1     0.425     1.008
   31638       H       1    MUSC   H004e       1     0.425     1.008
   31639       H       1    MUSC   H004f       1     0.425     1.008
   31640       H       1    MUSC   H004g       1     0.425     1.008
   31641       H       1    MUSC   H004h       1     0.425     1.008
   31642       H       1    MUSC   H004i       1     0.425     1.008
   31643       H       1    MUSC   H004j       1     0.425     1.008
   31644       H       1    MUSC   H004k       1     0.425     1.008
   31645       H       1    MUSC   H004l       1     0.425     1.008
   31646       H       1    MUSC   H004m       1     0.425     1.008
   31647       H       1    MUSC   H004n       1     0.425     1.008
   31648       H       1    MUSC   H004o       1     0.425     1.008
   31649       H       1    MUSC   H004p       1     0.425     1.008
   31650       H       1    MUSC   H004q       1     0.425     1.008
   31651       H       1    MUSC   H004r       1     0.425     1.008
   31652       H       1    MUSC   H004s       1     0.425     1.008
   31653       H       1    MUSC   H004t       1     0.425     1.008
   31654       H       1    MUSC   H004u       1     0.425     1.008
   31655       H       1    MUSC   H004v       1     0.425     1.008
   31656       H       1    MUSC   H004w       1     0.425     1.008
   31657       H       1    MUSC   H004x       1     0.425     1.008
   31658       H       1    MUSC   H004y       1     0.425     1.008
   31659       H       1    MUSC   H004z       1     0.425     1.008
   31660       H       1    MUSC   H0050       1     0.425     1.008
   31661       H       1    MUSC   H0051       1     0.425     1.008
   31662       H       1    MUSC   H0052       1     0.425     1.008
   31663       H       1    MUSC   H0053       1     0.425     1.008
   31664       H       1    MUSC   H0054       1     0.425     1.008
   31665       H       1    MUSC   H0055       1     0.425     1.008
   31666       H       1    MUSC   H0056       1     0.425     1.008
   31667       H       1    MUSC   H0057       1     0.425     1.008
   31668       H       1    MUSC   H0058       1     0.425     1.008
   31669       H       1    MUSC   H0059       1     0.425     1.008
   31670       H       1    MUSC   H005A       1     0.425     1.008
   31671       H       1    MUSC   H005B       1     0.425     1.008
   31672       H       1    MUSC   H005C       1     0.425     1.008
   31673       H       1    MUSC   H005D       1     0.425     1.008
   31674       H       1    MUSC   H005E       1     0.425     1.008
   31675       H       1    MUSC   H005F       1     0.425     1.008
   31676       H       1    MUSC   H005G       1     0.425     1.008
   31677       H       1    MUSC   H005H       1     0.425     1.008
   31678       H       1    MUSC   H005I       1     0.425     1.008
   31679       H       1    MUSC   H005J       1     0.425     1.008
   31680       H       1    MUSC   H005K       1     0.425     1.008
   31681       H       1    MUSC   H005L       1     0.425     1.008
   31682       H       1    MUSC   H005M       1     0.425     1.008
   31683       H       1    MUSC   H005N       1     0.425     1.008
   31684       H       1    MUSC   H005O       1     0.425     1.008
   31685       H       1    MUSC   H005P       1     0.425     1.008
   31686       H       1    MUSC   H005Q       1     0.425     1.008
   31687       H       1    MUSC   H005R       1     0.425     1.008
   31688       H       1    MUSC   H005S       1     0.425     1.008
   31689       H       1    MUSC   H005T       1     0.425     1.008
   31690       H       1    MUSC   H005U       1     0.425     1.008
   31691       H       1    MUSC   H005V       1     0.425     1.008
   31692       H       1    MUSC   H005W       1     0.425     1.008
   31693       H       1    MUSC   H005X       1     0.425     1.008
   31694       H       1    MUSC   H005Y       1     0.425     1.008
   31695       H       1    MUSC   H005Z       1     0.425     1.008
   31696       H       1    MUSC   H005a       1     0.425     1.008
   31697       H       1    MUSC   H005b       1     0.425     1.008
   31698       H       1    MUSC   H005c       1     0.425     1.008
   31699       H       1    MUSC   H005d       1     0.425     1.008
   31700       H       1    MUSC   H005e       1     0.425     1.008
   31701       H       1    MUSC   H005f       1     0.425     1.008
   31702       H       1    MUSC   H005g       1     0.425     1.008
   31703       H       1    MUSC   H005h       1     0.425     1.008
   31704       H       1    MUSC   H005i       1     0.425     1.008
   31705       H       1    MUSC   H005j       1     0.425     1.008
   31706       H       1    MUSC   H005k       1     0.425     1.008
   31707       H       1    MUSC   H005l       1     0.425     1.008
   31708       H       1    MUSC   H005m       1     0.425     1.008
   31709       H       1    MUSC   H005n       1     0.425     1.008
   31710       H       1    MUSC   H005o       1     0.425     1.008
   31711       H       1    MUSC   H005p       1     0.425     1.008
   31712       H       1    MUSC   H005q       1     0.425     1.008
   31713       H       1    MUSC   H005r       1     0.425     1.008
   31714       H       1    MUSC   H005s       1     0.425     1.008
   31715       H       1    MUSC   H005t       1     0.425     1.008
   31716       H       1    MUSC   H005u       1     0.425     1.008
   31717       H       1    MUSC   H005v       1     0.425     1.008
   31718       H       1    MUSC   H005w       1     0.425     1.008
   31719       H       1    MUSC   H005x       1     0.425     1.008
   31720       H       1    MUSC   H005y       1     0.425     1.008
   31721       H       1    MUSC   H005z       1     0.425     1.008
   31722       H       1    MUSC   H0060       1     0.425     1.008
   31723       H       1    MUSC   H0061       1     0.425     1.008
   31724       H       1    MUSC   H0062       1     0.425     1.008
   31725       H       1    MUSC   H0063       1     0.425     1.008
   31726       H       1    MUSC   H0064       1     0.425     1.008
   31727       H       1    MUSC   H0065       1     0.425     1.008
   31728       H       1    MUSC   H0066       1     0.425     1.008
   31729       H       1    MUSC   H0067       1     0.425     1.008
   31730       H       1    MUSC   H0068       1     0.425     1.008
   31731       H       1    MUSC   H0069       1     0.425     1.008
   31732       H       1    MUSC   H006A       1     0.425     1.008
   31733       H       1    MUSC   H006B       1     0.425     1.008
   31734       H       1    MUSC   H006C       1     0.425     1.008
   31735       H       1    MUSC   H006D       1     0.425     1.008
   31736       H       1    MUSC   H006E       1     0.425     1.008
   31737       H       1    MUSC   H006F       1     0.425     1.008
   31738       H       1    MUSC   H006G       1     0.425     1.008
   31739       H       1    MUSC   H006H       1     0.425     1.008
   31740       H       1    MUSC   H006I       1     0.425     1.008
   31741       H       1    MUSC   H006J       1     0.425     1.008
   31742       H       1    MUSC   H006K       1     0.425     1.008
   31743       H       1    MUSC   H006L       1     0.425     1.008
   31744       H       1    MUSC   H006M       1     0.425     1.008
   31745       H       1    MUSC   H006N       1     0.425     1.008
   31746       H       1    MUSC   H006O       1     0.425     1.008
   31747       H       1    MUSC   H006P       1     0.425     1.008
   31748       H       1    MUSC   H006Q       1     0.425     1.008
   31749       H       1    MUSC   H006R       1     0.425     1.008
   31750       H       1    MUSC   H006S       1     0.425     1.008
   31751       H       1    MUSC   H006T       1     0.425     1.008
   31752       H       1    MUSC   H006U       1     0.425     1.008
   31753       H       1    MUSC   H006V       1     0.425     1.008
   31754       H       1    MUSC   H006W       1     0.425     1.008
   31755       H       1    MUSC   H006X       1     0.425     1.008
   31756       H       1    MUSC   H006Y       1     0.425     1.008
   31757       H       1    MUSC   H006Z       1     0.425     1.008
   31758       H       1    MUSC   H006a       1     0.425     1.008
   31759       H       1    MUSC   H006b       1     0.425     1.008
   31760       H       1    MUSC   H006c       1     0.425     1.008
   31761       H       1    MUSC   H006d       1     0.425     1.008
   31762       H       1    MUSC   H006e       1     0.425     1.008
   31763       H       1    MUSC   H006f       1     0.425     1.008
   31764       H       1    MUSC   H006g       1     0.425     1.008
   31765       H       1    MUSC   H006h       1     0.425     1.008
   31766       H       1    MUSC   H006i       1     0.425     1.008
   31767       H       1    MUSC   H006j       1     0.425     1.008
   31768       H       1    MUSC   H006k       1     0.425     1.008
   31769       H       1    MUSC   H006l       1     0.425     1.008
   31770       H       1    MUSC   H006m       1     0.425     1.008
   31771       H       1    MUSC   H006n       1     0.425     1.008
   31772       H       1    MUSC   H006o       1     0.425     1.008
   31773       H       1    MUSC   H006p       1     0.425     1.008
   31774       H       1    MUSC   H006q       1     0.425     1.008
   31775       H       1    MUSC   H006r       1     0.425     1.008
   31776       H       1    MUSC   H006s       1     0.425     1.008
   31777       H       1    MUSC   H006t       1     0.425     1.008
   31778       H       1    MUSC   H006u       1     0.425     1.008
   31779       H       1    MUSC   H006v       1     0.425     1.008
   31780       H       1    MUSC   H006w       1     0.425     1.008
   31781       H       1    MUSC   H006x       1     0.425     1.008
   31782       H       1    MUSC   H006y       1     0.425     1.008
   31783       H       1    MUSC   H006z       1     0.425     1.008
   31784       H       1    MUSC   H0070       1     0.425     1.008
   31785       H       1    MUSC   H0071       1     0.425     1.008
   31786       H       1    MUSC   H0072       1     0.425     1.008
   31787       H       1    MUSC   H0073       1     0.425     1.008
   31788       H       1    MUSC   H0074       1     0.425     1.008
   31789       H       1    MUSC   H0075       1     0.425     1.008
   31790       H       1    MUSC   H0076       1     0.425     1.008
   31791       H       1    MUSC   H0077       1     0.425     1.008
   31792       H       1    MUSC   H0078       1     0.425     1.008
   31793       H       1    MUSC   H0079       1     0.425     1.008
   31794       H       1    MUSC   H007A       1     0.425     1.008
   31795       H       1    MUSC   H007B       1     0.425     1.008
   31796       H       1    MUSC   H007C       1     0.425     1.008
   31797       H       1    MUSC   H007D       1     0.425     1.008
   31798       H       1    MUSC   H007E       1     0.425     1.008
   31799       H       1    MUSC   H007F       1     0.425     1.008
   31800       H       1    MUSC   H007G       1     0.425     1.008
   31801       H       1    MUSC   H007H       1     0.425     1.008
   31802       H       1    MUSC   H007I       1     0.425     1.008
   31803       H       1    MUSC   H007J       1     0.425     1.008
   31804       H       1    MUSC   H007K       1     0.425     1.008
   31805       H       1    MUSC   H007L       1     0.425     1.008
   31806       H       1    MUSC   H007M       1     0.425     1.008
   31807       H       1    MUSC   H007N       1     0.425     1.008
   31808       H       1    MUSC   H007O       1     0.425     1.008
   31809       H       1    MUSC   H007P       1     0.425     1.008
   31810       H       1    MUSC   H007Q       1     0.425     1.008
   31811       H       1    MUSC   H007R       1     0.425     1.008
   31812       H       1    MUSC   H007S       1     0.425     1.008
   31813       H       1    MUSC   H007T       1     0.425     1.008
   31814       H       1    MUSC   H007U       1     0.425     1.008
   31815       H       1    MUSC   H007V       1     0.425     1.008
   31816       H       1    MUSC   H007W       1     0.425     1.008
   31817       H       1    MUSC   H007X       1     0.425     1.008
   31818       H       1    MUSC   H007Y       1     0.425     1.008
   31819       H       1    MUSC   H007Z       1     0.425     1.008
   31820       H       1    MUSC   H007a       1     0.425     1.008
   31821       H       1    MUSC   H007b       1     0.425     1.008
   31822       H       1    MUSC   H007c       1     0.425     1.008
   31823       H       1    MUSC   H007d       1     0.425     1.008
   31824       H       1    MUSC   H007e       1     0.425     1.008
   31825       H       1    MUSC   H007f       1     0.425     1.008
   31826       H       1    MUSC   H007g       1     0.425     1.008
   31827       H       1    MUSC   H007h       1     0.425     1.008
   31828       H       1    MUSC   H007i       1     0.425     1.008
   31829       H       1    MUSC   H007j       1     0.425     1.008
   31830       H       1    MUSC   H007k       1     0.425     1.008
   31831       H       1    MUSC   H007l       1     0.425     1.008
   31832       H       1    MUSC   H007m       1     0.425     1.008
   31833       H       1    MUSC   H007n       1     0.425     1.008
   31834       H       1    MUSC   H007o       1     0.425     1.008
   31835       H       1    MUSC   H007p       1     0.425     1.008
   31836       H       1    MUSC   H007q       1     0.425     1.008
   31837       H       1    MUSC   H007r       1     0.425     1.008
   31838       H       1    MUSC   H007s       1     0.425     1.008
   31839       H       1    MUSC   H007t       1     0.425     1.008
   31840       H       1    MUSC   H007u       1     0.425     1.008
   31841       H       1    MUSC   H007v       1     0.425     1.008
   31842       H       1    MUSC   H007w       1     0.425     1.008
   31843       H       1    MUSC   H007x       1     0.425     1.008
   31844       H       1    MUSC   H007y       1     0.425     1.008
   31845       H       1    MUSC   H007z       1     0.425     1.008
   31846       H       1    MUSC   H0080       1     0.425     1.008
   31847       H       1    MUSC   H0081       1     0.425     1.008
   31848       H       1    MUSC   H0082       1     0.425     1.008
   31849       H       1    MUSC   H0083       1     0.425     1.008
   31850       H       1    MUSC   H0084       1     0.425     1.008
   31851       H       1    MUSC   H0085       1     0.425     1.008
   31852       H       1    MUSC   H0086       1     0.425     1.008
   31853       H       1    MUSC   H0087       1     0.425     1.008
   31854       H       1    MUSC   H0088       1     0.425     1.008
   31855       H       1    MUSC   H0089       1     0.425     1.008
   31856       H       1    MUSC   H008A       1     0.425     1.008
   31857       H       1    MUSC   H008B       1     0.425     1.008
   31858       H       1    MUSC   H008C       1     0.425     1.008
   31859       H       1    MUSC   H008D       1     0.425     1.008
   31860       H       1    MUSC   H008E       1     0.425     1.008
   31861       H       1    MUSC   H008F       1     0.425     1.008
   31862       H       1    MUSC   H008G       1     0.425     1.008
   31863       H       1    MUSC   H008H       1     0.425     1.008
   31864       H       1    MUSC   H008I       1     0.425     1.008
   31865       H       1    MUSC   H008J       1     0.425     1.008
   31866       H       1    MUSC   H008K       1     0.425     1.008
   31867       H       1    MUSC   H008L       1     0.425     1.008
   31868       H       1    MUSC   H008M       1     0.425     1.008
   31869       H       1    MUSC   H008N       1     0.425     1.008
   31870       H       1    MUSC   H008O       1     0.425     1.008
   31871       H       1    MUSC   H008P       1     0.425     1.008
   31872       H       1    MUSC   H008Q       1     0.425     1.008
   31873       H       1    MUSC   H008R       1     0.425     1.008
   31874       H       1    MUSC   H008S       1     0.425     1.008
   31875       H       1    MUSC   H008T       1     0.425     1.008
   31876       H       1    MUSC   H008U       1     0.425     1.008
   31877       H       1    MUSC   H008V       1     0.425     1.008
   31878       H       1    MUSC   H008W       1     0.425     1.008
   31879       H       1    MUSC   H008X       1     0.425     1.008
   31880       H       1    MUSC   H008Y       1     0.425     1.008
   31881       H       1    MUSC   H008Z       1     0.425     1.008
   31882       H       1    MUSC   H008a       1     0.425     1.008
   31883       H       1    MUSC   H008b       1     0.425     1.008
   31884       H       1    MUSC   H008c       1     0.425     1.008
   31885       H       1    MUSC   H008d       1     0.425     1.008
   31886       H       1    MUSC   H008e       1     0.425     1.008
   31887       H       1    MUSC   H008f       1     0.425     1.008
   31888       H       1    MUSC   H008g       1     0.425     1.008
   31889       H       1    MUSC   H008h       1     0.425     1.008
   31890       H       1    MUSC   H008i       1     0.425     1.008
   31891       H       1    MUSC   H008j       1     0.425     1.008
   31892       H       1    MUSC   H008k       1     0.425     1.008
   31893       H       1    MUSC   H008l       1     0.425     1.008
   31894       H       1    MUSC   H008m       1     0.425     1.008
   31895       H       1    MUSC   H008n       1     0.425     1.008
   31896       H       1    MUSC   H008o       1     0.425     1.008
   31897       H       1    MUSC   H008p       1     0.425     1.008
   31898       H       1    MUSC   H008q       1     0.425     1.008
   31899       H       1    MUSC   H008r       1     0.425     1.008
   31900       H       1    MUSC   H008s       1     0.425     1.008
   31901       H       1    MUSC   H008t       1     0.425     1.008
   31902       H       1    MUSC   H008u       1     0.425     1.008
   31903       H       1    MUSC   H008v       1     0.425     1.008
   31904       H       1    MUSC   H008w       1     0.425     1.008
   31905       H       1    MUSC   H008x       1     0.425     1.008
   31906       H       1    MUSC   H008y       1     0.425     1.008
   31907       H       1    MUSC   H008z       1     0.425     1.008
   31908       H       1    MUSC   H0090       1     0.425     1.008
   31909       H       1    MUSC   H0091       1     0.425     1.008
   31910       H       1    MUSC   H0092       1     0.425     1.008
   31911       H       1    MUSC   H0093       1     0.425     1.008
   31912       H       1    MUSC   H0094       1     0.425     1.008
   31913       H       1    MUSC   H0095       1     0.425     1.008
   31914       H       1    MUSC   H0096       1     0.425     1.008
   31915       H       1    MUSC   H0097       1     0.425     1.008
   31916       H       1    MUSC   H0098       1     0.425     1.008
   31917       H       1    MUSC   H0099       1     0.425     1.008
   31918       H       1    MUSC   H009A       1     0.425     1.008
   31919       H       1    MUSC   H009B       1     0.425     1.008
   31920       H       1    MUSC   H009C       1     0.425     1.008
   31921       H       1    MUSC   H009D       1     0.425     1.008
   31922       H       1    MUSC   H009E       1     0.425     1.008
   31923       H       1    MUSC   H009F       1     0.425     1.008
   31924       H       1    MUSC   H009G       1     0.425     1.008
   31925       H       1    MUSC   H009H       1     0.425     1.008
   31926       H       1    MUSC   H009I       1     0.425     1.008
   31927       H       1    MUSC   H009J       1     0.425     1.008
   31928       H       1    MUSC   H009K       1     0.425     1.008
   31929       H       1    MUSC   H009L       1     0.425     1.008
   31930       H       1    MUSC   H009M       1     0.425     1.008
   31931       H       1    MUSC   H009N       1     0.425     1.008
   31932       H       1    MUSC   H009O       1     0.425     1.008
   31933       H       1    MUSC   H009P       1     0.425     1.008
   31934       H       1    MUSC   H009Q       1     0.425     1.008
   31935       H       1    MUSC   H009R       1     0.425     1.008
   31936       H       1    MUSC   H009S       1     0.425     1.008
   31937       H       1    MUSC   H009T       1     0.425     1.008
   31938       H       1    MUSC   H009U       1     0.425     1.008
   31939       H       1    MUSC   H009V       1     0.425     1.008
   31940       H       1    MUSC   H009W       1     0.425     1.008
   31941       H       1    MUSC   H009X       1     0.425     1.008
   31942       H       1    MUSC   H009Y       1     0.425     1.008
   31943       H       1    MUSC   H009Z       1     0.425     1.008
   31944       H       1    MUSC   H009a       1     0.425     1.008
   31945       H       1    MUSC   H009b       1     0.425     1.008
   31946       H       1    MUSC   H009c       1     0.425     1.008
   31947       H       1    MUSC   H009d       1     0.425     1.008
   31948       H       1    MUSC   H009e       1     0.425     1.008
   31949       H       1    MUSC   H009f       1     0.425     1.008
   31950       H       1    MUSC   H009g       1     0.425     1.008
   31951       H       1    MUSC   H009h       1     0.425     1.008
   31952       H       1    MUSC   H009i       1     0.425     1.008
   31953       H       1    MUSC   H009j       1     0.425     1.008
   31954       H       1    MUSC   H009k       1     0.425     1.008
   31955       H       1    MUSC   H009l       1     0.425     1.008
   31956       H       1    MUSC   H009m       1     0.425     1.008
   31957       H       1    MUSC   H009n       1     0.425     1.008
   31958       H       1    MUSC   H009o       1     0.425     1.008
   31959       H       1    MUSC   H009p       1     0.425     1.008
   31960       H       1    MUSC   H009q       1     0.425     1.008
   31961       H       1    MUSC   H009r       1     0.425     1.008
   31962       H       1    MUSC   H009s       1     0.425     1.008
   31963       H       1    MUSC   H009t       1     0.425     1.008
   31964       H       1    MUSC   H009u       1     0.425     1.008
   31965       H       1    MUSC   H009v       1     0.425     1.008
   31966       H       1    MUSC   H009w       1     0.425     1.008
   31967       H       1    MUSC   H009x       1     0.425     1.008
   31968       H       1    MUSC   H009y       1     0.425     1.008
   31969       H       1    MUSC   H009z       1     0.425     1.008
   31970       H       1    MUSC   H00A0       1     0.425     1.008
   31971       H       1    MUSC   H00A1       1     0.425     1.008
   31972       H       1    MUSC   H00A2       1     0.425     1.008
   31973       H       1    MUSC   H00A3       1     0.425     1.008
   31974       H       1    MUSC   H00A4       1     0.425     1.008
   31975       H       1    MUSC   H00A5       1     0.425     1.008
   31976       H       1    MUSC   H00A6       1     0.425     1.008
   31977       H       1    MUSC   H00A7       1     0.425     1.008
   31978       H       1    MUSC   H00A8       1     0.425     1.008
   31979       H       1    MUSC   H00A9       1     0.425     1.008
   31980       H       1    MUSC   H00AA       1     0.425     1.008
   31981       H       1    MUSC   H00AB       1     0.425     1.008
   31982       H       1    MUSC   H00AC       1     0.425     1.008
   31983       H       1    MUSC   H00AD       1     0.425     1.008
   31984       H       1    MUSC   H00AE       1     0.425     1.008
   31985       H       1    MUSC   H00AF       1     0.425     1.008
   31986       H       1    MUSC   H00AG       1     0.425     1.008
   31987       H       1    MUSC   H00AH       1     0.425     1.008
   31988       H       1    MUSC   H00AI       1     0.425     1.008
   31989       H       1    MUSC   H00AJ       1     0.425     1.008
   31990       H       1    MUSC   H00AK       1     0.425     1.008
   31991       H       1    MUSC   H00AL       1     0.425     1.008
   31992       H       1    MUSC   H00AM       1     0.425     1.008
   31993       H       1    MUSC   H00AN       1     0.425     1.008
   31994       H       1    MUSC   H00AO       1     0.425     1.008
   31995       H       1    MUSC   H00AP       1     0.425     1.008
   31996       H       1    MUSC   H00AQ       1     0.425     1.008
   31997       H       1    MUSC   H00AR       1     0.425     1.008
   31998       H       1    MUSC   H00AS       1     0.425     1.008
   31999       H       1    MUSC   H00AT       1     0.425     1.008
   32000       H       1    MUSC   H00AU       1     0.425     1.008
   32001       H       1    MUSC   H00AV       1     0.425     1.008
   32002       H       1    MUSC   H00AW       1     0.425     1.008
   32003       H       1    MUSC   H00AX       1     0.425     1.008
   32004       H       1    MUSC   H00AY       1     0.425     1.008
   32005       H       1    MUSC   H00AZ       1     0.425     1.008
   32006       H       1    MUSC   H00Aa       1     0.425     1.008
   32007       H       1    MUSC   H00Ab       1     0.425     1.008
   32008       H       1    MUSC   H00Ac       1     0.425     1.008
   32009       H       1    MUSC   H00Ad       1     0.425     1.008
   32010       H       1    MUSC   H00Ae       1     0.425     1.008
   32011       H       1    MUSC   H00Af       1     0.425     1.008
   32012       H       1    MUSC   H00Ag       1     0.425     1.008
   32013       H       1    MUSC   H00Ah       1     0.425     1.008
   32014       H       1    MUSC   H00Ai       1     0.425     1.008
   32015       H       1    MUSC   H00Aj       1     0.425     1.008
   32016       H       1    MUSC   H00Ak       1     0.425     1.008
   32017       H       1    MUSC   H00Al       1     0.425     1.008
   32018       H       1    MUSC   H00Am       1     0.425     1.008
   32019       H       1    MUSC   H00An       1     0.425     1.008
   32020       H       1    MUSC   H00Ao       1     0.425     1.008
   32021       H       1    MUSC   H00Ap       1     0.425     1.008
   32022       H       1    MUSC   H00Aq       1     0.425     1.008
   32023       H       1    MUSC   H00Ar       1     0.425     1.008
   32024       H       1    MUSC   H00As       1     0.425     1.008
   32025       H       1    MUSC   H00At       1     0.425     1.008
   32026       H       1    MUSC   H00Au       1     0.425     1.008
   32027       H       1    MUSC   H00Av       1     0.425     1.008
   32028       H       1    MUSC   H00Aw       1     0.425     1.008
   32029       H       1    MUSC   H00Ax       1     0.425     1.008
   32030       H       1    MUSC   H00Ay       1     0.425     1.008
   32031       H       1    MUSC   H00Az       1     0.425     1.008
   32032       H       1    MUSC   H00B0       1     0.425     1.008
   32033       H       1    MUSC   H00B1       1     0.425     1.008
   32034       H       1    MUSC   H00B2       1     0.425     1.008
   32035       H       1    MUSC   H00B3       1     0.425     1.008
   32036       H       1    MUSC   H00B4       1     0.425     1.008
   32037       H       1    MUSC   H00B5       1     0.425     1.008
   32038       H       1    MUSC   H00B6       1     0.425     1.008
   32039       H       1    MUSC   H00B7       1     0.425     1.008
   32040       H       1    MUSC   H00B8       1     0.425     1.008
   32041       H       1    MUSC   H00B9       1     0.425     1.008
   32042       H       1    MUSC   H00BA       1     0.425     1.008
   32043       H       1    MUSC   H00BB       1     0.425     1.008
   32044       H       1    MUSC   H00BC       1     0.425     1.008
   32045       H       1    MUSC   H00BD       1     0.425     1.008
   32046       H       1    MUSC   H00BE       1     0.425     1.008
   32047       H       1    MUSC   H00BF       1     0.425     1.008
   32048       H       1    MUSC   H00BG       1     0.425     1.008
   32049       H       1    MUSC   H00BH       1     0.425     1.008
   32050       H       1    MUSC   H00BI       1     0.425     1.008
   32051       H       1    MUSC   H00BJ       1     0.425     1.008
   32052       H       1    MUSC   H00BK       1     0.425     1.008
   32053       H       1    MUSC   H00BL       1     0.425     1.008
   32054       H       1    MUSC   H00BM       1     0.425     1.008
   32055       H       1    MUSC   H00BN       1     0.425     1.008
   32056       H       1    MUSC   H00BO       1     0.425     1.008
   32057       H       1    MUSC   H00BP       1     0.425     1.008
   32058       H       1    MUSC   H00BQ       1     0.425     1.008
   32059       H       1    MUSC   H00BR       1     0.425     1.008
   32060       H       1    MUSC   H00BS       1     0.425     1.008
   32061       H       1    MUSC   H00BT       1     0.425     1.008
   32062       H       1    MUSC   H00BU       1     0.425     1.008
   32063       H       1    MUSC   H00BV       1     0.425     1.008
   32064       H       1    MUSC   H00BW       1     0.425     1.008
   32065       H       1    MUSC   H00BX       1     0.425     1.008
   32066       H       1    MUSC   H00BY       1     0.425     1.008
   32067       H       1    MUSC   H00BZ       1     0.425     1.008
   32068       H       1    MUSC   H00Ba       1     0.425     1.008
   32069       H       1    MUSC   H00Bb       1     0.425     1.008
   32070       H       1    MUSC   H00Bc       1     0.425     1.008
   32071       H       1    MUSC   H00Bd       1     0.425     1.008
   32072       H       1    MUSC   H00Be       1     0.425     1.008
   32073       H       1    MUSC   H00Bf       1     0.425     1.008
   32074       H       1    MUSC   H00Bg       1     0.425     1.008
   32075       H       1    MUSC   H00Bh       1     0.425     1.008
   32076       H       1    MUSC   H00Bi       1     0.425     1.008
   32077       H       1    MUSC   H00Bj       1     0.425     1.008
   32078       H       1    MUSC   H00Bk       1     0.425     1.008
   32079       H       1    MUSC   H00Bl       1     0.425     1.008
   32080       H       1    MUSC   H00Bm       1     0.425     1.008
   32081       H       1    MUSC   H00Bn       1     0.425     1.008
   32082       H       1    MUSC   H00Bo       1     0.425     1.008
   32083       H       1    MUSC   H00Bp       1     0.425     1.008
   32084       H       1    MUSC   H00Bq       1     0.425     1.008
   32085       H       1    MUSC   H00Br       1     0.425     1.008
   32086       H       1    MUSC   H00Bs       1     0.425     1.008
   32087       H       1    MUSC   H00Bt       1     0.425     1.008
   32088       H       1    MUSC   H00Bu       1     0.425     1.008
   32089       H       1    MUSC   H00Bv       1     0.425     1.008
   32090       H       1    MUSC   H00Bw       1     0.425     1.008
   32091       H       1    MUSC   H00Bx       1     0.425     1.008
   32092       H       1    MUSC   H00By       1     0.425     1.008
   32093       H       1    MUSC   H00Bz       1     0.425     1.008
   32094       H       1    MUSC   H00C0       1     0.425     1.008
   32095       H       1    MUSC   H00C1       1     0.425     1.008
   32096       H       1    MUSC   H00C2       1     0.425     1.008
   32097       H       1    MUSC   H00C3       1     0.425     1.008
   32098       H       1    MUSC   H00C4       1     0.425     1.008
   32099       H       1    MUSC   H00C5       1     0.425     1.008
   32100       H       1    MUSC   H00C6       1     0.425     1.008
   32101       H       1    MUSC   H00C7       1     0.425     1.008
   32102       H       1    MUSC   H00C8       1     0.425     1.008
   32103       H       1    MUSC   H00C9       1     0.425     1.008
   32104       H       1    MUSC   H00CA       1     0.425     1.008
   32105       H       1    MUSC   H00CB       1     0.425     1.008
   32106       H       1    MUSC   H00CC       1     0.425     1.008
   32107       H       1    MUSC   H00CD       1     0.425     1.008
   32108       H       1    MUSC   H00CE       1     0.425     1.008
   32109       H       1    MUSC   H00CF       1     0.425     1.008
   32110       H       1    MUSC   H00CG       1     0.425     1.008
   32111       H       1    MUSC   H00CH       1     0.425     1.008
   32112       H       1    MUSC   H00CI       1     0.425     1.008
   32113       H       1    MUSC   H00CJ       1     0.425     1.008
   32114       H       1    MUSC   H00CK       1     0.425     1.008
   32115       H       1    MUSC   H00CL       1     0.425     1.008
   32116       H       1    MUSC   H00CM       1     0.425     1.008
   32117       H       1    MUSC   H00CN       1     0.425     1.008
   32118       H       1    MUSC   H00CO       1     0.425     1.008
   32119       H       1    MUSC   H00CP       1     0.425     1.008
   32120       H       1    MUSC   H00CQ       1     0.425     1.008
   32121       H       1    MUSC   H00CR       1     0.425     1.008
   32122       H       1    MUSC   H00CS       1     0.425     1.008
   32123       H       1    MUSC   H00CT       1     0.425     1.008
   32124       H       1    MUSC   H00CU       1     0.425     1.008
   32125       H       1    MUSC   H00CV       1     0.425     1.008
   32126       H       1    MUSC   H00CW       1     0.425     1.008
   32127       H       1    MUSC   H00CX       1     0.425     1.008
   32128       H       1    MUSC   H00CY       1     0.425     1.008
   32129       H       1    MUSC   H00CZ       1     0.425     1.008
   32130       H       1    MUSC   H00Ca       1     0.425     1.008
   32131       H       1    MUSC   H00Cb       1     0.425     1.008
   32132       H       1    MUSC   H00Cc       1     0.425     1.008
   32133       H       1    MUSC   H00Cd       1     0.425     1.008
   32134       H       1    MUSC   H00Ce       1     0.425     1.008
   32135       H       1    MUSC   H00Cf       1     0.425     1.008
   32136       H       1    MUSC   H00Cg       1     0.425     1.008
   32137       H       1    MUSC   H00Ch       1     0.425     1.008
   32138       H       1    MUSC   H00Ci       1     0.425     1.008
   32139       H       1    MUSC   H00Cj       1     0.425     1.008
   32140       H       1    MUSC   H00Ck       1     0.425     1.008
   32141       H       1    MUSC   H00Cl       1     0.425     1.008
   32142       H       1    MUSC   H00Cm       1     0.425     1.008
   32143       H       1    MUSC   H00Cn       1     0.425     1.008
   32144       H       1    MUSC   H00Co       1     0.425     1.008
   32145       H       1    MUSC   H00Cp       1     0.425     1.008
   32146       H       1    MUSC   H00Cq       1     0.425     1.008
   32147       H       1    MUSC   H00Cr       1     0.425     1.008
   32148       H       1    MUSC   H00Cs       1     0.425     1.008
   32149       H       1    MUSC   H00Ct       1     0.425     1.008
   32150       H       1    MUSC   H00Cu       1     0.425     1.008
   32151       H       1    MUSC   H00Cv       1     0.425     1.008
   32152       H       1    MUSC   H00Cw       1     0.425     1.008
   32153       H       1    MUSC   H00Cx       1     0.425     1.008
   32154       H       1    MUSC   H00Cy       1     0.425     1.008
   32155       H       1    MUSC   H00Cz       1     0.425     1.008
   32156       H       1    MUSC   H00D0       1     0.425     1.008
   32157       H       1    MUSC   H00D1       1     0.425     1.008
   32158       H       1    MUSC   H00D2       1     0.425     1.008
   32159       H       1    MUSC   H00D3       1     0.425     1.008
   32160       H       1    MUSC   H00D4       1     0.425     1.008
   32161       H       1    MUSC   H00D5       1     0.425     1.008
   32162       H       1    MUSC   H00D6       1     0.425     1.008
   32163       H       1    MUSC   H00D7       1     0.425     1.008
   32164       H       1    MUSC   H00D8       1     0.425     1.008
   32165       H       1    MUSC   H00D9       1     0.425     1.008
   32166       H       1    MUSC   H00DA       1     0.425     1.008
   32167       H       1    MUSC   H00DB       1     0.425     1.008
   32168       H       1    MUSC   H00DC       1     0.425     1.008
   32169       H       1    MUSC   H00DD       1     0.425     1.008
   32170       H       1    MUSC   H00DE       1     0.425     1.008
   32171       H       1    MUSC   H00DF       1     0.425     1.008
   32172       H       1    MUSC   H00DG       1     0.425     1.008
   32173       H       1    MUSC   H00DH       1     0.425     1.008
   32174       H       1    MUSC   H00DI       1     0.425     1.008
   32175       H       1    MUSC   H00DJ       1     0.425     1.008
   32176       H       1    MUSC   H00DK       1     0.425     1.008
   32177       H       1    MUSC   H00DL       1     0.425     1.008
   32178       H       1    MUSC   H00DM       1     0.425     1.008
   32179       H       1    MUSC   H00DN       1     0.425     1.008
   32180       H       1    MUSC   H00DO       1     0.425     1.008
   32181       H       1    MUSC   H00DP       1     0.425     1.008
   32182       H       1    MUSC   H00DQ       1     0.425     1.008
   32183       H       1    MUSC   H00DR       1     0.425     1.008
   32184       H       1    MUSC   H00DS       1     0.425     1.008
   32185       H       1    MUSC   H00DT       1     0.425     1.008
   32186       H       1    MUSC   H00DU       1     0.425     1.008
   32187       H       1    MUSC   H00DV       1     0.425     1.008
   32188       H       1    MUSC   H00DW       1     0.425     1.008
   32189       H       1    MUSC   H00DX       1     0.425     1.008
   32190       H       1    MUSC   H00DY       1     0.425     1.008
   32191       H       1    MUSC   H00DZ       1     0.425     1.008
   32192       H       1    MUSC   H00Da       1     0.425     1.008
   32193       H       1    MUSC   H00Db       1     0.425     1.008
   32194       H       1    MUSC   H00Dc       1     0.425     1.008
   32195       H       1    MUSC   H00Dd       1     0.425     1.008
   32196       H       1    MUSC   H00De       1     0.425     1.008
   32197       H       1    MUSC   H00Df       1     0.425     1.008
   32198       H       1    MUSC   H00Dg       1     0.425     1.008
   32199       H       1    MUSC   H00Dh       1     0.425     1.008
   32200       H       1    MUSC   H00Di       1     0.425     1.008
   32201       H       1    MUSC   H00Dj       1     0.425     1.008
   32202       H       1    MUSC   H00Dk       1     0.425     1.008
   32203       H       1    MUSC   H00Dl       1     0.425     1.008
   32204       H       1    MUSC   H00Dm       1     0.425     1.008
   32205       H       1    MUSC   H00Dn       1     0.425     1.008
   32206       H       1    MUSC   H00Do       1     0.425     1.008
   32207       H       1    MUSC   H00Dp       1     0.425     1.008
   32208       H       1    MUSC   H00Dq       1     0.425     1.008
   32209       H       1    MUSC   H00Dr       1     0.425     1.008
   32210       H       1    MUSC   H00Ds       1     0.425     1.008
   32211       H       1    MUSC   H00Dt       1     0.425     1.008
   32212       H       1    MUSC   H00Du       1     0.425     1.008
   32213       H       1    MUSC   H00Dv       1     0.425     1.008
   32214       H       1    MUSC   H00Dw       1     0.425     1.008
   32215       H       1    MUSC   H00Dx       1     0.425     1.008
   32216       H       1    MUSC   H00Dy       1     0.425     1.008
   32217       H       1    MUSC   H00Dz       1     0.425     1.008
   32218       H       1    MUSC   H00E0       1     0.425     1.008
   32219       H       1    MUSC   H00E1       1     0.425     1.008
   32220       H       1    MUSC   H00E2       1     0.425     1.008
   32221       H       1    MUSC   H00E3       1     0.425     1.008
   32222       H       1    MUSC   H00E4       1     0.425     1.008
   32223       H       1    MUSC   H00E5       1     0.425     1.008
   32224       H       1    MUSC   H00E6       1     0.425     1.008
   32225       H       1    MUSC   H00E7       1     0.425     1.008
   32226       H       1    MUSC   H00E8       1     0.425     1.008
   32227       H       1    MUSC   H00E9       1     0.425     1.008
   32228       H       1    MUSC   H00EA       1     0.425     1.008
   32229       H       1    MUSC   H00EB       1     0.425     1.008
   32230       H       1    MUSC   H00EC       1     0.425     1.008
   32231       H       1    MUSC   H00ED       1     0.425     1.008
   32232       H       1    MUSC   H00EE       1     0.425     1.008
   32233       H       1    MUSC   H00EF       1     0.425     1.008
   32234       H       1    MUSC   H00EG       1     0.425     1.008
   32235       H       1    MUSC   H00EH       1     0.425     1.008
   32236       H       1    MUSC   H00EI       1     0.425     1.008
   32237       H       1    MUSC   H00EJ       1     0.425     1.008
   32238       H       1    MUSC   H00EK       1     0.425     1.008
   32239       H       1    MUSC   H00EL       1     0.425     1.008
   32240       H       1    MUSC   H00EM       1     0.425     1.008
   32241       H       1    MUSC   H00EN       1     0.425     1.008
   32242       H       1    MUSC   H00EO       1     0.425     1.008
   32243       H       1    MUSC   H00EP       1     0.425     1.008
   32244       H       1    MUSC   H00EQ       1     0.425     1.008
   32245       H       1    MUSC   H00ER       1     0.425     1.008
   32246       H       1    MUSC   H00ES       1     0.425     1.008
   32247       H       1    MUSC   H00ET       1     0.425     1.008
   32248       H       1    MUSC   H00EU       1     0.425     1.008
   32249       H       1    MUSC   H00EV       1     0.425     1.008
   32250       H       1    MUSC   H00EW       1     0.425     1.008
   32251       H       1    MUSC   H00EX       1     0.425     1.008
   32252       H       1    MUSC   H00EY       1     0.425     1.008
   32253       H       1    MUSC   H00EZ       1     0.425     1.008
   32254       H       1    MUSC   H00Ea       1     0.425     1.008
   32255       H       1    MUSC   H00Eb       1     0.425     1.008
   32256       H       1    MUSC   H00Ec       1     0.425     1.008
   32257       H       1    MUSC   H00Ed       1     0.425     1.008
   32258       H       1    MUSC   H00Ee       1     0.425     1.008
   32259       H       1    MUSC   H00Ef       1     0.425     1.008
   32260       H       1    MUSC   H00Eg       1     0.425     1.008
   32261       H       1    MUSC   H00Eh       1     0.425     1.008
   32262       H       1    MUSC   H00Ei       1     0.425     1.008
   32263       H       1    MUSC   H00Ej       1     0.425     1.008
   32264       H       1    MUSC   H00Ek       1     0.425     1.008
   32265       H       1    MUSC   H00El       1     0.425     1.008
   32266       H       1    MUSC   H00Em       1     0.425     1.008
   32267       H       1    MUSC   H00En       1     0.425     1.008
   32268       H       1    MUSC   H00Eo       1     0.425     1.008
   32269       H       1    MUSC   H00Ep       1     0.425     1.008
   32270       H       1    MUSC   H00Eq       1     0.425     1.008
   32271       H       1    MUSC   H00Er       1     0.425     1.008
   32272       H       1    MUSC   H00Es       1     0.425     1.008
   32273       H       1    MUSC   H00Et       1     0.425     1.008
   32274       H       1    MUSC   H00Eu       1     0.425     1.008
   32275       H       1    MUSC   H00Ev       1     0.425     1.008
   32276       H       1    MUSC   H00Ew       1     0.425     1.008
   32277       H       1    MUSC   H00Ex       1     0.425     1.008
   32278       H       1    MUSC   H00Ey       1     0.425     1.008
   32279       H       1    MUSC   H00Ez       1     0.425     1.008
   32280       H       1    MUSC   H00F0       1     0.425     1.008
   32281       H       1    MUSC   H00F1       1     0.425     1.008
   32282       H       1    MUSC   H00F2       1     0.425     1.008
   32283       H       1    MUSC   H00F3       1     0.425     1.008
   32284       H       1    MUSC   H00F4       1     0.425     1.008
   32285       H       1    MUSC   H00F5       1     0.425     1.008
   32286       H       1    MUSC   H00F6       1     0.425     1.008
   32287       H       1    MUSC   H00F7       1     0.425     1.008
   32288       H       1    MUSC   H00F8       1     0.425     1.008
   32289       H       1    MUSC   H00F9       1     0.425     1.008
   32290       H       1    MUSC   H00FA       1     0.425     1.008
   32291       H       1    MUSC   H00FB       1     0.425     1.008
   32292       H       1    MUSC   H00FC       1     0.425     1.008
   32293       H       1    MUSC   H00FD       1     0.425     1.008
   32294       H       1    MUSC   H00FE       1     0.425     1.008
   32295       H       1    MUSC   H00FF       1     0.425     1.008
   32296       H       1    MUSC   H00FG       1     0.425     1.008
   32297       H       1    MUSC   H00FH       1     0.425     1.008
   32298       H       1    MUSC   H00FI       1     0.425     1.008
   32299       H       1    MUSC   H00FJ       1     0.425     1.008
   32300       H       1    MUSC   H00FK       1     0.425     1.008
   32301       H       1    MUSC   H00FL       1     0.425     1.008
   32302       H       1    MUSC   H00FM       1     0.425     1.008
   32303       H       1    MUSC   H00FN       1     0.425     1.008
   32304       H       1    MUSC   H00FO       1     0.425     1.008
   32305       H       1    MUSC   H00FP       1     0.425     1.008
   32306       H       1    MUSC   H00FQ       1     0.425     1.008
   32307       H       1    MUSC   H00FR       1     0.425     1.008
   32308       H       1    MUSC   H00FS       1     0.425     1.008
   32309       H       1    MUSC   H00FT       1     0.425     1.008
   32310       H       1    MUSC   H00FU       1     0.425     1.008
   32311       H       1    MUSC   H00FV       1     0.425     1.008
   32312       H       1    MUSC   H00FW       1     0.425     1.008
   32313       H       1    MUSC   H00FX       1     0.425     1.008
   32314       H       1    MUSC   H00FY       1     0.425     1.008
   32315       H       1    MUSC   H00FZ       1     0.425     1.008
   32316       H       1    MUSC   H00Fa       1     0.425     1.008
   32317       H       1    MUSC   H00Fb       1     0.425     1.008
   32318       H       1    MUSC   H00Fc       1     0.425     1.008
   32319       H       1    MUSC   H00Fd       1     0.425     1.008
   32320       H       1    MUSC   H00Fe       1     0.425     1.008
   32321       H       1    MUSC   H00Ff       1     0.425     1.008
   32322       H       1    MUSC   H00Fg       1     0.425     1.008
   32323       H       1    MUSC   H00Fh       1     0.425     1.008
   32324       H       1    MUSC   H00Fi       1     0.425     1.008
   32325       H       1    MUSC   H00Fj       1     0.425     1.008
   32326       H       1    MUSC   H00Fk       1     0.425     1.008
   32327       H       1    MUSC   H00Fl       1     0.425     1.008
   32328       H       1    MUSC   H00Fm       1     0.425     1.008
   32329       H       1    MUSC   H00Fn       1     0.425     1.008
   32330       H       1    MUSC   H00Fo       1     0.425     1.008
   32331       H       1    MUSC   H00Fp       1     0.425     1.008
   32332       H       1    MUSC   H00Fq       1     0.425     1.008
   32333       H       1    MUSC   H00Fr       1     0.425     1.008
   32334       H       1    MUSC   H00Fs       1     0.425     1.008
   32335       H       1    MUSC   H00Ft       1     0.425     1.008
   32336       H       1    MUSC   H00Fu       1     0.425     1.008
   32337       H       1    MUSC   H00Fv       1     0.425     1.008
   32338       H       1    MUSC   H00Fw       1     0.425     1.008
   32339       H       1    MUSC   H00Fx       1     0.425     1.008
   32340       H       1    MUSC   H00Fy       1     0.425     1.008
   32341       H       1    MUSC   H00Fz       1     0.425     1.008
   32342       H       1    MUSC   H00G0       1     0.425     1.008
   32343       H       1    MUSC   H00G1       1     0.425     1.008
   32344       H       1    MUSC   H00G2       1     0.425     1.008
   32345       H       1    MUSC   H00G3       1     0.425     1.008
   32346       H       1    MUSC   H00G4       1     0.425     1.008
   32347       H       1    MUSC   H00G5       1     0.425     1.008
   32348       H       1    MUSC   H00G6       1     0.425     1.008
   32349       H       1    MUSC   H00G7       1     0.425     1.008
   32350       H       1    MUSC   H00G8       1     0.425     1.008
   32351       H       1    MUSC   H00G9       1     0.425     1.008
   32352       H       1    MUSC   H00GA       1     0.425     1.008
   32353       H       1    MUSC   H00GB       1     0.425     1.008
   32354       H       1    MUSC   H00GC       1     0.425     1.008
   32355       H       1    MUSC   H00GD       1     0.425     1.008
   32356       H       1    MUSC   H00GE       1     0.425     1.008
   32357       H       1    MUSC   H00GF       1     0.425     1.008
   32358       H       1    MUSC   H00GG       1     0.425     1.008
   32359       H       1    MUSC   H00GH       1     0.425     1.008
   32360       H       1    MUSC   H00GI       1     0.425     1.008
   32361       H       1    MUSC   H00GJ       1     0.425     1.008
   32362       H       1    MUSC   H00GK       1     0.425     1.008
   32363       H       1    MUSC   H00GL       1     0.425     1.008
   32364       H       1    MUSC   H00GM       1     0.425     1.008
   32365       H       1    MUSC   H00GN       1     0.425     1.008
   32366       H       1    MUSC   H00GO       1     0.425     1.008
   32367       H       1    MUSC   H00GP       1     0.425     1.008
   32368       H       1    MUSC   H00GQ       1     0.425     1.008
   32369       H       1    MUSC   H00GR       1     0.425     1.008
   32370       H       1    MUSC   H00GS       1     0.425     1.008
   32371       H       1    MUSC   H00GT       1     0.425     1.008
   32372       H       1    MUSC   H00GU       1     0.425     1.008
   32373       H       1    MUSC   H00GV       1     0.425     1.008
   32374       H       1    MUSC   H00GW       1     0.425     1.008
   32375       H       1    MUSC   H00GX       1     0.425     1.008
   32376       H       1    MUSC   H00GY       1     0.425     1.008
   32377       H       1    MUSC   H00GZ       1     0.425     1.008
   32378       H       1    MUSC   H00Ga       1     0.425     1.008
   32379       H       1    MUSC   H00Gb       1     0.425     1.008
   32380       H       1    MUSC   H00Gc       1     0.425     1.008
   32381       H       1    MUSC   H00Gd       1     0.425     1.008
   32382       H       1    MUSC   H00Ge       1     0.425     1.008
   32383       H       1    MUSC   H00Gf       1     0.425     1.008
   32384       H       1    MUSC   H00Gg       1     0.425     1.008
   32385       H       1    MUSC   H00Gh       1     0.425     1.008
   32386       H       1    MUSC   H00Gi       1     0.425     1.008
   32387       H       1    MUSC   H00Gj       1     0.425     1.008
   32388       H       1    MUSC   H00Gk       1     0.425     1.008
   32389       H       1    MUSC   H00Gl       1     0.425     1.008
   32390       H       1    MUSC   H00Gm       1     0.425     1.008
   32391       H       1    MUSC   H00Gn       1     0.425     1.008
   32392       H       1    MUSC   H00Go       1     0.425     1.008
   32393       H       1    MUSC   H00Gp       1     0.425     1.008
   32394       H       1    MUSC   H00Gq       1     0.425     1.008
   32395       H       1    MUSC   H00Gr       1     0.425     1.008
   32396       H       1    MUSC   H00Gs       1     0.425     1.008
   32397       H       1    MUSC   H00Gt       1     0.425     1.008
   32398       H       1    MUSC   H00Gu       1     0.425     1.008
   32399       H       1    MUSC   H00Gv       1     0.425     1.008
   32400       H       1    MUSC   H00Gw       1     0.425     1.008
   32401       H       1    MUSC   H00Gx       1     0.425     1.008
   32402       H       1    MUSC   H00Gy       1     0.425     1.008
   32403       H       1    MUSC   H00Gz       1     0.425     1.008
   32404       H       1    MUSC   H00H0       1     0.425     1.008
   32405       H       1    MUSC   H00H1       1     0.425     1.008
   32406       H       1    MUSC   H00H2       1     0.425     1.008
   32407       H       1    MUSC   H00H3       1     0.425     1.008
   32408       H       1    MUSC   H00H4       1     0.425     1.008
   32409       H       1    MUSC   H00H5       1     0.425     1.008
   32410       H       1    MUSC   H00H6       1     0.425     1.008
   32411       H       1    MUSC   H00H7       1     0.425     1.008
   32412       H       1    MUSC   H00H8       1     0.425     1.008
   32413       H       1    MUSC   H00H9       1     0.425     1.008
   32414       H       1    MUSC   H00HA       1     0.425     1.008
   32415       H       1    MUSC   H00HB       1     0.425     1.008
   32416       H       1    MUSC   H00HC       1     0.425     1.008
   32417       H       1    MUSC   H00HD       1     0.425     1.008
   32418       H       1    MUSC   H00HE       1     0.425     1.008
   32419       H       1    MUSC   H00HF       1     0.425     1.008
   32420       H       1    MUSC   H00HG       1     0.425     1.008
   32421       H       1    MUSC   H00HH       1     0.425     1.008
   32422       H       1    MUSC   H00HI       1     0.425     1.008
   32423       H       1    MUSC   H00HJ       1     0.425     1.008
   32424       H       1    MUSC   H00HK       1     0.425     1.008
   32425       H       1    MUSC   H00HL       1     0.425     1.008
   32426       H       1    MUSC   H00HM       1     0.425     1.008
   32427       H       1    MUSC   H00HN       1     0.425     1.008
   32428       H       1    MUSC   H00HO       1     0.425     1.008
   32429       H       1    MUSC   H00HP       1     0.425     1.008
   32430       H       1    MUSC   H00HQ       1     0.425     1.008
   32431       H       1    MUSC   H00HR       1     0.425     1.008
   32432       H       1    MUSC   H00HS       1     0.425     1.008
   32433       H       1    MUSC   H00HT       1     0.425     1.008
   32434       H       1    MUSC   H00HU       1     0.425     1.008
   32435       H       1    MUSC   H00HV       1     0.425     1.008
   32436       H       1    MUSC   H00HW       1     0.425     1.008
   32437       H       1    MUSC   H00HX       1     0.425     1.008
   32438       H       1    MUSC   H00HY       1     0.425     1.008
   32439       H       1    MUSC   H00HZ       1     0.425     1.008
   32440       H       1    MUSC   H00Ha       1     0.425     1.008
   32441       H       1    MUSC   H00Hb       1     0.425     1.008
   32442       H       1    MUSC   H00Hc       1     0.425     1.008
   32443       H       1    MUSC   H00Hd       1     0.425     1.008
   32444       H       1    MUSC   H00He       1     0.425     1.008
   32445       H       1    MUSC   H00Hf       1     0.425     1.008
   32446       H       1    MUSC   H00Hg       1     0.425     1.008
   32447       H       1    MUSC   H00Hh       1     0.425     1.008
   32448       H       1    MUSC   H00Hi       1     0.425     1.008
   32449       H       1    MUSC   H00Hj       1     0.425     1.008
   32450       H       1    MUSC   H00Hk       1     0.425     1.008
   32451       H       1    MUSC   H00Hl       1     0.425     1.008
   32452       H       1    MUSC   H00Hm       1     0.425     1.008
   32453       H       1    MUSC   H00Hn       1     0.425     1.008
   32454       H       1    MUSC   H00Ho       1     0.425     1.008
   32455       H       1    MUSC   H00Hp       1     0.425     1.008
   32456       H       1    MUSC   H00Hq       1     0.425     1.008
   32457       H       1    MUSC   H00Hr       1     0.425     1.008
   32458       H       1    MUSC   H00Hs       1     0.425     1.008
   32459       H       1    MUSC   H00Ht       1     0.425     1.008
   32460       H       1    MUSC   H00Hu       1     0.425     1.008
   32461       H       1    MUSC   H00Hv       1     0.425     1.008
   32462       H       1    MUSC   H00Hw       1     0.425     1.008
   32463       H       1    MUSC   H00Hx       1     0.425     1.008
   32464       H       1    MUSC   H00Hy       1     0.425     1.008
   32465       H       1    MUSC   H00Hz       1     0.425     1.008
   32466       H       1    MUSC   H00I0       1     0.425     1.008
   32467       H       1    MUSC   H00I1       1     0.425     1.008
   32468       H       1    MUSC   H00I2       1     0.425     1.008
   32469       H       1    MUSC   H00I3       1     0.425     1.008
   32470       H       1    MUSC   H00I4       1     0.425     1.008
   32471       H       1    MUSC   H00I5       1     0.425     1.008
   32472       H       1    MUSC   H00I6       1     0.425     1.008
   32473       H       1    MUSC   H00I7       1     0.425     1.008
   32474       H       1    MUSC   H00I8       1     0.425     1.008
   32475       H       1    MUSC   H00I9       1     0.425     1.008
   32476       H       1    MUSC   H00IA       1     0.425     1.008
   32477       H       1    MUSC   H00IB       1     0.425     1.008
   32478       H       1    MUSC   H00IC       1     0.425     1.008
   32479       H       1    MUSC   H00ID       1     0.425     1.008
   32480       H       1    MUSC   H00IE       1     0.425     1.008
   32481       H       1    MUSC   H00IF       1     0.425     1.008
   32482       H       1    MUSC   H00IG       1     0.425     1.008
   32483       H       1    MUSC   H00IH       1     0.425     1.008
   32484       H       1    MUSC   H00II       1     0.425     1.008
   32485       H       1    MUSC   H00IJ       1     0.425     1.008
   32486       H       1    MUSC   H00IK       1     0.425     1.008
   32487       H       1    MUSC   H00IL       1     0.425     1.008
   32488       H       1    MUSC   H00IM       1     0.425     1.008
   32489       H       1    MUSC   H00IN       1     0.425     1.008
   32490       H       1    MUSC   H00IO       1     0.425     1.008
   32491       H       1    MUSC   H00IP       1     0.425     1.008
   32492       H       1    MUSC   H00IQ       1     0.425     1.008
   32493       H       1    MUSC   H00IR       1     0.425     1.008
   32494       H       1    MUSC   H00IS       1     0.425     1.008
   32495       H       1    MUSC   H00IT       1     0.425     1.008
   32496       H       1    MUSC   H00IU       1     0.425     1.008
   32497       H       1    MUSC   H00IV       1     0.425     1.008
   32498       H       1    MUSC   H00IW       1     0.425     1.008
   32499       H       1    MUSC   H00IX       1     0.425     1.008
   32500       H       1    MUSC   H00IY       1     0.425     1.008
   32501       H       1    MUSC   H00IZ       1     0.425     1.008
   32502       H       1    MUSC   H00Ia       1     0.425     1.008
   32503       H       1    MUSC   H00Ib       1     0.425     1.008
   32504       H       1    MUSC   H00Ic       1     0.425     1.008
   32505       H       1    MUSC   H00Id       1     0.425     1.008
   32506       H       1    MUSC   H00Ie       1     0.425     1.008
   32507       H       1    MUSC   H00If       1     0.425     1.008
   32508       H       1    MUSC   H00Ig       1     0.425     1.008
   32509       H       1    MUSC   H00Ih       1     0.425     1.008
   32510       H       1    MUSC   H00Ii       1     0.425     1.008
   32511       H       1    MUSC   H00Ij       1     0.425     1.008
   32512       H       1    MUSC   H00Ik       1     0.425     1.008
   32513       H       1    MUSC   H00Il       1     0.425     1.008
   32514       H       1    MUSC   H00Im       1     0.425     1.008
   32515       H       1    MUSC   H00In       1     0.425     1.008
   32516       H       1    MUSC   H00Io       1     0.425     1.008
   32517       H       1    MUSC   H00Ip       1     0.425     1.008
   32518       H       1    MUSC   H00Iq       1     0.425     1.008
   32519       H       1    MUSC   H00Ir       1     0.425     1.008
   32520       H       1    MUSC   H00Is       1     0.425     1.008
   32521       H       1    MUSC   H00It       1     0.425     1.008
   32522       H       1    MUSC   H00Iu       1     0.425     1.008
   32523       H       1    MUSC   H00Iv       1     0.425     1.008
   32524       H       1    MUSC   H00Iw       1     0.425     1.008
   32525       H       1    MUSC   H00Ix       1     0.425     1.008
   32526       H       1    MUSC   H00Iy       1     0.425     1.008
   32527       H       1    MUSC   H00Iz       1     0.425     1.008
   32528       H       1    MUSC   H00J0       1     0.425     1.008
   32529       H       1    MUSC   H00J1       1     0.425     1.008
   32530       H       1    MUSC   H00J2       1     0.425     1.008
   32531       H       1    MUSC   H00J3       1     0.425     1.008
   32532       H       1    MUSC   H00J4       1     0.425     1.008
   32533       H       1    MUSC   H00J5       1     0.425     1.008
   32534       H       1    MUSC   H00J6       1     0.425     1.008
   32535       H       1    MUSC   H00J7       1     0.425     1.008
   32536       H       1    MUSC   H00J8       1     0.425     1.008
   32537       H       1    MUSC   H00J9       1     0.425     1.008
   32538       H       1    MUSC   H00JA       1     0.425     1.008
   32539       H       1    MUSC   H00JB       1     0.425     1.008
   32540       H       1    MUSC   H00JC       1     0.425     1.008
   32541       H       1    MUSC   H00JD       1     0.425     1.008
   32542       H       1    MUSC   H00JE       1     0.425     1.008
   32543       H       1    MUSC   H00JF       1     0.425     1.008
   32544       H       1    MUSC   H00JG       1     0.425     1.008
   32545       H       1    MUSC   H00JH       1     0.425     1.008
   32546       H       1    MUSC   H00JI       1     0.425     1.008
   32547       H       1    MUSC   H00JJ       1     0.425     1.008
   32548       H       1    MUSC   H00JK       1     0.425     1.008
   32549       H       1    MUSC   H00JL       1     0.425     1.008
   32550       H       1    MUSC   H00JM       1     0.425     1.008
   32551       H       1    MUSC   H00JN       1     0.425     1.008
   32552       H       1    MUSC   H00JO       1     0.425     1.008
   32553       H       1    MUSC   H00JP       1     0.425     1.008
   32554       H       1    MUSC   H00JQ       1     0.425     1.008
   32555       H       1    MUSC   H00JR       1     0.425     1.008
   32556       H       1    MUSC   H00JS       1     0.425     1.008
   32557       H       1    MUSC   H00JT       1     0.425     1.008
   32558       H       1    MUSC   H00JU       1     0.425     1.008
   32559       H       1    MUSC   H00JV       1     0.425     1.008
   32560       H       1    MUSC   H00JW       1     0.425     1.008
   32561       H       1    MUSC   H00JX       1     0.425     1.008
   32562       H       1    MUSC   H00JY       1     0.425     1.008
   32563       H       1    MUSC   H00JZ       1     0.425     1.008
   32564       H       1    MUSC   H00Ja       1     0.425     1.008
   32565       H       1    MUSC   H00Jb       1     0.425     1.008
   32566       H       1    MUSC   H00Jc       1     0.425     1.008
   32567       H       1    MUSC   H00Jd       1     0.425     1.008
   32568       H       1    MUSC   H00Je       1     0.425     1.008
   32569       H       1    MUSC   H00Jf       1     0.425     1.008
   32570       H       1    MUSC   H00Jg       1     0.425     1.008
   32571       H       1    MUSC   H00Jh       1     0.425     1.008
   32572       H       1    MUSC   H00Ji       1     0.425     1.008
   32573       H       1    MUSC   H00Jj       1     0.425     1.008
   32574       H       1    MUSC   H00Jk       1     0.425     1.008
   32575       H       1    MUSC   H00Jl       1     0.425     1.008
   32576       H       1    MUSC   H00Jm       1     0.425     1.008
   32577       H       1    MUSC   H00Jn       1     0.425     1.008
   32578       H       1    MUSC   H00Jo       1     0.425     1.008
   32579       H       1    MUSC   H00Jp       1     0.425     1.008
   32580       H       1    MUSC   H00Jq       1     0.425     1.008
   32581       H       1    MUSC   H00Jr       1     0.425     1.008
   32582       H       1    MUSC   H00Js       1     0.425     1.008
   32583       H       1    MUSC   H00Jt       1     0.425     1.008
   32584       H       1    MUSC   H00Ju       1     0.425     1.008
   32585       H       1    MUSC   H00Jv       1     0.425     1.008
   32586       H       1    MUSC   H00Jw       1     0.425     1.008
   32587       H       1    MUSC   H00Jx       1     0.425     1.008
   32588       H       1    MUSC   H00Jy       1     0.425     1.008
   32589       H       1    MUSC   H00Jz       1     0.425     1.008
   32590       H       1    MUSC   H00K0       1     0.425     1.008
   32591       H       1    MUSC   H00K1       1     0.425     1.008
   32592       H       1    MUSC   H00K2       1     0.425     1.008
   32593       H       1    MUSC   H00K3       1     0.425     1.008
   32594       H       1    MUSC   H00K4       1     0.425     1.008
   32595       H       1    MUSC   H00K5       1     0.425     1.008
   32596       H       1    MUSC   H00K6       1     0.425     1.008
   32597       H       1    MUSC   H00K7       1     0.425     1.008
   32598       H       1    MUSC   H00K8       1     0.425     1.008
   32599       H       1    MUSC   H00K9       1     0.425     1.008
   32600       H       1    MUSC   H00KA       1     0.425     1.008
   32601       H       1    MUSC   H00KB       1     0.425     1.008
   32602       H       1    MUSC   H00KC       1     0.425     1.008
   32603       H       1    MUSC   H00KD       1     0.425     1.008
   32604       H       1    MUSC   H00KE       1     0.425     1.008
   32605       H       1    MUSC   H00KF       1     0.425     1.008
   32606       H       1    MUSC   H00KG       1     0.425     1.008
   32607       H       1    MUSC   H00KH       1     0.425     1.008
   32608       H       1    MUSC   H00KI       1     0.425     1.008
   32609       H       1    MUSC   H00KJ       1     0.425     1.008
   32610       H       1    MUSC   H00KK       1     0.425     1.008
   32611       H       1    MUSC   H00KL       1     0.425     1.008
   32612       H       1    MUSC   H00KM       1     0.425     1.008
   32613       H       1    MUSC   H00KN       1     0.425     1.008
   32614       H       1    MUSC   H00KO       1     0.425     1.008
   32615       H       1    MUSC   H00KP       1     0.425     1.008
   32616       H       1    MUSC   H00KQ       1     0.425     1.008
   32617       H       1    MUSC   H00KR       1     0.425     1.008
   32618       H       1    MUSC   H00KS       1     0.425     1.008
   32619       H       1    MUSC   H00KT       1     0.425     1.008
   32620       H       1    MUSC   H00KU       1     0.425     1.008
   32621       H       1    MUSC   H00KV       1     0.425     1.008
   32622       H       1    MUSC   H00KW       1     0.425     1.008
   32623       H       1    MUSC   H00KX       1     0.425     1.008
   32624       H       1    MUSC   H00KY       1     0.425     1.008
   32625       H       1    MUSC   H00KZ       1     0.425     1.008
   32626       H       1    MUSC   H00Ka       1     0.425     1.008
   32627       H       1    MUSC   H00Kb       1     0.425     1.008
   32628       H       1    MUSC   H00Kc       1     0.425     1.008
   32629       H       1    MUSC   H00Kd       1     0.425     1.008
   32630       H       1    MUSC   H00Ke       1     0.425     1.008
   32631       H       1    MUSC   H00Kf       1     0.425     1.008
   32632       H       1    MUSC   H00Kg       1     0.425     1.008
   32633       H       1    MUSC   H00Kh       1     0.425     1.008
   32634       H       1    MUSC   H00Ki       1     0.425     1.008
   32635       H       1    MUSC   H00Kj       1     0.425     1.008
   32636       H       1    MUSC   H00Kk       1     0.425     1.008
   32637       H       1    MUSC   H00Kl       1     0.425     1.008
   32638       H       1    MUSC   H00Km       1     0.425     1.008
   32639       H       1    MUSC   H00Kn       1     0.425     1.008
   32640       H       1    MUSC   H00Ko       1     0.425     1.008
   32641       H       1    MUSC   H00Kp       1     0.425     1.008
   32642       H       1    MUSC   H00Kq       1     0.425     1.008
   32643       H       1    MUSC   H00Kr       1     0.425     1.008
   32644       H       1    MUSC   H00Ks       1     0.425     1.008
   32645       H       1    MUSC   H00Kt       1     0.425     1.008
   32646       H       1    MUSC   H00Ku       1     0.425     1.008
   32647       H       1    MUSC   H00Kv       1     0.425     1.008
   32648       H       1    MUSC   H00Kw       1     0.425     1.008
   32649       H       1    MUSC   H00Kx       1     0.425     1.008
   32650       H       1    MUSC   H00Ky       1     0.425     1.008
   32651       H       1    MUSC   H00Kz       1     0.425     1.008
   32652       H       1    MUSC   H00L0       1     0.425     1.008
   32653       H       1    MUSC   H00L1       1     0.425     1.008
   32654       H       1    MUSC   H00L2       1     0.425     1.008
   32655       H       1    MUSC   H00L3       1     0.425     1.008
   32656       H       1    MUSC   H00L4       1     0.425     1.008
   32657       H       1    MUSC   H00L5       1     0.425     1.008
   32658       H       1    MUSC   H00L6       1     0.425     1.008
   32659       H       1    MUSC   H00L7       1     0.425     1.008
   32660       H       1    MUSC   H00L8       1     0.425     1.008
   32661       H       1    MUSC   H00L9       1     0.425     1.008
   32662       H       1    MUSC   H00LA       1     0.425     1.008
   32663       H       1    MUSC   H00LB       1     0.425     1.008
   32664       H       1    MUSC   H00LC       1     0.425     1.008
   32665       H       1    MUSC   H00LD       1     0.425     1.008
   32666       H       1    MUSC   H00LE       1     0.425     1.008
   32667       H       1    MUSC   H00LF       1     0.425     1.008
   32668       H       1    MUSC   H00LG       1     0.425     1.008
   32669       H       1    MUSC   H00LH       1     0.425     1.008
   32670       H       1    MUSC   H00LI       1     0.425     1.008
   32671       H       1    MUSC   H00LJ       1     0.425     1.008
   32672       H       1    MUSC   H00LK       1     0.425     1.008
   32673       H       1    MUSC   H00LL       1     0.425     1.008
   32674       H       1    MUSC   H00LM       1     0.425     1.008
   32675       H       1    MUSC   H00LN       1     0.425     1.008
   32676       H       1    MUSC   H00LO       1     0.425     1.008
   32677       H       1    MUSC   H00LP       1     0.425     1.008
   32678       H       1    MUSC   H00LQ       1     0.425     1.008
   32679       H       1    MUSC   H00LR       1     0.425     1.008
   32680       H       1    MUSC   H00LS       1     0.425     1.008
   32681       H       1    MUSC   H00LT       1     0.425     1.008
   32682       H       1    MUSC   H00LU       1     0.425     1.008
   32683       H       1    MUSC   H00LV       1     0.425     1.008
   32684       H       1    MUSC   H00LW       1     0.425     1.008
   32685       H       1    MUSC   H00LX       1     0.425     1.008
   32686       H       1    MUSC   H00LY       1     0.425     1.008
   32687       H       1    MUSC   H00LZ       1     0.425     1.008
   32688       H       1    MUSC   H00La       1     0.425     1.008
   32689       H       1    MUSC   H00Lb       1     0.425     1.008
   32690       H       1    MUSC   H00Lc       1     0.425     1.008
   32691       H       1    MUSC   H00Ld       1     0.425     1.008
   32692       H       1    MUSC   H00Le       1     0.425     1.008
   32693       H       1    MUSC   H00Lf       1     0.425     1.008
   32694       H       1    MUSC   H00Lg       1     0.425     1.008
   32695       H       1    MUSC   H00Lh       1     0.425     1.008
   32696       H       1    MUSC   H00Li       1     0.425     1.008
   32697       H       1    MUSC   H00Lj       1     0.425     1.008
   32698       H       1    MUSC   H00Lk       1     0.425     1.008
   32699       H       1    MUSC   H00Ll       1     0.425     1.008
   32700       H       1    MUSC   H00Lm       1     0.425     1.008
   32701       H       1    MUSC   H00Ln       1     0.425     1.008
   32702       H       1    MUSC   H00Lo       1     0.425     1.008
   32703       H       1    MUSC   H00Lp       1     0.425     1.008
   32704       H       1    MUSC   H00Lq       1     0.425     1.008
   32705       H       1    MUSC   H00Lr       1     0.425     1.008
   32706       H       1    MUSC   H00Ls       1     0.425     1.008
   32707       H       1    MUSC   H00Lt       1     0.425     1.008
   32708       H       1    MUSC   H00Lu       1     0.425     1.008
   32709       H       1    MUSC   H00Lv       1     0.425     1.008
   32710       H       1    MUSC   H00Lw       1     0.425     1.008
   32711       H       1    MUSC   H00Lx       1     0.425     1.008
   32712       H       1    MUSC   H00Ly       1     0.425     1.008
   32713       H       1    MUSC   H00Lz       1     0.425     1.008
   32714       H       1    MUSC   H00M0       1     0.425     1.008
   32715       H       1    MUSC   H00M1       1     0.425     1.008
   32716       H       1    MUSC   H00M2       1     0.425     1.008
   32717       H       1    MUSC   H00M3       1     0.425     1.008
   32718       H       1    MUSC   H00M4       1     0.425     1.008
   32719       H       1    MUSC   H00M5       1     0.425     1.008
   32720       H       1    MUSC   H00M6       1     0.425     1.008
   32721       H       1    MUSC   H00M7       1     0.425     1.008
   32722       H       1    MUSC   H00M8       1     0.425     1.008
   32723       H       1    MUSC   H00M9       1     0.425     1.008
   32724       H       1    MUSC   H00MA       1     0.425     1.008
   32725       H       1    MUSC   H00MB       1     0.425     1.008
   32726       H       1    MUSC   H00MC       1     0.425     1.008
   32727       H       1    MUSC   H00MD       1     0.425     1.008
   32728       H       1    MUSC   H00ME       1     0.425     1.008
   32729       H       1    MUSC   H00MF       1     0.425     1.008
   32730       H       1    MUSC   H00MG       1     0.425     1.008
   32731       H       1    MUSC   H00MH       1     0.425     1.008
   32732       H       1    MUSC   H00MI       1     0.425     1.008
   32733       H       1    MUSC   H00MJ       1     0.425     1.008
   32734       H       1    MUSC   H00MK       1     0.425     1.008
   32735       H       1    MUSC   H00ML       1     0.425     1.008
   32736       H       1    MUSC   H00MM       1     0.425     1.008
   32737       H       1    MUSC   H00MN       1     0.425     1.008
   32738       H       1    MUSC   H00MO       1     0.425     1.008
   32739       H       1    MUSC   H00MP       1     0.425     1.008
   32740       H       1    MUSC   H00MQ       1     0.425     1.008
   32741       H       1    MUSC   H00MR       1     0.425     1.008
   32742       H       1    MUSC   H00MS       1     0.425     1.008
   32743       H       1    MUSC   H00MT       1     0.425     1.008
   32744       H       1    MUSC   H00MU       1     0.425     1.008
   32745       H       1    MUSC   H00MV       1     0.425     1.008
   32746       H       1    MUSC   H00MW       1     0.425     1.008
   32747       H       1    MUSC   H00MX       1     0.425     1.008
   32748       H       1    MUSC   H00MY       1     0.425     1.008
   32749       H       1    MUSC   H00MZ       1     0.425     1.008
   32750       H       1    MUSC   H00Ma       1     0.425     1.008
   32751       H       1    MUSC   H00Mb       1     0.425     1.008
   32752       H       1    MUSC   H00Mc       1     0.425     1.008
   32753       H       1    MUSC   H00Md       1     0.425     1.008
   32754       H       1    MUSC   H00Me       1     0.425     1.008
   32755       H       1    MUSC   H00Mf       1     0.425     1.008
   32756       H       1    MUSC   H00Mg       1     0.425     1.008
   32757       H       1    MUSC   H00Mh       1     0.425     1.008
   32758       H       1    MUSC   H00Mi       1     0.425     1.008
   32759       H       1    MUSC   H00Mj       1     0.425     1.008
   32760       H       1    MUSC   H00Mk       1     0.425     1.008
   32761       H       1    MUSC   H00Ml       1     0.425     1.008
   32762       H       1    MUSC   H00Mm       1     0.425     1.008
   32763       H       1    MUSC   H00Mn       1     0.425     1.008
   32764       H       1    MUSC   H00Mo       1     0.425     1.008
   32765       H       1    MUSC   H00Mp       1     0.425     1.008
   32766       H       1    MUSC   H00Mq       1     0.425     1.008
   32767       H       1    MUSC   H00Mr       1     0.425     1.008
   32768       H       1    MUSC   H00Ms       1     0.425     1.008
   32769       H       1    MUSC   H00Mt       1     0.425     1.008
   32770       H       1    MUSC   H00Mu       1     0.425     1.008
   32771       H       1    MUSC   H00Mv       1     0.425     1.008
   32772       H       1    MUSC   H00Mw       1     0.425     1.008
   32773       H       1    MUSC   H00Mx       1     0.425     1.008
   32774       H       1    MUSC   H00My       1     0.425     1.008
   32775       H       1    MUSC   H00Mz       1     0.425     1.008
   32776       H       1    MUSC   H00N0       1     0.425     1.008
   32777       H       1    MUSC   H00N1       1     0.425     1.008
   32778       H       1    MUSC   H00N2       1     0.425     1.008
   32779       H       1    MUSC   H00N3       1     0.425     1.008
   32780       H       1    MUSC   H00N4       1     0.425     1.008
   32781       H       1    MUSC   H00N5       1     0.425     1.008
   32782       H       1    MUSC   H00N6       1     0.425     1.008
   32783       H       1    MUSC   H00N7       1     0.425     1.008
   32784       H       1    MUSC   H00N8       1     0.425     1.008
   32785       H       1    MUSC   H00N9       1     0.425     1.008
   32786       H       1    MUSC   H00NA       1     0.425     1.008
   32787       H       1    MUSC   H00NB       1     0.425     1.008
   32788       H       1    MUSC   H00NC       1     0.425     1.008
   32789       H       1    MUSC   H00ND       1     0.425     1.008
   32790       H       1    MUSC   H00NE       1     0.425     1.008
   32791       H       1    MUSC   H00NF       1     0.425     1.008
   32792       H       1    MUSC   H00NG       1     0.425     1.008
   32793       H       1    MUSC   H00NH       1     0.425     1.008
   32794       H       1    MUSC   H00NI       1     0.425     1.008
   32795       H       1    MUSC   H00NJ       1     0.425     1.008
   32796       H       1    MUSC   H00NK       1     0.425     1.008
   32797       H       1    MUSC   H00NL       1     0.425     1.008
   32798       H       1    MUSC   H00NM       1     0.425     1.008
   32799       H       1    MUSC   H00NN       1     0.425     1.008
   32800       H       1    MUSC   H00NO       1     0.425     1.008
   32801       H       1    MUSC   H00NP       1     0.425     1.008
   32802       H       1    MUSC   H00NQ       1     0.425     1.008
   32803       H       1    MUSC   H00NR       1     0.425     1.008
   32804       H       1    MUSC   H00NS       1     0.425     1.008
   32805       H       1    MUSC   H00NT       1     0.425     1.008
   32806       H       1    MUSC   H00NU       1     0.425     1.008
   32807       H       1    MUSC   H00NV       1     0.425     1.008
   32808       H       1    MUSC   H00NW       1     0.425     1.008
   32809       H       1    MUSC   H00NX       1     0.425     1.008
   32810       H       1    MUSC   H00NY       1     0.425     1.008
   32811       H       1    MUSC   H00NZ       1     0.425     1.008
   32812       H       1    MUSC   H00Na       1     0.425     1.008
   32813       H       1    MUSC   H00Nb       1     0.425     1.008
   32814       H       1    MUSC   H00Nc       1     0.425     1.008
   32815       H       1    MUSC   H00Nd       1     0.425     1.008
   32816       H       1    MUSC   H00Ne       1     0.425     1.008
   32817       H       1    MUSC   H00Nf       1     0.425     1.008
   32818       H       1    MUSC   H00Ng       1     0.425     1.008
   32819       H       1    MUSC   H00Nh       1     0.425     1.008
   32820       H       1    MUSC   H00Ni       1     0.425     1.008
   32821       H       1    MUSC   H00Nj       1     0.425     1.008
   32822       H       1    MUSC   H00Nk       1     0.425     1.008
   32823       H       1    MUSC   H00Nl       1     0.425     1.008
   32824       H       1    MUSC   H00Nm       1     0.425     1.008
   32825       H       1    MUSC   H00Nn       1     0.425     1.008
   32826       H       1    MUSC   H00No       1     0.425     1.008
   32827       H       1    MUSC   H00Np       1     0.425     1.008
   32828       H       1    MUSC   H00Nq       1     0.425     1.008
   32829       H       1    MUSC   H00Nr       1     0.425     1.008
   32830       H       1    MUSC   H00Ns       1     0.425     1.008
   32831       H       1    MUSC   H00Nt       1     0.425     1.008
   32832       H       1    MUSC   H00Nu       1     0.425     1.008
   32833       H       1    MUSC   H00Nv       1     0.425     1.008
   32834       H       1    MUSC   H00Nw       1     0.425     1.008
   32835       H       1    MUSC   H00Nx       1     0.425     1.008
   32836       H       1    MUSC   H00Ny       1     0.425     1.008
   32837       H       1    MUSC   H00Nz       1     0.425     1.008
   32838       H       1    MUSC   H00O0       1     0.425     1.008
   32839       H       1    MUSC   H00O1       1     0.425     1.008
   32840       H       1    MUSC   H00O2       1     0.425     1.008
   32841       H       1    MUSC   H00O3       1     0.425     1.008
   32842       H       1    MUSC   H00O4       1     0.425     1.008
   32843       H       1    MUSC   H00O5       1     0.425     1.008
   32844       H       1    MUSC   H00O6       1     0.425     1.008
   32845       H       1    MUSC   H00O7       1     0.425     1.008
   32846       H       1    MUSC   H00O8       1     0.425     1.008
   32847       H       1    MUSC   H00O9       1     0.425     1.008
   32848       H       1    MUSC   H00OA       1     0.425     1.008
   32849       H       1    MUSC   H00OB       1     0.425     1.008
   32850       H       1    MUSC   H00OC       1     0.425     1.008
   32851       H       1    MUSC   H00OD       1     0.425     1.008
   32852       H       1    MUSC   H00OE       1     0.425     1.008
   32853       H       1    MUSC   H00OF       1     0.425     1.008
   32854       H       1    MUSC   H00OG       1     0.425     1.008
   32855       H       1    MUSC   H00OH       1     0.425     1.008
   32856       H       1    MUSC   H00OI       1     0.425     1.008
   32857       H       1    MUSC   H00OJ       1     0.425     1.008
   32858       H       1    MUSC   H00OK       1     0.425     1.008
   32859       H       1    MUSC   H00OL       1     0.425     1.008
   32860       H       1    MUSC   H00OM       1     0.425     1.008
   32861       H       1    MUSC   H00ON       1     0.425     1.008
   32862       H       1    MUSC   H00OO       1     0.425     1.008
   32863       H       1    MUSC   H00OP       1     0.425     1.008
   32864       H       1    MUSC   H00OQ       1     0.425     1.008
   32865       H       1    MUSC   H00OR       1     0.425     1.008
   32866       H       1    MUSC   H00OS       1     0.425     1.008
   32867       H       1    MUSC   H00OT       1     0.425     1.008
   32868       H       1    MUSC   H00OU       1     0.425     1.008
   32869       H       1    MUSC   H00OV       1     0.425     1.008
   32870       H       1    MUSC   H00OW       1     0.425     1.008
   32871       H       1    MUSC   H00OX       1     0.425     1.008
   32872       H       1    MUSC   H00OY       1     0.425     1.008
   32873       H       1    MUSC   H00OZ       1     0.425     1.008
   32874       H       1    MUSC   H00Oa       1     0.425     1.008
   32875       H       1    MUSC   H00Ob       1     0.425     1.008
   32876       H       1    MUSC   H00Oc       1     0.425     1.008
   32877       H       1    MUSC   H00Od       1     0.425     1.008
   32878       H       1    MUSC   H00Oe       1     0.425     1.008
   32879       H       1    MUSC   H00Of       1     0.425     1.008
   32880       H       1    MUSC   H00Og       1     0.425     1.008
   32881       H       1    MUSC   H00Oh       1     0.425     1.008
   32882       H       1    MUSC   H00Oi       1     0.425     1.008
   32883       H       1    MUSC   H00Oj       1     0.425     1.008
   32884       H       1    MUSC   H00Ok       1     0.425     1.008
   32885       H       1    MUSC   H00Ol       1     0.425     1.008
   32886       H       1    MUSC   H00Om       1     0.425     1.008
   32887       H       1    MUSC   H00On       1     0.425     1.008
   32888       H       1    MUSC   H00Oo       1     0.425     1.008
   32889       H       1    MUSC   H00Op       1     0.425     1.008
   32890       H       1    MUSC   H00Oq       1     0.425     1.008
   32891       H       1    MUSC   H00Or       1     0.425     1.008
   32892       H       1    MUSC   H00Os       1     0.425     1.008
   32893       H       1    MUSC   H00Ot       1     0.425     1.008
   32894       H       1    MUSC   H00Ou       1     0.425     1.008
   32895       H       1    MUSC   H00Ov       1     0.425     1.008
   32896       H       1    MUSC   H00Ow       1     0.425     1.008
   32897       H       1    MUSC   H00Ox       1     0.425     1.008
   32898       H       1    MUSC   H00Oy       1     0.425     1.008
   32899       H       1    MUSC   H00Oz       1     0.425     1.008
   32900       H       1    MUSC   H00P0       1     0.425     1.008
   32901       H       1    MUSC   H00P1       1     0.425     1.008
   32902       H       1    MUSC   H00P2       1     0.425     1.008
   32903       H       1    MUSC   H00P3       1     0.425     1.008
   32904       H       1    MUSC   H00P4       1     0.425     1.008
   32905       H       1    MUSC   H00P5       1     0.425     1.008
   32906       H       1    MUSC   H00P6       1     0.425     1.008
   32907       H       1    MUSC   H00P7       1     0.425     1.008
   32908       H       1    MUSC   H00P8       1     0.425     1.008
   32909       H       1    MUSC   H00P9       1     0.425     1.008
   32910       H       1    MUSC   H00PA       1     0.425     1.008
   32911       H       1    MUSC   H00PB       1     0.425     1.008
   32912       H       1    MUSC   H00PC       1     0.425     1.008
   32913       H       1    MUSC   H00PD       1     0.425     1.008
   32914       H       1    MUSC   H00PE       1     0.425     1.008
   32915       H       1    MUSC   H00PF       1     0.425     1.008
   32916       H       1    MUSC   H00PG       1     0.425     1.008
   32917       H       1    MUSC   H00PH       1     0.425     1.008
   32918       H       1    MUSC   H00PI       1     0.425     1.008
   32919       H       1    MUSC   H00PJ       1     0.425     1.008
   32920       H       1    MUSC   H00PK       1     0.425     1.008
   32921       H       1    MUSC   H00PL       1     0.425     1.008
   32922       H       1    MUSC   H00PM       1     0.425     1.008
   32923       H       1    MUSC   H00PN       1     0.425     1.008
   32924       H       1    MUSC   H00PO       1     0.425     1.008
   32925       H       1    MUSC   H00PP       1     0.425     1.008
   32926       H       1    MUSC   H00PQ       1     0.425     1.008
   32927       H       1    MUSC   H00PR       1     0.425     1.008
   32928       H       1    MUSC   H00PS       1     0.425     1.008
   32929       H       1    MUSC   H00PT       1     0.425     1.008
   32930       H       1    MUSC   H00PU       1     0.425     1.008
   32931       H       1    MUSC   H00PV       1     0.425     1.008
   32932       H       1    MUSC   H00PW       1     0.425     1.008
   32933       H       1    MUSC   H00PX       1     0.425     1.008
   32934       H       1    MUSC   H00PY       1     0.425     1.008
   32935       H       1    MUSC   H00PZ       1     0.425     1.008
   32936       H       1    MUSC   H00Pa       1     0.425     1.008
   32937       H       1    MUSC   H00Pb       1     0.425     1.008
   32938       H       1    MUSC   H00Pc       1     0.425     1.008
   32939       H       1    MUSC   H00Pd       1     0.425     1.008
   32940       H       1    MUSC   H00Pe       1     0.425     1.008
   32941       H       1    MUSC   H00Pf       1     0.425     1.008
   32942       H       1    MUSC   H00Pg       1     0.425     1.008
   32943       H       1    MUSC   H00Ph       1     0.425     1.008
   32944       H       1    MUSC   H00Pi       1     0.425     1.008
   32945       H       1    MUSC   H00Pj       1     0.425     1.008
   32946       H       1    MUSC   H00Pk       1     0.425     1.008
   32947       H       1    MUSC   H00Pl       1     0.425     1.008
   32948       H       1    MUSC   H00Pm       1     0.425     1.008
   32949       H       1    MUSC   H00Pn       1     0.425     1.008
   32950       H       1    MUSC   H00Po       1     0.425     1.008
   32951       H       1    MUSC   H00Pp       1     0.425     1.008
   32952       H       1    MUSC   H00Pq       1     0.425     1.008
   32953       H       1    MUSC   H00Pr       1     0.425     1.008
   32954       H       1    MUSC   H00Ps       1     0.425     1.008
   32955       H       1    MUSC   H00Pt       1     0.425     1.008
   32956       H       1    MUSC   H00Pu       1     0.425     1.008
   32957       H       1    MUSC   H00Pv       1     0.425     1.008
   32958       H       1    MUSC   H00Pw       1     0.425     1.008
   32959       H       1    MUSC   H00Px       1     0.425     1.008
   32960       H       1    MUSC   H00Py       1     0.425     1.008
   32961       H       1    MUSC   H00Pz       1     0.425     1.008
   32962       H       1    MUSC   H00Q0       1     0.425     1.008
   32963       H       1    MUSC   H00Q1       1     0.425     1.008
   32964       H       1    MUSC   H00Q2       1     0.425     1.008
   32965       H       1    MUSC   H00Q3       1     0.425     1.008
   32966       H       1    MUSC   H00Q4       1     0.425     1.008
   32967       H       1    MUSC   H00Q5       1     0.425     1.008
   32968       H       1    MUSC   H00Q6       1     0.425     1.008
   32969       H       1    MUSC   H00Q7       1     0.425     1.008
   32970       H       1    MUSC   H00Q8       1     0.425     1.008
   32971       H       1    MUSC   H00Q9       1     0.425     1.008
   32972       H       1    MUSC   H00QA       1     0.425     1.008
   32973       H       1    MUSC   H00QB       1     0.425     1.008
   32974       H       1    MUSC   H00QC       1     0.425     1.008
   32975       H       1    MUSC   H00QD       1     0.425     1.008
   32976       H       1    MUSC   H00QE       1     0.425     1.008
   32977       H       1    MUSC   H00QF       1     0.425     1.008
   32978       H       1    MUSC   H00QG       1     0.425     1.008
   32979       H       1    MUSC   H00QH       1     0.425     1.008
   32980       H       1    MUSC   H00QI       1     0.425     1.008
   32981       H       1    MUSC   H00QJ       1     0.425     1.008
   32982       H       1    MUSC   H00QK       1     0.425     1.008
   32983       H       1    MUSC   H00QL       1     0.425     1.008
   32984       H       1    MUSC   H00QM       1     0.425     1.008
   32985       H       1    MUSC   H00QN       1     0.425     1.008
   32986       H       1    MUSC   H00QO       1     0.425     1.008
   32987       H       1    MUSC   H00QP       1     0.425     1.008
   32988       H       1    MUSC   H00QQ       1     0.425     1.008
   32989       H       1    MUSC   H00QR       1     0.425     1.008
   32990       H       1    MUSC   H00QS       1     0.425     1.008
   32991       H       1    MUSC   H00QT       1     0.425     1.008
   32992       H       1    MUSC   H00QU       1     0.425     1.008
   32993       H       1    MUSC   H00QV       1     0.425     1.008
   32994       H       1    MUSC   H00QW       1     0.425     1.008
   32995       H       1    MUSC   H00QX       1     0.425     1.008
   32996       H       1    MUSC   H00QY       1     0.425     1.008
   32997       H       1    MUSC   H00QZ       1     0.425     1.008
   32998       H       1    MUSC   H00Qa       1     0.425     1.008
   32999       H       1    MUSC   H00Qb       1     0.425     1.008
   33000       H       1    MUSC   H00Qc       1     0.425     1.008
   33001       H       1    MUSC   H00Qd       1     0.425     1.008
   33002       H       1    MUSC   H00Qe       1     0.425     1.008
   33003       H       1    MUSC   H00Qf       1     0.425     1.008
   33004       H       1    MUSC   H00Qg       1     0.425     1.008
   33005       H       1    MUSC   H00Qh       1     0.425     1.008
   33006       H       1    MUSC   H00Qi       1     0.425     1.008
   33007       H       1    MUSC   H00Qj       1     0.425     1.008
   33008       H       1    MUSC   H00Qk       1     0.425     1.008
   33009       H       1    MUSC   H00Ql       1     0.425     1.008
   33010       H       1    MUSC   H00Qm       1     0.425     1.008
   33011       H       1    MUSC   H00Qn       1     0.425     1.008
   33012       H       1    MUSC   H00Qo       1     0.425     1.008
   33013       H       1    MUSC   H00Qp       1     0.425     1.008
   33014       H       1    MUSC   H00Qq       1     0.425     1.008
   33015       H       1    MUSC   H00Qr       1     0.425     1.008
   33016       H       1    MUSC   H00Qs       1     0.425     1.008
   33017       H       1    MUSC   H00Qt       1     0.425     1.008
   33018       H       1    MUSC   H00Qu       1     0.425     1.008
   33019       H       1    MUSC   H00Qv       1     0.425     1.008
   33020       H       1    MUSC   H00Qw       1     0.425     1.008
   33021       H       1    MUSC   H00Qx       1     0.425     1.008
   33022       H       1    MUSC   H00Qy       1     0.425     1.008
   33023       H       1    MUSC   H00Qz       1     0.425     1.008
   33024       H       1    MUSC   H00R0       1     0.425     1.008
   33025       H       1    MUSC   H00R1       1     0.425     1.008
   33026       H       1    MUSC   H00R2       1     0.425     1.008
   33027       H       1    MUSC   H00R3       1     0.425     1.008
   33028       H       1    MUSC   H00R4       1     0.425     1.008
   33029       H       1    MUSC   H00R5       1     0.425     1.008
   33030       H       1    MUSC   H00R6       1     0.425     1.008
   33031       H       1    MUSC   H00R7       1     0.425     1.008
   33032       H       1    MUSC   H00R8       1     0.425     1.008
   33033       H       1    MUSC   H00R9       1     0.425     1.008
   33034       H       1    MUSC   H00RA       1     0.425     1.008
   33035       H       1    MUSC   H00RB       1     0.425     1.008
   33036       H       1    MUSC   H00RC       1     0.425     1.008
   33037       H       1    MUSC   H00RD       1     0.425     1.008
   33038       H       1    MUSC   H00RE       1     0.425     1.008
   33039       H       1    MUSC   H00RF       1     0.425     1.008
   33040       H       1    MUSC   H00RG       1     0.425     1.008
   33041       H       1    MUSC   H00RH       1     0.425     1.008
   33042       H       1    MUSC   H00RI       1     0.425     1.008
   33043       H       1    MUSC   H00RJ       1     0.425     1.008
   33044       H       1    MUSC   H00RK       1     0.425     1.008
   33045       H       1    MUSC   H00RL       1     0.425     1.008
   33046       H       1    MUSC   H00RM       1     0.425     1.008
   33047       H       1    MUSC   H00RN       1     0.425     1.008
   33048       H       1    MUSC   H00RO       1     0.425     1.008
   33049       H       1    MUSC   H00RP       1     0.425     1.008
   33050       H       1    MUSC   H00RQ       1     0.425     1.008
   33051       H       1    MUSC   H00RR       1     0.425     1.008
   33052       H       1    MUSC   H00RS       1     0.425     1.008
   33053       H       1    MUSC   H00RT       1     0.425     1.008
   33054       H       1    MUSC   H00RU       1     0.425     1.008
   33055       H       1    MUSC   H00RV       1     0.425     1.008
   33056       H       1    MUSC   H00RW       1     0.425     1.008
   33057       H       1    MUSC   H00RX       1     0.425     1.008
   33058       H       1    MUSC   H00RY       1     0.425     1.008
   33059       H       1    MUSC   H00RZ       1     0.425     1.008
   33060       H       1    MUSC   H00Ra       1     0.425     1.008
   33061       H       1    MUSC   H00Rb       1     0.425     1.008
   33062       H       1    MUSC   H00Rc       1     0.425     1.008
   33063       H       1    MUSC   H00Rd       1     0.425     1.008
   33064       H       1    MUSC   H00Re       1     0.425     1.008
   33065       H       1    MUSC   H00Rf       1     0.425     1.008
   33066       H       1    MUSC   H00Rg       1     0.425     1.008
   33067       H       1    MUSC   H00Rh       1     0.425     1.008
   33068       H       1    MUSC   H00Ri       1     0.425     1.008
   33069       H       1    MUSC   H00Rj       1     0.425     1.008
   33070       H       1    MUSC   H00Rk       1     0.425     1.008
   33071       H       1    MUSC   H00Rl       1     0.425     1.008
   33072       H       1    MUSC   H00Rm       1     0.425     1.008
   33073       H       1    MUSC   H00Rn       1     0.425     1.008
   33074       H       1    MUSC   H00Ro       1     0.425     1.008
   33075       H       1    MUSC   H00Rp       1     0.425     1.008
   33076       H       1    MUSC   H00Rq       1     0.425     1.008
   33077       H       1    MUSC   H00Rr       1     0.425     1.008
   33078       H       1    MUSC   H00Rs       1     0.425     1.008
   33079       H       1    MUSC   H00Rt       1     0.425     1.008
   33080       H       1    MUSC   H00Ru       1     0.425     1.008
   33081       H       1    MUSC   H00Rv       1     0.425     1.008
   33082       H       1    MUSC   H00Rw       1     0.425     1.008
   33083       H       1    MUSC   H00Rx       1     0.425     1.008
   33084       H       1    MUSC   H00Ry       1     0.425     1.008
   33085       H       1    MUSC   H00Rz       1     0.425     1.008
   33086       H       1    MUSC   H00S0       1     0.425     1.008
   33087       H       1    MUSC   H00S1       1     0.425     1.008
   33088       H       1    MUSC   H00S2       1     0.425     1.008
   33089       H       1    MUSC   H00S3       1     0.425     1.008
   33090       H       1    MUSC   H00S4       1     0.425     1.008
   33091       H       1    MUSC   H00S5       1     0.425     1.008
   33092       H       1    MUSC   H00S6       1     0.425     1.008
   33093       H       1    MUSC   H00S7       1     0.425     1.008
   33094       H       1    MUSC   H00S8       1     0.425     1.008
   33095       H       1    MUSC   H00S9       1     0.425     1.008
   33096       H       1    MUSC   H00SA       1     0.425     1.008
   33097       H       1    MUSC   H00SB       1     0.425     1.008
   33098       H       1    MUSC   H00SC       1     0.425     1.008
   33099       H       1    MUSC   H00SD       1     0.425     1.008
   33100       H       1    MUSC   H00SE       1     0.425     1.008
   33101       H       1    MUSC   H00SF       1     0.425     1.008
   33102       H       1    MUSC   H00SG       1     0.425     1.008
   33103       H       1    MUSC   H00SH       1     0.425     1.008
   33104       H       1    MUSC   H00SI       1     0.425     1.008
   33105       H       1    MUSC   H00SJ       1     0.425     1.008
   33106       H       1    MUSC   H00SK       1     0.425     1.008
   33107       H       1    MUSC   H00SL       1     0.425     1.008
   33108       H       1    MUSC   H00SM       1     0.425     1.008
   33109       H       1    MUSC   H00SN       1     0.425     1.008
   33110       H       1    MUSC   H00SO       1     0.425     1.008
   33111       H       1    MUSC   H00SP       1     0.425     1.008
   33112       H       1    MUSC   H00SQ       1     0.425     1.008
   33113       H       1    MUSC   H00SR       1     0.425     1.008
   33114       H       1    MUSC   H00SS       1     0.425     1.008
   33115       H       1    MUSC   H00ST       1     0.425     1.008
   33116       H       1    MUSC   H00SU       1     0.425     1.008
   33117       H       1    MUSC   H00SV       1     0.425     1.008
   33118       H       1    MUSC   H00SW       1     0.425     1.008
   33119       H       1    MUSC   H00SX       1     0.425     1.008
   33120       H       1    MUSC   H00SY       1     0.425     1.008
   33121       H       1    MUSC   H00SZ       1     0.425     1.008
   33122       H       1    MUSC   H00Sa       1     0.425     1.008
   33123       H       1    MUSC   H00Sb       1     0.425     1.008
   33124       H       1    MUSC   H00Sc       1     0.425     1.008
   33125       H       1    MUSC   H00Sd       1     0.425     1.008
   33126       H       1    MUSC   H00Se       1     0.425     1.008
   33127       H       1    MUSC   H00Sf       1     0.425     1.008
   33128       H       1    MUSC   H00Sg       1     0.425     1.008
   33129       H       1    MUSC   H00Sh       1     0.425     1.008
   33130       H       1    MUSC   H00Si       1     0.425     1.008
   33131       H       1    MUSC   H00Sj       1     0.425     1.008
   33132       H       1    MUSC   H00Sk       1     0.425     1.008
   33133       H       1    MUSC   H00Sl       1     0.425     1.008
   33134       H       1    MUSC   H00Sm       1     0.425     1.008
   33135       H       1    MUSC   H00Sn       1     0.425     1.008
   33136       H       1    MUSC   H00So       1     0.425     1.008
   33137       H       1    MUSC   H00Sp       1     0.425     1.008
   33138       H       1    MUSC   H00Sq       1     0.425     1.008
   33139       H       1    MUSC   H00Sr       1     0.425     1.008
   33140       H       1    MUSC   H00Ss       1     0.425     1.008
   33141       H       1    MUSC   H00St       1     0.425     1.008
   33142       H       1    MUSC   H00Su       1     0.425     1.008
   33143       H       1    MUSC   H00Sv       1     0.425     1.008
   33144       H       1    MUSC   H00Sw       1     0.425     1.008
   33145       H       1    MUSC   H00Sx       1     0.425     1.008
   33146       H       1    MUSC   H00Sy       1     0.425     1.008
   33147       H       1    MUSC   H00Sz       1     0.425     1.008
   33148       H       1    MUSC   H00T0       1     0.425     1.008
   33149       H       1    MUSC   H00T1       1     0.425     1.008
   33150       H       1    MUSC   H00T2       1     0.425     1.008
   33151       H       1    MUSC   H00T3       1     0.425     1.008
   33152       H       1    MUSC   H00T4       1     0.425     1.008
   33153       H       1    MUSC   H00T5       1     0.425     1.008
   33154       H       1    MUSC   H00T6       1     0.425     1.008
   33155       H       1    MUSC   H00T7       1     0.425     1.008
   33156       H       1    MUSC   H00T8       1     0.425     1.008
   33157       H       1    MUSC   H00T9       1     0.425     1.008
   33158       H       1    MUSC   H00TA       1     0.425     1.008
   33159       H       1    MUSC   H00TB       1     0.425     1.008
   33160       H       1    MUSC   H00TC       1     0.425     1.008
   33161       H       1    MUSC   H00TD       1     0.425     1.008
   33162       H       1    MUSC   H00TE       1     0.425     1.008
   33163       H       1    MUSC   H00TF       1     0.425     1.008
   33164       H       1    MUSC   H00TG       1     0.425     1.008
   33165       H       1    MUSC   H00TH       1     0.425     1.008
   33166       H       1    MUSC   H00TI       1     0.425     1.008
   33167       H       1    MUSC   H00TJ       1     0.425     1.008
   33168       H       1    MUSC   H00TK       1     0.425     1.008
   33169       H       1    MUSC   H00TL       1     0.425     1.008
   33170       H       1    MUSC   H00TM       1     0.425     1.008
   33171       H       1    MUSC   H00TN       1     0.425     1.008
   33172       H       1    MUSC   H00TO       1     0.425     1.008
   33173       H       1    MUSC   H00TP       1     0.425     1.008
   33174       H       1    MUSC   H00TQ       1     0.425     1.008
   33175       H       1    MUSC   H00TR       1     0.425     1.008
   33176       H       1    MUSC   H00TS       1     0.425     1.008
   33177       H       1    MUSC   H00TT       1     0.425     1.008
   33178       H       1    MUSC   H00TU       1     0.425     1.008
   33179       H       1    MUSC   H00TV       1     0.425     1.008
   33180       H       1    MUSC   H00TW       1     0.425     1.008
   33181       H       1    MUSC   H00TX       1     0.425     1.008
   33182       H       1    MUSC   H00TY       1     0.425     1.008
   33183       H       1    MUSC   H00TZ       1     0.425     1.008
   33184       H       1    MUSC   H00Ta       1     0.425     1.008
   33185       H       1    MUSC   H00Tb       1     0.425     1.008
   33186       H       1    MUSC   H00Tc       1     0.425     1.008
   33187       H       1    MUSC   H00Td       1     0.425     1.008
   33188       H       1    MUSC   H00Te       1     0.425     1.008
   33189       H       1    MUSC   H00Tf       1     0.425     1.008
   33190       H       1    MUSC   H00Tg       1     0.425     1.008
   33191       H       1    MUSC   H00Th       1     0.425     1.008
   33192       H       1    MUSC   H00Ti       1     0.425     1.008
   33193       H       1    MUSC   H00Tj       1     0.425     1.008
   33194       H       1    MUSC   H00Tk       1     0.425     1.008
   33195       H       1    MUSC   H00Tl       1     0.425     1.008
   33196       H       1    MUSC   H00Tm       1     0.425     1.008
   33197       H       1    MUSC   H00Tn       1     0.425     1.008
   33198       H       1    MUSC   H00To       1     0.425     1.008
   33199       H       1    MUSC   H00Tp       1     0.425     1.008
   33200       H       1    MUSC   H00Tq       1     0.425     1.008
   33201       H       1    MUSC   H00Tr       1     0.425     1.008
   33202       H       1    MUSC   H00Ts       1     0.425     1.008
   33203       H       1    MUSC   H00Tt       1     0.425     1.008
   33204       H       1    MUSC   H00Tu       1     0.425     1.008
   33205       H       1    MUSC   H00Tv       1     0.425     1.008
   33206       H       1    MUSC   H00Tw       1     0.425     1.008
   33207       H       1    MUSC   H00Tx       1     0.425     1.008
   33208       H       1    MUSC   H00Ty       1     0.425     1.008
   33209       H       1    MUSC   H00Tz       1     0.425     1.008
   33210       H       1    MUSC   H00U0       1     0.425     1.008
   33211       H       1    MUSC   H00U1       1     0.425     1.008
   33212       H       1    MUSC   H00U2       1     0.425     1.008
   33213       H       1    MUSC   H00U3       1     0.425     1.008
   33214       H       1    MUSC   H00U4       1     0.425     1.008
   33215       H       1    MUSC   H00U5       1     0.425     1.008
   33216       H       1    MUSC   H00U6       1     0.425     1.008
   33217       H       1    MUSC   H00U7       1     0.425     1.008
   33218       H       1    MUSC   H00U8       1     0.425     1.008
   33219       H       1    MUSC   H00U9       1     0.425     1.008
   33220       H       1    MUSC   H00UA       1     0.425     1.008
   33221       H       1    MUSC   H00UB       1     0.425     1.008
   33222       H       1    MUSC   H00UC       1     0.425     1.008
   33223       H       1    MUSC   H00UD       1     0.425     1.008
   33224       H       1    MUSC   H00UE       1     0.425     1.008
   33225       H       1    MUSC   H00UF       1     0.425     1.008
   33226       H       1    MUSC   H00UG       1     0.425     1.008
   33227       H       1    MUSC   H00UH       1     0.425     1.008
   33228       H       1    MUSC   H00UI       1     0.425     1.008
   33229       H       1    MUSC   H00UJ       1     0.425     1.008
   33230       H       1    MUSC   H00UK       1     0.425     1.008
   33231       H       1    MUSC   H00UL       1     0.425     1.008
   33232       H       1    MUSC   H00UM       1     0.425     1.008
   33233       H       1    MUSC   H00UN       1     0.425     1.008
   33234       H       1    MUSC   H00UO       1     0.425     1.008
   33235       H       1    MUSC   H00UP       1     0.425     1.008
   33236       H       1    MUSC   H00UQ       1     0.425     1.008
   33237       H       1    MUSC   H00UR       1     0.425     1.008
   33238       H       1    MUSC   H00US       1     0.425     1.008
   33239       H       1    MUSC   H00UT       1     0.425     1.008
   33240       H       1    MUSC   H00UU       1     0.425     1.008
   33241       H       1    MUSC   H00UV       1     0.425     1.008
   33242       H       1    MUSC   H00UW       1     0.425     1.008
   33243       H       1    MUSC   H00UX       1     0.425     1.008
   33244       H       1    MUSC   H00UY       1     0.425     1.008
   33245       H       1    MUSC   H00UZ       1     0.425     1.008
   33246       H       1    MUSC   H00Ua       1     0.425     1.008
   33247       H       1    MUSC   H00Ub       1     0.425     1.008
   33248       H       1    MUSC   H00Uc       1     0.425     1.008
   33249       H       1    MUSC   H00Ud       1     0.425     1.008
   33250       H       1    MUSC   H00Ue       1     0.425     1.008
   33251       H       1    MUSC   H00Uf       1     0.425     1.008
   33252       H       1    MUSC   H00Ug       1     0.425     1.008
   33253       H       1    MUSC   H00Uh       1     0.425     1.008
   33254       H       1    MUSC   H00Ui       1     0.425     1.008
   33255       H       1    MUSC   H00Uj       1     0.425     1.008
   33256       H       1    MUSC   H00Uk       1     0.425     1.008
   33257       H       1    MUSC   H00Ul       1     0.425     1.008
   33258       H       1    MUSC   H00Um       1     0.425     1.008
   33259       H       1    MUSC   H00Un       1     0.425     1.008
   33260       H       1    MUSC   H00Uo       1     0.425     1.008
   33261       H       1    MUSC   H00Up       1     0.425     1.008
   33262       H       1    MUSC   H00Uq       1     0.425     1.008
   33263       H       1    MUSC   H00Ur       1     0.425     1.008
   33264       H       1    MUSC   H00Us       1     0.425     1.008
   33265       H       1    MUSC   H00Ut       1     0.425     1.008
   33266       H       1    MUSC   H00Uu       1     0.425     1.008
   33267       H       1    MUSC   H00Uv       1     0.425     1.008
   33268       H       1    MUSC   H00Uw       1     0.425     1.008
   33269       H       1    MUSC   H00Ux       1     0.425     1.008
   33270       H       1    MUSC   H00Uy       1     0.425     1.008
   33271       H       1    MUSC   H00Uz       1     0.425     1.008
   33272       H       1    MUSC   H00V0       1     0.425     1.008
   33273       H       1    MUSC   H00V1       1     0.425     1.008
   33274       H       1    MUSC   H00V2       1     0.425     1.008
   33275       H       1    MUSC   H00V3       1     0.425     1.008
   33276       H       1    MUSC   H00V4       1     0.425     1.008
   33277       H       1    MUSC   H00V5       1     0.425     1.008
   33278       H       1    MUSC   H00V6       1     0.425     1.008
   33279       H       1    MUSC   H00V7       1     0.425     1.008
   33280       H       1    MUSC   H00V8       1     0.425     1.008
   33281       H       1    MUSC   H00V9       1     0.425     1.008
   33282       H       1    MUSC   H00VA       1     0.425     1.008
   33283       H       1    MUSC   H00VB       1     0.425     1.008
   33284       H       1    MUSC   H00VC       1     0.425     1.008
   33285       H       1    MUSC   H00VD       1     0.425     1.008
   33286       H       1    MUSC   H00VE       1     0.425     1.008
   33287       H       1    MUSC   H00VF       1     0.425     1.008
   33288       H       1    MUSC   H00VG       1     0.425     1.008
   33289       H       1    MUSC   H00VH       1     0.425     1.008
   33290       H       1    MUSC   H00VI       1     0.425     1.008
   33291       H       1    MUSC   H00VJ       1     0.425     1.008
   33292       H       1    MUSC   H00VK       1     0.425     1.008
   33293       H       1    MUSC   H00VL       1     0.425     1.008
   33294       H       1    MUSC   H00VM       1     0.425     1.008
   33295       H       1    MUSC   H00VN       1     0.425     1.008
   33296       H       1    MUSC   H00VO       1     0.425     1.008
   33297       H       1    MUSC   H00VP       1     0.425     1.008
   33298       H       1    MUSC   H00VQ       1     0.425     1.008
   33299       H       1    MUSC   H00VR       1     0.425     1.008
   33300       H       1    MUSC   H00VS       1     0.425     1.008
   33301       H       1    MUSC   H00VT       1     0.425     1.008
   33302       H       1    MUSC   H00VU       1     0.425     1.008
   33303       H       1    MUSC   H00VV       1     0.425     1.008
   33304       H       1    MUSC   H00VW       1     0.425     1.008
   33305       H       1    MUSC   H00VX       1     0.425     1.008
   33306       H       1    MUSC   H00VY       1     0.425     1.008
   33307       H       1    MUSC   H00VZ       1     0.425     1.008
   33308       H       1    MUSC   H00Va       1     0.425     1.008
   33309       H       1    MUSC   H00Vb       1     0.425     1.008
   33310       H       1    MUSC   H00Vc       1     0.425     1.008
   33311       H       1    MUSC   H00Vd       1     0.425     1.008
   33312       H       1    MUSC   H00Ve       1     0.425     1.008
   33313       H       1    MUSC   H00Vf       1     0.425     1.008
   33314       H       1    MUSC   H00Vg       1     0.425     1.008
   33315       H       1    MUSC   H00Vh       1     0.425     1.008
   33316       H       1    MUSC   H00Vi       1     0.425     1.008
   33317       H       1    MUSC   H00Vj       1     0.425     1.008
   33318       H       1    MUSC   H00Vk       1     0.425     1.008
   33319       H       1    MUSC   H00Vl       1     0.425     1.008
   33320       H       1    MUSC   H00Vm       1     0.425     1.008
   33321       H       1    MUSC   H00Vn       1     0.425     1.008
   33322       H       1    MUSC   H00Vo       1     0.425     1.008
   33323       H       1    MUSC   H00Vp       1     0.425     1.008
   33324       H       1    MUSC   H00Vq       1     0.425     1.008
   33325       H       1    MUSC   H00Vr       1     0.425     1.008
   33326       H       1    MUSC   H00Vs       1     0.425     1.008
   33327       H       1    MUSC   H00Vt       1     0.425     1.008
   33328       H       1    MUSC   H00Vu       1     0.425     1.008
   33329       H       1    MUSC   H00Vv       1     0.425     1.008
   33330       H       1    MUSC   H00Vw       1     0.425     1.008
   33331       H       1    MUSC   H00Vx       1     0.425     1.008
   33332       H       1    MUSC   H00Vy       1     0.425     1.008
   33333       H       1    MUSC   H00Vz       1     0.425     1.008
   33334       H       1    MUSC   H00W0       1     0.425     1.008
   33335       H       1    MUSC   H00W1       1     0.425     1.008
   33336       H       1    MUSC   H00W2       1     0.425     1.008
   33337       H       1    MUSC   H00W3       1     0.425     1.008
   33338       H       1    MUSC   H00W4       1     0.425     1.008
   33339       H       1    MUSC   H00W5       1     0.425     1.008
   33340       H       1    MUSC   H00W6       1     0.425     1.008
   33341       H       1    MUSC   H00W7       1     0.425     1.008
   33342       H       1    MUSC   H00W8       1     0.425     1.008
   33343       H       1    MUSC   H00W9       1     0.425     1.008
   33344       H       1    MUSC   H00WA       1     0.425     1.008
   33345       H       1    MUSC   H00WB       1     0.425     1.008
   33346       H       1    MUSC   H00WC       1     0.425     1.008
   33347       H       1    MUSC   H00WD       1     0.425     1.008
   33348       H       1    MUSC   H00WE       1     0.425     1.008
   33349       H       1    MUSC   H00WF       1     0.425     1.008
   33350       H       1    MUSC   H00WG       1     0.425     1.008
   33351       H       1    MUSC   H00WH       1     0.425     1.008
   33352       H       1    MUSC   H00WI       1     0.425     1.008
   33353       H       1    MUSC   H00WJ       1     0.425     1.008
   33354       H       1    MUSC   H00WK       1     0.425     1.008
   33355       H       1    MUSC   H00WL       1     0.425     1.008
   33356       H       1    MUSC   H00WM       1     0.425     1.008
   33357       H       1    MUSC   H00WN       1     0.425     1.008
   33358       H       1    MUSC   H00WO       1     0.425     1.008
   33359       H       1    MUSC   H00WP       1     0.425     1.008
   33360       H       1    MUSC   H00WQ       1     0.425     1.008
   33361       H       1    MUSC   H00WR       1     0.425     1.008
   33362       H       1    MUSC   H00WS       1     0.425     1.008
   33363       H       1    MUSC   H00WT       1     0.425     1.008
   33364       H       1    MUSC   H00WU       1     0.425     1.008
   33365       H       1    MUSC   H00WV       1     0.425     1.008
   33366       H       1    MUSC   H00WW       1     0.425     1.008
   33367       H       1    MUSC   H00WX       1     0.425     1.008
   33368       H       1    MUSC   H00WY       1     0.425     1.008
   33369       H       1    MUSC   H00WZ       1     0.425     1.008
   33370       H       1    MUSC   H00Wa       1     0.425     1.008
   33371       H       1    MUSC   H00Wb       1     0.425     1.008
   33372       H       1    MUSC   H00Wc       1     0.425     1.008
   33373       H       1    MUSC   H00Wd       1     0.425     1.008
   33374       H       1    MUSC   H00We       1     0.425     1.008
   33375       H       1    MUSC   H00Wf       1     0.425     1.008
   33376       H       1    MUSC   H00Wg       1     0.425     1.008
   33377       H       1    MUSC   H00Wh       1     0.425     1.008
   33378       H       1    MUSC   H00Wi       1     0.425     1.008
   33379       H       1    MUSC   H00Wj       1     0.425     1.008
   33380       H       1    MUSC   H00Wk       1     0.425     1.008
   33381       H       1    MUSC   H00Wl       1     0.425     1.008
   33382       H       1    MUSC   H00Wm       1     0.425     1.008
   33383       H       1    MUSC   H00Wn       1     0.425     1.008
   33384       H       1    MUSC   H00Wo       1     0.425     1.008
   33385       H       1    MUSC   H00Wp       1     0.425     1.008
   33386       H       1    MUSC   H00Wq       1     0.425     1.008
   33387       H       1    MUSC   H00Wr       1     0.425     1.008
   33388       H       1    MUSC   H00Ws       1     0.425     1.008
   33389       H       1    MUSC   H00Wt       1     0.425     1.008
   33390       H       1    MUSC   H00Wu       1     0.425     1.008
   33391       H       1    MUSC   H00Wv       1     0.425     1.008
   33392       H       1    MUSC   H00Ww       1     0.425     1.008
   33393       H       1    MUSC   H00Wx       1     0.425     1.008
   33394       H       1    MUSC   H00Wy       1     0.425     1.008
   33395       H       1    MUSC   H00Wz       1     0.425     1.008
   33396       H       1    MUSC   H00X0       1     0.425     1.008
   33397       H       1    MUSC   H00X1       1     0.425     1.008
   33398       H       1    MUSC   H00X2       1     0.425     1.008
   33399       H       1    MUSC   H00X3       1     0.425     1.008
   33400       H       1    MUSC   H00X4       1     0.425     1.008
   33401       H       1    MUSC   H00X5       1     0.425     1.008
   33402       H       1    MUSC   H00X6       1     0.425     1.008
   33403       H       1    MUSC   H00X7       1     0.425     1.008
   33404       H       1    MUSC   H00X8       1     0.425     1.008
   33405       H       1    MUSC   H00X9       1     0.425     1.008
   33406       H       1    MUSC   H00XA       1     0.425     1.008
   33407       H       1    MUSC   H00XB       1     0.425     1.008
   33408       H       1    MUSC   H00XC       1     0.425     1.008
   33409       H       1    MUSC   H00XD       1     0.425     1.008
   33410       H       1    MUSC   H00XE       1     0.425     1.008
   33411       H       1    MUSC   H00XF       1     0.425     1.008
   33412       H       1    MUSC   H00XG       1     0.425     1.008
   33413       H       1    MUSC   H00XH       1     0.425     1.008
   33414       H       1    MUSC   H00XI       1     0.425     1.008
   33415       H       1    MUSC   H00XJ       1     0.425     1.008
   33416       H       1    MUSC   H00XK       1     0.425     1.008
   33417       H       1    MUSC   H00XL       1     0.425     1.008
   33418       H       1    MUSC   H00XM       1     0.425     1.008
   33419       H       1    MUSC   H00XN       1     0.425     1.008
   33420       H       1    MUSC   H00XO       1     0.425     1.008
   33421       H       1    MUSC   H00XP       1     0.425     1.008
   33422       H       1    MUSC   H00XQ       1     0.425     1.008
   33423       H       1    MUSC   H00XR       1     0.425     1.008
   33424       H       1    MUSC   H00XS       1     0.425     1.008
   33425       H       1    MUSC   H00XT       1     0.425     1.008
   33426       H       1    MUSC   H00XU       1     0.425     1.008
   33427       H       1    MUSC   H00XV       1     0.425     1.008
   33428       H       1    MUSC   H00XW       1     0.425     1.008
   33429       H       1    MUSC   H00XX       1     0.425     1.008
   33430       H       1    MUSC   H00XY       1     0.425     1.008
   33431       H       1    MUSC   H00XZ       1     0.425     1.008
   33432       H       1    MUSC   H00Xa       1     0.425     1.008
   33433       H       1    MUSC   H00Xb       1     0.425     1.008
   33434       H       1    MUSC   H00Xc       1     0.425     1.008
   33435       H       1    MUSC   H00Xd       1     0.425     1.008
   33436       H       1    MUSC   H00Xe       1     0.425     1.008
   33437       H       1    MUSC   H00Xf       1     0.425     1.008
   33438       H       1    MUSC   H00Xg       1     0.425     1.008
   33439       H       1    MUSC   H00Xh       1     0.425     1.008
   33440       H       1    MUSC   H00Xi       1     0.425     1.008
   33441       H       1    MUSC   H00Xj       1     0.425     1.008
   33442       H       1    MUSC   H00Xk       1     0.425     1.008
   33443       H       1    MUSC   H00Xl       1     0.425     1.008
   33444       H       1    MUSC   H00Xm       1     0.425     1.008
   33445       H       1    MUSC   H00Xn       1     0.425     1.008
   33446       H       1    MUSC   H00Xo       1     0.425     1.008
   33447       H       1    MUSC   H00Xp       1     0.425     1.008
   33448       H       1    MUSC   H00Xq       1     0.425     1.008
   33449       H       1    MUSC   H00Xr       1     0.425     1.008
   33450       H       1    MUSC   H00Xs       1     0.425     1.008
   33451       H       1    MUSC   H00Xt       1     0.425     1.008
   33452       H       1    MUSC   H00Xu       1     0.425     1.008
   33453       H       1    MUSC   H00Xv       1     0.425     1.008
   33454       H       1    MUSC   H00Xw       1     0.425     1.008
   33455       H       1    MUSC   H00Xx       1     0.425     1.008
   33456       H       1    MUSC   H00Xy       1     0.425     1.008
   33457       H       1    MUSC   H00Xz       1     0.425     1.008
   33458       H       1    MUSC   H00Y0       1     0.425     1.008
   33459       H       1    MUSC   H00Y1       1     0.425     1.008
   33460       H       1    MUSC   H00Y2       1     0.425     1.008
   33461       H       1    MUSC   H00Y3       1     0.425     1.008
   33462       H       1    MUSC   H00Y4       1     0.425     1.008
   33463       H       1    MUSC   H00Y5       1     0.425     1.008
   33464       H       1    MUSC   H00Y6       1     0.425     1.008
   33465       H       1    MUSC   H00Y7       1     0.425     1.008
   33466       H       1    MUSC   H00Y8       1     0.425     1.008
   33467       H       1    MUSC   H00Y9       1     0.425     1.008
   33468       H       1    MUSC   H00YA       1     0.425     1.008
   33469       H       1    MUSC   H00YB       1     0.425     1.008
   33470       H       1    MUSC   H00YC       1     0.425     1.008
   33471       H       1    MUSC   H00YD       1     0.425     1.008
   33472       H       1    MUSC   H00YE       1     0.425     1.008
   33473       H       1    MUSC   H00YF       1     0.425     1.008
   33474       H       1    MUSC   H00YG       1     0.425     1.008
   33475       H       1    MUSC   H00YH       1     0.425     1.008
   33476       H       1    MUSC   H00YI       1     0.425     1.008
   33477       H       1    MUSC   H00YJ       1     0.425     1.008
   33478       H       1    MUSC   H00YK       1     0.425     1.008
   33479       H       1    MUSC   H00YL       1     0.425     1.008
   33480       H       1    MUSC   H00YM       1     0.425     1.008
   33481       H       1    MUSC   H00YN       1     0.425     1.008
   33482       H       1    MUSC   H00YO       1     0.425     1.008
   33483       H       1    MUSC   H00YP       1     0.425     1.008
   33484       H       1    MUSC   H00YQ       1     0.425     1.008
   33485       H       1    MUSC   H00YR       1     0.425     1.008
   33486       H       1    MUSC   H00YS       1     0.425     1.008
   33487       H       1    MUSC   H00YT       1     0.425     1.008
   33488       H       1    MUSC   H00YU       1     0.425     1.008
   33489       H       1    MUSC   H00YV       1     0.425     1.008
   33490       H       1    MUSC   H00YW       1     0.425     1.008
   33491       H       1    MUSC   H00YX       1     0.425     1.008
   33492       H       1    MUSC   H00YY       1     0.425     1.008
   33493       H       1    MUSC   H00YZ       1     0.425     1.008
   33494       H       1    MUSC   H00Ya       1     0.425     1.008
   33495       H       1    MUSC   H00Yb       1     0.425     1.008
   33496       H       1    MUSC   H00Yc       1     0.425     1.008
   33497       H       1    MUSC   H00Yd       1     0.425     1.008
   33498       H       1    MUSC   H00Ye       1     0.425     1.008
   33499       H       1    MUSC   H00Yf       1     0.425     1.008
   33500       H       1    MUSC   H00Yg       1     0.425     1.008
   33501       H       1    MUSC   H00Yh       1     0.425     1.008
   33502       H       1    MUSC   H00Yi       1     0.425     1.008
   33503       H       1    MUSC   H00Yj       1     0.425     1.008
   33504       H       1    MUSC   H00Yk       1     0.425     1.008
   33505       H       1    MUSC   H00Yl       1     0.425     1.008
   33506       H       1    MUSC   H00Ym       1     0.425     1.008
   33507       H       1    MUSC   H00Yn       1     0.425     1.008
   33508       H       1    MUSC   H00Yo       1     0.425     1.008
   33509       H       1    MUSC   H00Yp       1     0.425     1.008
   33510       H       1    MUSC   H00Yq       1     0.425     1.008
   33511       H       1    MUSC   H00Yr       1     0.425     1.008
   33512       H       1    MUSC   H00Ys       1     0.425     1.008
   33513       H       1    MUSC   H00Yt       1     0.425     1.008
   33514       H       1    MUSC   H00Yu       1     0.425     1.008
   33515       H       1    MUSC   H00Yv       1     0.425     1.008
   33516       H       1    MUSC   H00Yw       1     0.425     1.008
   33517       H       1    MUSC   H00Yx       1     0.425     1.008
   33518       H       1    MUSC   H00Yy       1     0.425     1.008
   33519       H       1    MUSC   H00Yz       1     0.425     1.008
   33520       H       1    MUSC   H00Z0       1     0.425     1.008
   33521       H       1    MUSC   H00Z1       1     0.425     1.008
   33522       H       1    MUSC   H00Z2       1     0.425     1.008
   33523       H       1    MUSC   H00Z3       1     0.425     1.008
   33524       H       1    MUSC   H00Z4       1     0.425     1.008
   33525       H       1    MUSC   H00Z5       1     0.425     1.008
   33526       H       1    MUSC   H00Z6       1     0.425     1.008
   33527       H       1    MUSC   H00Z7       1     0.425     1.008
   33528       H       1    MUSC   H00Z8       1     0.425     1.008
   33529       H       1    MUSC   H00Z9       1     0.425     1.008
   33530       H       1    MUSC   H00ZA       1     0.425     1.008
   33531       H       1    MUSC   H00ZB       1     0.425     1.008
   33532       H       1    MUSC   H00ZC       1     0.425     1.008
   33533       H       1    MUSC   H00ZD       1     0.425     1.008
   33534       H       1    MUSC   H00ZE       1     0.425     1.008
   33535       H       1    MUSC   H00ZF       1     0.425     1.008
   33536       H       1    MUSC   H00ZG       1     0.425     1.008
   33537       H       1    MUSC   H00ZH       1     0.425     1.008
   33538       H       1    MUSC   H00ZI       1     0.425     1.008
   33539       H       1    MUSC   H00ZJ       1     0.425     1.008
   33540       H       1    MUSC   H00ZK       1     0.425     1.008
   33541       H       1    MUSC   H00ZL       1     0.425     1.008
   33542       H       1    MUSC   H00ZM       1     0.425     1.008
   33543       H       1    MUSC   H00ZN       1     0.425     1.008
   33544       H       1    MUSC   H00ZO       1     0.425     1.008
   33545       H       1    MUSC   H00ZP       1     0.425     1.008
   33546       H       1    MUSC   H00ZQ       1     0.425     1.008
   33547       H       1    MUSC   H00ZR       1     0.425     1.008
   33548       H       1    MUSC   H00ZS       1     0.425     1.008
   33549       H       1    MUSC   H00ZT       1     0.425     1.008
   33550       H       1    MUSC   H00ZU       1     0.425     1.008
   33551       H       1    MUSC   H00ZV       1     0.425     1.008
   33552       H       1    MUSC   H00ZW       1     0.425     1.008
   33553       H       1    MUSC   H00ZX       1     0.425     1.008
   33554       H       1    MUSC   H00ZY       1     0.425     1.008
   33555       H       1    MUSC   H00ZZ       1     0.425     1.008
   33556       H       1    MUSC   H00Za       1     0.425     1.008
   33557       H       1    MUSC   H00Zb       1     0.425     1.008
   33558       H       1    MUSC   H00Zc       1     0.425     1.008
   33559       H       1    MUSC   H00Zd       1     0.425     1.008
   33560       H       1    MUSC   H00Ze       1     0.425     1.008
   33561       H       1    MUSC   H00Zf       1     0.425     1.008
   33562       H       1    MUSC   H00Zg       1     0.425     1.008
   33563       H       1    MUSC   H00Zh       1     0.425     1.008
   33564       H       1    MUSC   H00Zi       1     0.425     1.008
   33565       H       1    MUSC   H00Zj       1     0.425     1.008
   33566       H       1    MUSC   H00Zk       1     0.425     1.008
   33567       H       1    MUSC   H00Zl       1     0.425     1.008
   33568       H       1    MUSC   H00Zm       1     0.425     1.008
   33569       H       1    MUSC   H00Zn       1     0.425     1.008
   33570       H       1    MUSC   H00Zo       1     0.425     1.008
   33571       H       1    MUSC   H00Zp       1     0.425     1.008
   33572       H       1    MUSC   H00Zq       1     0.425     1.008
   33573       H       1    MUSC   H00Zr       1     0.425     1.008
   33574       H       1    MUSC   H00Zs       1     0.425     1.008
   33575       H       1    MUSC   H00Zt       1     0.425     1.008
   33576       H       1    MUSC   H00Zu       1     0.425     1.008
   33577       H       1    MUSC   H00Zv       1     0.425     1.008
   33578       H       1    MUSC   H00Zw       1     0.425     1.008
   33579       H       1    MUSC   H00Zx       1     0.425     1.008
   33580       H       1    MUSC   H00Zy       1     0.425     1.008
   33581       H       1    MUSC   H00Zz       1     0.425     1.008
   33582       H       1    MUSC   H00a0       1     0.425     1.008
   33583       H       1    MUSC   H00a1       1     0.425     1.008
   33584       H       1    MUSC   H00a2       1     0.425     1.008
   33585       H       1    MUSC   H00a3       1     0.425     1.008
   33586       H       1    MUSC   H00a4       1     0.425     1.008
   33587       H       1    MUSC   H00a5       1     0.425     1.008
   33588       H       1    MUSC   H00a6       1     0.425     1.008
   33589       H       1    MUSC   H00a7       1     0.425     1.008
   33590       H       1    MUSC   H00a8       1     0.425     1.008
   33591       H       1    MUSC   H00a9       1     0.425     1.008
   33592       H       1    MUSC   H00aA       1     0.425     1.008
   33593       H       1    MUSC   H00aB       1     0.425     1.008
   33594       H       1    MUSC   H00aC       1     0.425     1.008
   33595       H       1    MUSC   H00aD       1     0.425     1.008
   33596       H       1    MUSC   H00aE       1     0.425     1.008
   33597       H       1    MUSC   H00aF       1     0.425     1.008
   33598       H       1    MUSC   H00aG       1     0.425     1.008
   33599       H       1    MUSC   H00aH       1     0.425     1.008
   33600       H       1    MUSC   H00aI       1     0.425     1.008
   33601       H       1    MUSC   H00aJ       1     0.425     1.008
   33602       H       1    MUSC   H00aK       1     0.425     1.008
   33603       H       1    MUSC   H00aL       1     0.425     1.008
   33604       H       1    MUSC   H00aM       1     0.425     1.008
   33605       H       1    MUSC   H00aN       1     0.425     1.008
   33606       H       1    MUSC   H00aO       1     0.425     1.008
   33607       H       1    MUSC   H00aP       1     0.425     1.008
   33608       H       1    MUSC   H00aQ       1     0.425     1.008
   33609       H       1    MUSC   H00aR       1     0.425     1.008
   33610       H       1    MUSC   H00aS       1     0.425     1.008
   33611       H       1    MUSC   H00aT       1     0.425     1.008
   33612       H       1    MUSC   H00aU       1     0.425     1.008
   33613       H       1    MUSC   H00aV       1     0.425     1.008
   33614       H       1    MUSC   H00aW       1     0.425     1.008
   33615       H       1    MUSC   H00aX       1     0.425     1.008
   33616       H       1    MUSC   H00aY       1     0.425     1.008
   33617       H       1    MUSC   H00aZ       1     0.425     1.008
   33618       H       1    MUSC   H00aa       1     0.425     1.008
   33619       H       1    MUSC   H00ab       1     0.425     1.008
   33620       H       1    MUSC   H00ac       1     0.425     1.008
   33621       H       1    MUSC   H00ad       1     0.425     1.008
   33622       H       1    MUSC   H00ae       1     0.425     1.008
   33623       H       1    MUSC   H00af       1     0.425     1.008
   33624       H       1    MUSC   H00ag       1     0.425     1.008
   33625       H       1    MUSC   H00ah       1     0.425     1.008
   33626       H       1    MUSC   H00ai       1     0.425     1.008
   33627       H       1    MUSC   H00aj       1     0.425     1.008
   33628       H       1    MUSC   H00ak       1     0.425     1.008
   33629       H       1    MUSC   H00al       1     0.425     1.008
   33630       H       1    MUSC   H00am       1     0.425     1.008
   33631       H       1    MUSC   H00an       1     0.425     1.008
   33632       H       1    MUSC   H00ao       1     0.425     1.008
   33633       H       1    MUSC   H00ap       1     0.425     1.008
   33634       H       1    MUSC   H00aq       1     0.425     1.008
   33635       H       1    MUSC   H00ar       1     0.425     1.008
   33636       H       1    MUSC   H00as       1     0.425     1.008
   33637       H       1    MUSC   H00at       1     0.425     1.008
   33638       H       1    MUSC   H00au       1     0.425     1.008
   33639       H       1    MUSC   H00av       1     0.425     1.008
   33640       H       1    MUSC   H00aw       1     0.425     1.008
   33641       H       1    MUSC   H00ax       1     0.425     1.008
   33642       H       1    MUSC   H00ay       1     0.425     1.008
   33643       H       1    MUSC   H00az       1     0.425     1.008
   33644       H       1    MUSC   H00b0       1     0.425     1.008
   33645       H       1    MUSC   H00b1       1     0.425     1.008
   33646       H       1    MUSC   H00b2       1     0.425     1.008
   33647       H       1    MUSC   H00b3       1     0.425     1.008
   33648       H       1    MUSC   H00b4       1     0.425     1.008
   33649       H       1    MUSC   H00b5       1     0.425     1.008
   33650       H       1    MUSC   H00b6       1     0.425     1.008
   33651       H       1    MUSC   H00b7       1     0.425     1.008
   33652       H       1    MUSC   H00b8       1     0.425     1.008
   33653       H       1    MUSC   H00b9       1     0.425     1.008
   33654       H       1    MUSC   H00bA       1     0.425     1.008
   33655       H       1    MUSC   H00bB       1     0.425     1.008
   33656       H       1    MUSC   H00bC       1     0.425     1.008
   33657       H       1    MUSC   H00bD       1     0.425     1.008
   33658       H       1    MUSC   H00bE       1     0.425     1.008
   33659       H       1    MUSC   H00bF       1     0.425     1.008
   33660       H       1    MUSC   H00bG       1     0.425     1.008
   33661       H       1    MUSC   H00bH       1     0.425     1.008
   33662       H       1    MUSC   H00bI       1     0.425     1.008
   33663       H       1    MUSC   H00bJ       1     0.425     1.008
   33664       H       1    MUSC   H00bK       1     0.425     1.008
   33665       H       1    MUSC   H00bL       1     0.425     1.008
   33666       H       1    MUSC   H00bM       1     0.425     1.008
   33667       H       1    MUSC   H00bN       1     0.425     1.008
   33668       H       1    MUSC   H00bO       1     0.425     1.008
   33669       H       1    MUSC   H00bP       1     0.425     1.008
   33670       H       1    MUSC   H00bQ       1     0.425     1.008
   33671       H       1    MUSC   H00bR       1     0.425     1.008
   33672       H       1    MUSC   H00bS       1     0.425     1.008
   33673       H       1    MUSC   H00bT       1     0.425     1.008
   33674       H       1    MUSC   H00bU       1     0.425     1.008
   33675       H       1    MUSC   H00bV       1     0.425     1.008
   33676       H       1    MUSC   H00bW       1     0.425     1.008
   33677       H       1    MUSC   H00bX       1     0.425     1.008
   33678       H       1    MUSC   H00bY       1     0.425     1.008
   33679       H       1    MUSC   H00bZ       1     0.425     1.008
   33680       H       1    MUSC   H00ba       1     0.425     1.008
   33681       H       1    MUSC   H00bb       1     0.425     1.008
   33682       H       1    MUSC   H00bc       1     0.425     1.008
   33683       H       1    MUSC   H00bd       1     0.425     1.008
   33684       H       1    MUSC   H00be       1     0.425     1.008
   33685       H       1    MUSC   H00bf       1     0.425     1.008
   33686       H       1    MUSC   H00bg       1     0.425     1.008
   33687       H       1    MUSC   H00bh       1     0.425     1.008
   33688       H       1    MUSC   H00bi       1     0.425     1.008
   33689       H       1    MUSC   H00bj       1     0.425     1.008
   33690       H       1    MUSC   H00bk       1     0.425     1.008
   33691       H       1    MUSC   H00bl       1     0.425     1.008
   33692       H       1    MUSC   H00bm       1     0.425     1.008
   33693       H       1    MUSC   H00bn       1     0.425     1.008
   33694       H       1    MUSC   H00bo       1     0.425     1.008
   33695       H       1    MUSC   H00bp       1     0.425     1.008
   33696       H       1    MUSC   H00bq       1     0.425     1.008
   33697       H       1    MUSC   H00br       1     0.425     1.008
   33698       H       1    MUSC   H00bs       1     0.425     1.008
   33699       H       1    MUSC   H00bt       1     0.425     1.008
   33700       H       1    MUSC   H00bu       1     0.425     1.008
   33701       H       1    MUSC   H00bv       1     0.425     1.008
   33702       H       1    MUSC   H00bw       1     0.425     1.008
   33703       H       1    MUSC   H00bx       1     0.425     1.008
   33704       H       1    MUSC   H00by       1     0.425     1.008
   33705       H       1    MUSC   H00bz       1     0.425     1.008
   33706       H       1    MUSC   H00c0       1     0.425     1.008
   33707       H       1    MUSC   H00c1       1     0.425     1.008
   33708       H       1    MUSC   H00c2       1     0.425     1.008
   33709       H       1    MUSC   H00c3       1     0.425     1.008
   33710       H       1    MUSC   H00c4       1     0.425     1.008
   33711       H       1    MUSC   H00c5       1     0.425     1.008
   33712       H       1    MUSC   H00c6       1     0.425     1.008
   33713       H       1    MUSC   H00c7       1     0.425     1.008
   33714       H       1    MUSC   H00c8       1     0.425     1.008
   33715       H       1    MUSC   H00c9       1     0.425     1.008
   33716       H       1    MUSC   H00cA       1     0.425     1.008
   33717       H       1    MUSC   H00cB       1     0.425     1.008
   33718       H       1    MUSC   H00cC       1     0.425     1.008
   33719       H       1    MUSC   H00cD       1     0.425     1.008
   33720       H       1    MUSC   H00cE       1     0.425     1.008
   33721       H       1    MUSC   H00cF       1     0.425     1.008
   33722       H       1    MUSC   H00cG       1     0.425     1.008
   33723       H       1    MUSC   H00cH       1     0.425     1.008
   33724       H       1    MUSC   H00cI       1     0.425     1.008
   33725       H       1    MUSC   H00cJ       1     0.425     1.008
   33726       H       1    MUSC   H00cK       1     0.425     1.008
   33727       H       1    MUSC   H00cL       1     0.425     1.008
   33728       H       1    MUSC   H00cM       1     0.425     1.008
   33729       H       1    MUSC   H00cN       1     0.425     1.008
   33730       H       1    MUSC   H00cO       1     0.425     1.008
   33731       H       1    MUSC   H00cP       1     0.425     1.008
   33732       H       1    MUSC   H00cQ       1     0.425     1.008
   33733       H       1    MUSC   H00cR       1     0.425     1.008
   33734       H       1    MUSC   H00cS       1     0.425     1.008
   33735       H       1    MUSC   H00cT       1     0.425     1.008
   33736       H       1    MUSC   H00cU       1     0.425     1.008
   33737       H       1    MUSC   H00cV       1     0.425     1.008
   33738       H       1    MUSC   H00cW       1     0.425     1.008
   33739       H       1    MUSC   H00cX       1     0.425     1.008
   33740       H       1    MUSC   H00cY       1     0.425     1.008
   33741       H       1    MUSC   H00cZ       1     0.425     1.008
   33742       H       1    MUSC   H00ca       1     0.425     1.008
   33743       H       1    MUSC   H00cb       1     0.425     1.008
   33744       H       1    MUSC   H00cc       1     0.425     1.008
   33745       H       1    MUSC   H00cd       1     0.425     1.008
   33746       H       1    MUSC   H00ce       1     0.425     1.008
   33747       H       1    MUSC   H00cf       1     0.425     1.008
   33748       H       1    MUSC   H00cg       1     0.425     1.008
   33749       H       1    MUSC   H00ch       1     0.425     1.008
   33750       H       1    MUSC   H00ci       1     0.425     1.008
   33751       H       1    MUSC   H00cj       1     0.425     1.008
   33752       H       1    MUSC   H00ck       1     0.425     1.008
   33753       H       1    MUSC   H00cl       1     0.425     1.008
   33754       H       1    MUSC   H00cm       1     0.425     1.008
   33755       H       1    MUSC   H00cn       1     0.425     1.008
   33756       H       1    MUSC   H00co       1     0.425     1.008
   33757       H       1    MUSC   H00cp       1     0.425     1.008
   33758       H       1    MUSC   H00cq       1     0.425     1.008
   33759       H       1    MUSC   H00cr       1     0.425     1.008
   33760       H       1    MUSC   H00cs       1     0.425     1.008
   33761       H       1    MUSC   H00ct       1     0.425     1.008
   33762       H       1    MUSC   H00cu       1     0.425     1.008
   33763       H       1    MUSC   H00cv       1     0.425     1.008
   33764       H       1    MUSC   H00cw       1     0.425     1.008
   33765       H       1    MUSC   H00cx       1     0.425     1.008
   33766       H       1    MUSC   H00cy       1     0.425     1.008
   33767       H       1    MUSC   H00cz       1     0.425     1.008
   33768       H       1    MUSC   H00d0       1     0.425     1.008
   33769       H       1    MUSC   H00d1       1     0.425     1.008
   33770       H       1    MUSC   H00d2       1     0.425     1.008
   33771       H       1    MUSC   H00d3       1     0.425     1.008
   33772       H       1    MUSC   H00d4       1     0.425     1.008
   33773       H       1    MUSC   H00d5       1     0.425     1.008
   33774       H       1    MUSC   H00d6       1     0.425     1.008
   33775       H       1    MUSC   H00d7       1     0.425     1.008
   33776       H       1    MUSC   H00d8       1     0.425     1.008
   33777       H       1    MUSC   H00d9       1     0.425     1.008
   33778       H       1    MUSC   H00dA       1     0.425     1.008
   33779       H       1    MUSC   H00dB       1     0.425     1.008
   33780       H       1    MUSC   H00dC       1     0.425     1.008
   33781       H       1    MUSC   H00dD       1     0.425     1.008
   33782       H       1    MUSC   H00dE       1     0.425     1.008
   33783       H       1    MUSC   H00dF       1     0.425     1.008
   33784       H       1    MUSC   H00dG       1     0.425     1.008
   33785       H       1    MUSC   H00dH       1     0.425     1.008
   33786       H       1    MUSC   H00dI       1     0.425     1.008
   33787       H       1    MUSC   H00dJ       1     0.425     1.008
   33788       H       1    MUSC   H00dK       1     0.425     1.008
   33789       H       1    MUSC   H00dL       1     0.425     1.008
   33790       H       1    MUSC   H00dM       1     0.425     1.008
   33791       H       1    MUSC   H00dN       1     0.425     1.008
   33792       H       1    MUSC   H00dO       1     0.425     1.008
   33793       H       1    MUSC   H00dP       1     0.425     1.008
   33794       H       1    MUSC   H00dQ       1     0.425     1.008
   33795       H       1    MUSC   H00dR       1     0.425     1.008
   33796       H       1    MUSC   H00dS       1     0.425     1.008
   33797       H       1    MUSC   H00dT       1     0.425     1.008
   33798       H       1    MUSC   H00dU       1     0.425     1.008
   33799       H       1    MUSC   H00dV       1     0.425     1.008
   33800       H       1    MUSC   H00dW       1     0.425     1.008
   33801       H       1    MUSC   H00dX       1     0.425     1.008
   33802       H       1    MUSC   H00dY       1     0.425     1.008
   33803       H       1    MUSC   H00dZ       1     0.425     1.008
   33804       H       1    MUSC   H00da       1     0.425     1.008
   33805       H       1    MUSC   H00db       1     0.425     1.008
   33806       H       1    MUSC   H00dc       1     0.425     1.008
   33807       H       1    MUSC   H00dd       1     0.425     1.008
   33808       H       1    MUSC   H00de       1     0.425     1.008
   33809       H       1    MUSC   H00df       1     0.425     1.008
   33810       H       1    MUSC   H00dg       1     0.425     1.008
   33811       H       1    MUSC   H00dh       1     0.425     1.008
   33812       H       1    MUSC   H00di       1     0.425     1.008
   33813       H       1    MUSC   H00dj       1     0.425     1.008
   33814       H       1    MUSC   H00dk       1     0.425     1.008
   33815       H       1    MUSC   H00dl       1     0.425     1.008
   33816       H       1    MUSC   H00dm       1     0.425     1.008
   33817       H       1    MUSC   H00dn       1     0.425     1.008
   33818       H       1    MUSC   H00do       1     0.425     1.008
   33819       H       1    MUSC   H00dp       1     0.425     1.008
   33820       H       1    MUSC   H00dq       1     0.425     1.008
   33821       H       1    MUSC   H00dr       1     0.425     1.008
   33822       H       1    MUSC   H00ds       1     0.425     1.008
   33823       H       1    MUSC   H00dt       1     0.425     1.008
   33824       H       1    MUSC   H00du       1     0.425     1.008
   33825       H       1    MUSC   H00dv       1     0.425     1.008
   33826       H       1    MUSC   H00dw       1     0.425     1.008
   33827       H       1    MUSC   H00dx       1     0.425     1.008
   33828       H       1    MUSC   H00dy       1     0.425     1.008
   33829       H       1    MUSC   H00dz       1     0.425     1.008
   33830       H       1    MUSC   H00e0       1     0.425     1.008
   33831       H       1    MUSC   H00e1       1     0.425     1.008
   33832       H       1    MUSC   H00e2       1     0.425     1.008
   33833       H       1    MUSC   H00e3       1     0.425     1.008
   33834       H       1    MUSC   H00e4       1     0.425     1.008
   33835       H       1    MUSC   H00e5       1     0.425     1.008
   33836       H       1    MUSC   H00e6       1     0.425     1.008
   33837       H       1    MUSC   H00e7       1     0.425     1.008
   33838       H       1    MUSC   H00e8       1     0.425     1.008
   33839       H       1    MUSC   H00e9       1     0.425     1.008
   33840       H       1    MUSC   H00eA       1     0.425     1.008
   33841       H       1    MUSC   H00eB       1     0.425     1.008
   33842       H       1    MUSC   H00eC       1     0.425     1.008
   33843       H       1    MUSC   H00eD       1     0.425     1.008
   33844       H       1    MUSC   H00eE       1     0.425     1.008
   33845       H       1    MUSC   H00eF       1     0.425     1.008
   33846       H       1    MUSC   H00eG       1     0.425     1.008
   33847       H       1    MUSC   H00eH       1     0.425     1.008
   33848       H       1    MUSC   H00eI       1     0.425     1.008
   33849       H       1    MUSC   H00eJ       1     0.425     1.008
   33850       H       1    MUSC   H00eK       1     0.425     1.008
   33851       H       1    MUSC   H00eL       1     0.425     1.008
   33852       H       1    MUSC   H00eM       1     0.425     1.008
   33853       H       1    MUSC   H00eN       1     0.425     1.008
   33854       H       1    MUSC   H00eO       1     0.425     1.008
   33855       H       1    MUSC   H00eP       1     0.425     1.008
   33856       H       1    MUSC   H00eQ       1     0.425     1.008
   33857       H       1    MUSC   H00eR       1     0.425     1.008
   33858       H       1    MUSC   H00eS       1     0.425     1.008
   33859       H       1    MUSC   H00eT       1     0.425     1.008
   33860       H       1    MUSC   H00eU       1     0.425     1.008
   33861       H       1    MUSC   H00eV       1     0.425     1.008
   33862       H       1    MUSC   H00eW       1     0.425     1.008
   33863       H       1    MUSC   H00eX       1     0.425     1.008
   33864       H       1    MUSC   H00eY       1     0.425     1.008
   33865       H       1    MUSC   H00eZ       1     0.425     1.008
   33866       H       1    MUSC   H00ea       1     0.425     1.008
   33867       H       1    MUSC   H00eb       1     0.425     1.008
   33868       H       1    MUSC   H00ec       1     0.425     1.008
   33869       H       1    MUSC   H00ed       1     0.425     1.008
   33870       H       1    MUSC   H00ee       1     0.425     1.008
   33871       H       1    MUSC   H00ef       1     0.425     1.008
   33872       H       1    MUSC   H00eg       1     0.425     1.008
   33873       H       1    MUSC   H00eh       1     0.425     1.008
   33874       H       1    MUSC   H00ei       1     0.425     1.008
   33875       H       1    MUSC   H00ej       1     0.425     1.008
   33876       H       1    MUSC   H00ek       1     0.425     1.008
   33877       H       1    MUSC   H00el       1     0.425     1.008
   33878       H       1    MUSC   H00em       1     0.425     1.008
   33879       H       1    MUSC   H00en       1     0.425     1.008
   33880       H       1    MUSC   H00eo       1     0.425     1.008
   33881       H       1    MUSC   H00ep       1     0.425     1.008
   33882       H       1    MUSC   H00eq       1     0.425     1.008
   33883       H       1    MUSC   H00er       1     0.425     1.008
   33884       H       1    MUSC   H00es       1     0.425     1.008
   33885       H       1    MUSC   H00et       1     0.425     1.008
   33886       H       1    MUSC   H00eu       1     0.425     1.008
   33887       H       1    MUSC   H00ev       1     0.425     1.008
   33888       H       1    MUSC   H00ew       1     0.425     1.008
   33889       H       1    MUSC   H00ex       1     0.425     1.008
   33890       H       1    MUSC   H00ey       1     0.425     1.008
   33891       H       1    MUSC   H00ez       1     0.425     1.008
   33892       H       1    MUSC   H00f0       1     0.425     1.008
   33893       H       1    MUSC   H00f1       1     0.425     1.008
   33894       H       1    MUSC   H00f2       1     0.425     1.008
   33895       H       1    MUSC   H00f3       1     0.425     1.008
   33896       H       1    MUSC   H00f4       1     0.425     1.008
   33897       H       1    MUSC   H00f5       1     0.425     1.008
   33898       H       1    MUSC   H00f6       1     0.425     1.008
   33899       H       1    MUSC   H00f7       1     0.425     1.008
   33900       H       1    MUSC   H00f8       1     0.425     1.008
   33901       H       1    MUSC   H00f9       1     0.425     1.008
   33902       H       1    MUSC   H00fA       1     0.425     1.008
   33903       H       1    MUSC   H00fB       1     0.425     1.008
   33904       H       1    MUSC   H00fC       1     0.425     1.008
   33905       H       1    MUSC   H00fD       1     0.425     1.008
   33906       H       1    MUSC   H00fE       1     0.425     1.008
   33907       H       1    MUSC   H00fF       1     0.425     1.008
   33908       H       1    MUSC   H00fG       1     0.425     1.008
   33909       H       1    MUSC   H00fH       1     0.425     1.008
   33910       H       1    MUSC   H00fI       1     0.425     1.008
   33911       H       1    MUSC   H00fJ       1     0.425     1.008
   33912       H       1    MUSC   H00fK       1     0.425     1.008
   33913       H       1    MUSC   H00fL       1     0.425     1.008
   33914       H       1    MUSC   H00fM       1     0.425     1.008
   33915       H       1    MUSC   H00fN       1     0.425     1.008
   33916       H       1    MUSC   H00fO       1     0.425     1.008
   33917       H       1    MUSC   H00fP       1     0.425     1.008
   33918       H       1    MUSC   H00fQ       1     0.425     1.008
   33919       H       1    MUSC   H00fR       1     0.425     1.008
   33920       H       1    MUSC   H00fS       1     0.425     1.008
   33921       H       1    MUSC   H00fT       1     0.425     1.008
   33922       H       1    MUSC   H00fU       1     0.425     1.008
   33923       H       1    MUSC   H00fV       1     0.425     1.008
   33924       H       1    MUSC   H00fW       1     0.425     1.008
   33925       H       1    MUSC   H00fX       1     0.425     1.008
   33926       H       1    MUSC   H00fY       1     0.425     1.008
   33927       H       1    MUSC   H00fZ       1     0.425     1.008
   33928       H       1    MUSC   H00fa       1     0.425     1.008
   33929       H       1    MUSC   H00fb       1     0.425     1.008
   33930       H       1    MUSC   H00fc       1     0.425     1.008
   33931       H       1    MUSC   H00fd       1     0.425     1.008
   33932       H       1    MUSC   H00fe       1     0.425     1.008
   33933       H       1    MUSC   H00ff       1     0.425     1.008
   33934       H       1    MUSC   H00fg       1     0.425     1.008
   33935       H       1    MUSC   H00fh       1     0.425     1.008
   33936       H       1    MUSC   H00fi       1     0.425     1.008
   33937       H       1    MUSC   H00fj       1     0.425     1.008
   33938       H       1    MUSC   H00fk       1     0.425     1.008
   33939       H       1    MUSC   H00fl       1     0.425     1.008
   33940       H       1    MUSC   H00fm       1     0.425     1.008
   33941       H       1    MUSC   H00fn       1     0.425     1.008
   33942       H       1    MUSC   H00fo       1     0.425     1.008
   33943       H       1    MUSC   H00fp       1     0.425     1.008
   33944       H       1    MUSC   H00fq       1     0.425     1.008
   33945       H       1    MUSC   H00fr       1     0.425     1.008
   33946       H       1    MUSC   H00fs       1     0.425     1.008
   33947       H       1    MUSC   H00ft       1     0.425     1.008
   33948       H       1    MUSC   H00fu       1     0.425     1.008
   33949       H       1    MUSC   H00fv       1     0.425     1.008
   33950       H       1    MUSC   H00fw       1     0.425     1.008
   33951       H       1    MUSC   H00fx       1     0.425     1.008
   33952       H       1    MUSC   H00fy       1     0.425     1.008
   33953       H       1    MUSC   H00fz       1     0.425     1.008
   33954       H       1    MUSC   H00g0       1     0.425     1.008
   33955       H       1    MUSC   H00g1       1     0.425     1.008
   33956       H       1    MUSC   H00g2       1     0.425     1.008
   33957       H       1    MUSC   H00g3       1     0.425     1.008
   33958       H       1    MUSC   H00g4       1     0.425     1.008
   33959       H       1    MUSC   H00g5       1     0.425     1.008
   33960       H       1    MUSC   H00g6       1     0.425     1.008
   33961       H       1    MUSC   H00g7       1     0.425     1.008
   33962       H       1    MUSC   H00g8       1     0.425     1.008
   33963       H       1    MUSC   H00g9       1     0.425     1.008
   33964       H       1    MUSC   H00gA       1     0.425     1.008
   33965       H       1    MUSC   H00gB       1     0.425     1.008
   33966       H       1    MUSC   H00gC       1     0.425     1.008
   33967       H       1    MUSC   H00gD       1     0.425     1.008
   33968       H       1    MUSC   H00gE       1     0.425     1.008
   33969       H       1    MUSC   H00gF       1     0.425     1.008
   33970       H       1    MUSC   H00gG       1     0.425     1.008
   33971       H       1    MUSC   H00gH       1     0.425     1.008
   33972       H       1    MUSC   H00gI       1     0.425     1.008
   33973       H       1    MUSC   H00gJ       1     0.425     1.008
   33974       H       1    MUSC   H00gK       1     0.425     1.008
   33975       H       1    MUSC   H00gL       1     0.425     1.008
   33976       H       1    MUSC   H00gM       1     0.425     1.008
   33977       H       1    MUSC   H00gN       1     0.425     1.008
   33978       H       1    MUSC   H00gO       1     0.425     1.008
   33979       H       1    MUSC   H00gP       1     0.425     1.008
   33980       H       1    MUSC   H00gQ       1     0.425     1.008
   33981       H       1    MUSC   H00gR       1     0.425     1.008
   33982       H       1    MUSC   H00gS       1     0.425     1.008
   33983       H       1    MUSC   H00gT       1     0.425     1.008
   33984       H       1    MUSC   H00gU       1     0.425     1.008
   33985       H       1    MUSC   H00gV       1     0.425     1.008
   33986       H       1    MUSC   H00gW       1     0.425     1.008
   33987       H       1    MUSC   H00gX       1     0.425     1.008
   33988       H       1    MUSC   H00gY       1     0.425     1.008
   33989       H       1    MUSC   H00gZ       1     0.425     1.008
   33990       H       1    MUSC   H00ga       1     0.425     1.008
   33991       H       1    MUSC   H00gb       1     0.425     1.008
   33992       H       1    MUSC   H00gc       1     0.425     1.008
   33993       H       1    MUSC   H00gd       1     0.425     1.008
   33994       H       1    MUSC   H00ge       1     0.425     1.008
   33995       H       1    MUSC   H00gf       1     0.425     1.008
   33996       H       1    MUSC   H00gg       1     0.425     1.008
   33997       H       1    MUSC   H00gh       1     0.425     1.008
   33998       H       1    MUSC   H00gi       1     0.425     1.008
   33999       H       1    MUSC   H00gj       1     0.425     1.008
   34000       H       1    MUSC   H00gk       1     0.425     1.008
   34001       H       1    MUSC   H00gl       1     0.425     1.008
   34002       H       1    MUSC   H00gm       1     0.425     1.008
   34003       H       1    MUSC   H00gn       1     0.425     1.008
   34004       H       1    MUSC   H00go       1     0.425     1.008
   34005       H       1    MUSC   H00gp       1     0.425     1.008
   34006       H       1    MUSC   H00gq       1     0.425     1.008
   34007       H       1    MUSC   H00gr       1     0.425     1.008
   34008       H       1    MUSC   H00gs       1     0.425     1.008
   34009       H       1    MUSC   H00gt       1     0.425     1.008
   34010       H       1    MUSC   H00gu       1     0.425     1.008
   34011       H       1    MUSC   H00gv       1     0.425     1.008
   34012       H       1    MUSC   H00gw       1     0.425     1.008
   34013       H       1    MUSC   H00gx       1     0.425     1.008
   34014       H       1    MUSC   H00gy       1     0.425     1.008
   34015       H       1    MUSC   H00gz       1     0.425     1.008
   34016       H       1    MUSC   H00h0       1     0.425     1.008
   34017       H       1    MUSC   H00h1       1     0.425     1.008
   34018       H       1    MUSC   H00h2       1     0.425     1.008
   34019       H       1    MUSC   H00h3       1     0.425     1.008
   34020       H       1    MUSC   H00h4       1     0.425     1.008
   34021       H       1    MUSC   H00h5       1     0.425     1.008
   34022       H       1    MUSC   H00h6       1     0.425     1.008
   34023       H       1    MUSC   H00h7       1     0.425     1.008
   34024       H       1    MUSC   H00h8       1     0.425     1.008
   34025       H       1    MUSC   H00h9       1     0.425     1.008
   34026       H       1    MUSC   H00hA       1     0.425     1.008
   34027       H       1    MUSC   H00hB       1     0.425     1.008
   34028       H       1    MUSC   H00hC       1     0.425     1.008
   34029       H       1    MUSC   H00hD       1     0.425     1.008
   34030       H       1    MUSC   H00hE       1     0.425     1.008
   34031       H       1    MUSC   H00hF       1     0.425     1.008
   34032       H       1    MUSC   H00hG       1     0.425     1.008
   34033       H       1    MUSC   H00hH       1     0.425     1.008
   34034       H       1    MUSC   H00hI       1     0.425     1.008
   34035       H       1    MUSC   H00hJ       1     0.425     1.008
   34036       H       1    MUSC   H00hK       1     0.425     1.008
   34037       H       1    MUSC   H00hL       1     0.425     1.008
   34038       H       1    MUSC   H00hM       1     0.425     1.008
   34039       H       1    MUSC   H00hN       1     0.425     1.008
   34040       H       1    MUSC   H00hO       1     0.425     1.008
   34041       H       1    MUSC   H00hP       1     0.425     1.008
   34042       H       1    MUSC   H00hQ       1     0.425     1.008
   34043       H       1    MUSC   H00hR       1     0.425     1.008
   34044       H       1    MUSC   H00hS       1     0.425     1.008
   34045       H       1    MUSC   H00hT       1     0.425     1.008
   34046       H       1    MUSC   H00hU       1     0.425     1.008
   34047       H       1    MUSC   H00hV       1     0.425     1.008
   34048       H       1    MUSC   H00hW       1     0.425     1.008
   34049       H       1    MUSC   H00hX       1     0.425     1.008
   34050       H       1    MUSC   H00hY       1     0.425     1.008
   34051       H       1    MUSC   H00hZ       1     0.425     1.008
   34052       H       1    MUSC   H00ha       1     0.425     1.008
   34053       H       1    MUSC   H00hb       1     0.425     1.008
   34054       H       1    MUSC   H00hc       1     0.425     1.008
   34055       H       1    MUSC   H00hd       1     0.425     1.008
   34056       H       1    MUSC   H00he       1     0.425     1.008
   34057       H       1    MUSC   H00hf       1     0.425     1.008
   34058       H       1    MUSC   H00hg       1     0.425     1.008
   34059       H       1    MUSC   H00hh       1     0.425     1.008
   34060       H       1    MUSC   H00hi       1     0.425     1.008
   34061       H       1    MUSC   H00hj       1     0.425     1.008
   34062       H       1    MUSC   H00hk       1     0.425     1.008
   34063       H       1    MUSC   H00hl       1     0.425     1.008
   34064       H       1    MUSC   H00hm       1     0.425     1.008
   34065       H       1    MUSC   H00hn       1     0.425     1.008
   34066       H       1    MUSC   H00ho       1     0.425     1.008
   34067       H       1    MUSC   H00hp       1     0.425     1.008
   34068       H       1    MUSC   H00hq       1     0.425     1.008
   34069       H       1    MUSC   H00hr       1     0.425     1.008
   34070       H       1    MUSC   H00hs       1     0.425     1.008
   34071       H       1    MUSC   H00ht       1     0.425     1.008
   34072       H       1    MUSC   H00hu       1     0.425     1.008
   34073       H       1    MUSC   H00hv       1     0.425     1.008
   34074       H       1    MUSC   H00hw       1     0.425     1.008
   34075       H       1    MUSC   H00hx       1     0.425     1.008
   34076       H       1    MUSC   H00hy       1     0.425     1.008
   34077       H       1    MUSC   H00hz       1     0.425     1.008
   34078       H       1    MUSC   H00i0       1     0.425     1.008
   34079       H       1    MUSC   H00i1       1     0.425     1.008
   34080       H       1    MUSC   H00i2       1     0.425     1.008
   34081       H       1    MUSC   H00i3       1     0.425     1.008
   34082       H       1    MUSC   H00i4       1     0.425     1.008
   34083       H       1    MUSC   H00i5       1     0.425     1.008
   34084       H       1    MUSC   H00i6       1     0.425     1.008
   34085       H       1    MUSC   H00i7       1     0.425     1.008
   34086       H       1    MUSC   H00i8       1     0.425     1.008
   34087       H       1    MUSC   H00i9       1     0.425     1.008
   34088       H       1    MUSC   H00iA       1     0.425     1.008
   34089       H       1    MUSC   H00iB       1     0.425     1.008
   34090       H       1    MUSC   H00iC       1     0.425     1.008
   34091       H       1    MUSC   H00iD       1     0.425     1.008
   34092       H       1    MUSC   H00iE       1     0.425     1.008
   34093       H       1    MUSC   H00iF       1     0.425     1.008
   34094       H       1    MUSC   H00iG       1     0.425     1.008
   34095       H       1    MUSC   H00iH       1     0.425     1.008
   34096       H       1    MUSC   H00iI       1     0.425     1.008
   34097       H       1    MUSC   H00iJ       1     0.425     1.008
   34098       H       1    MUSC   H00iK       1     0.425     1.008
   34099       H       1    MUSC   H00iL       1     0.425     1.008
   34100       H       1    MUSC   H00iM       1     0.425     1.008
   34101       H       1    MUSC   H00iN       1     0.425     1.008
   34102       H       1    MUSC   H00iO       1     0.425     1.008
   34103       H       1    MUSC   H00iP       1     0.425     1.008
   34104       H       1    MUSC   H00iQ       1     0.425     1.008
   34105       H       1    MUSC   H00iR       1     0.425     1.008
   34106       H       1    MUSC   H00iS       1     0.425     1.008
   34107       H       1    MUSC   H00iT       1     0.425     1.008
   34108       H       1    MUSC   H00iU       1     0.425     1.008
   34109       H       1    MUSC   H00iV       1     0.425     1.008
   34110       H       1    MUSC   H00iW       1     0.425     1.008
   34111       H       1    MUSC   H00iX       1     0.425     1.008
   34112       H       1    MUSC   H00iY       1     0.425     1.008
   34113       H       1    MUSC   H00iZ       1     0.425     1.008
   34114       H       1    MUSC   H00ia       1     0.425     1.008
   34115       H       1    MUSC   H00ib       1     0.425     1.008
   34116       H       1    MUSC   H00ic       1     0.425     1.008
   34117       H       1    MUSC   H00id       1     0.425     1.008
   34118       H       1    MUSC   H00ie       1     0.425     1.008
   34119       H       1    MUSC   H00if       1     0.425     1.008
   34120       H       1    MUSC   H00ig       1     0.425     1.008
   34121       H       1    MUSC   H00ih       1     0.425     1.008
   34122       H       1    MUSC   H00ii       1     0.425     1.008
   34123       H       1    MUSC   H00ij       1     0.425     1.008
   34124       H       1    MUSC   H00ik       1     0.425     1.008
   34125       H       1    MUSC   H00il       1     0.425     1.008
   34126       H       1    MUSC   H00im       1     0.425     1.008
   34127       H       1    MUSC   H00in       1     0.425     1.008
   34128       H       1    MUSC   H00io       1     0.425     1.008
   34129       H       1    MUSC   H00ip       1     0.425     1.008
   34130       H       1    MUSC   H00iq       1     0.425     1.008
   34131       H       1    MUSC   H00ir       1     0.425     1.008
   34132       H       1    MUSC   H00is       1     0.425     1.008
   34133       H       1    MUSC   H00it       1     0.425     1.008
   34134       H       1    MUSC   H00iu       1     0.425     1.008
   34135       H       1    MUSC   H00iv       1     0.425     1.008
   34136       H       1    MUSC   H00iw       1     0.425     1.008
   34137       H       1    MUSC   H00ix       1     0.425     1.008
   34138       H       1    MUSC   H00iy       1     0.425     1.008
   34139       H       1    MUSC   H00iz       1     0.425     1.008
   34140       H       1    MUSC   H00j0       1     0.425     1.008
   34141       H       1    MUSC   H00j1       1     0.425     1.008
   34142       H       1    MUSC   H00j2       1     0.425     1.008
   34143       H       1    MUSC   H00j3       1     0.425     1.008
   34144       H       1    MUSC   H00j4       1     0.425     1.008
   34145       H       1    MUSC   H00j5       1     0.425     1.008
   34146       H       1    MUSC   H00j6       1     0.425     1.008
   34147       H       1    MUSC   H00j7       1     0.425     1.008
   34148       H       1    MUSC   H00j8       1     0.425     1.008
   34149       H       1    MUSC   H00j9       1     0.425     1.008
   34150       H       1    MUSC   H00jA       1     0.425     1.008
   34151       H       1    MUSC   H00jB       1     0.425     1.008
   34152       H       1    MUSC   H00jC       1     0.425     1.008
   34153       H       1    MUSC   H00jD       1     0.425     1.008
   34154       H       1    MUSC   H00jE       1     0.425     1.008
   34155       H       1    MUSC   H00jF       1     0.425     1.008
   34156       H       1    MUSC   H00jG       1     0.425     1.008
   34157       H       1    MUSC   H00jH       1     0.425     1.008
   34158       H       1    MUSC   H00jI       1     0.425     1.008
   34159       H       1    MUSC   H00jJ       1     0.425     1.008
   34160       H       1    MUSC   H00jK       1     0.425     1.008
   34161       H       1    MUSC   H00jL       1     0.425     1.008
   34162       H       1    MUSC   H00jM       1     0.425     1.008
   34163       H       1    MUSC   H00jN       1     0.425     1.008
   34164       H       1    MUSC   H00jO       1     0.425     1.008
   34165       H       1    MUSC   H00jP       1     0.425     1.008
   34166       H       1    MUSC   H00jQ       1     0.425     1.008
   34167       H       1    MUSC   H00jR       1     0.425     1.008
   34168       H       1    MUSC   H00jS       1     0.425     1.008
   34169       H       1    MUSC   H00jT       1     0.425     1.008
   34170       H       1    MUSC   H00jU       1     0.425     1.008
   34171       H       1    MUSC   H00jV       1     0.425     1.008
   34172       H       1    MUSC   H00jW       1     0.425     1.008
   34173       H       1    MUSC   H00jX       1     0.425     1.008
   34174       H       1    MUSC   H00jY       1     0.425     1.008
   34175       H       1    MUSC   H00jZ       1     0.425     1.008
   34176       H       1    MUSC   H00ja       1     0.425     1.008
   34177       H       1    MUSC   H00jb       1     0.425     1.008
   34178       H       1    MUSC   H00jc       1     0.425     1.008
   34179       H       1    MUSC   H00jd       1     0.425     1.008
   34180       H       1    MUSC   H00je       1     0.425     1.008
   34181       H       1    MUSC   H00jf       1     0.425     1.008
   34182       H       1    MUSC   H00jg       1     0.425     1.008
   34183       H       1    MUSC   H00jh       1     0.425     1.008
   34184       H       1    MUSC   H00ji       1     0.425     1.008
   34185       H       1    MUSC   H00jj       1     0.425     1.008
   34186       H       1    MUSC   H00jk       1     0.425     1.008
   34187       H       1    MUSC   H00jl       1     0.425     1.008
   34188       H       1    MUSC   H00jm       1     0.425     1.008
   34189       H       1    MUSC   H00jn       1     0.425     1.008
   34190       H       1    MUSC   H00jo       1     0.425     1.008
   34191       H       1    MUSC   H00jp       1     0.425     1.008
   34192       H       1    MUSC   H00jq       1     0.425     1.008
   34193       H       1    MUSC   H00jr       1     0.425     1.008
   34194       H       1    MUSC   H00js       1     0.425     1.008
   34195       H       1    MUSC   H00jt       1     0.425     1.008
   34196       H       1    MUSC   H00ju       1     0.425     1.008
   34197       H       1    MUSC   H00jv       1     0.425     1.008
   34198       H       1    MUSC   H00jw       1     0.425     1.008
   34199       H       1    MUSC   H00jx       1     0.425     1.008
   34200       H       1    MUSC   H00jy       1     0.425     1.008
   34201       H       1    MUSC   H00jz       1     0.425     1.008
   34202       H       1    MUSC   H00k0       1     0.425     1.008
   34203       H       1    MUSC   H00k1       1     0.425     1.008
   34204       H       1    MUSC   H00k2       1     0.425     1.008
   34205       H       1    MUSC   H00k3       1     0.425     1.008
   34206       H       1    MUSC   H00k4       1     0.425     1.008
   34207       H       1    MUSC   H00k5       1     0.425     1.008
   34208       H       1    MUSC   H00k6       1     0.425     1.008
   34209       H       1    MUSC   H00k7       1     0.425     1.008
   34210       H       1    MUSC   H00k8       1     0.425     1.008
   34211       H       1    MUSC   H00k9       1     0.425     1.008
   34212       H       1    MUSC   H00kA       1     0.425     1.008
   34213       H       1    MUSC   H00kB       1     0.425     1.008
   34214       H       1    MUSC   H00kC       1     0.425     1.008
   34215       H       1    MUSC   H00kD       1     0.425     1.008
   34216       H       1    MUSC   H00kE       1     0.425     1.008
   34217       H       1    MUSC   H00kF       1     0.425     1.008
   34218       H       1    MUSC   H00kG       1     0.425     1.008
   34219       H       1    MUSC   H00kH       1     0.425     1.008
   34220       H       1    MUSC   H00kI       1     0.425     1.008
   34221       H       1    MUSC   H00kJ       1     0.425     1.008
   34222       H       1    MUSC   H00kK       1     0.425     1.008
   34223       H       1    MUSC   H00kL       1     0.425     1.008
   34224       H       1    MUSC   H00kM       1     0.425     1.008
   34225       H       1    MUSC   H00kN       1     0.425     1.008
   34226       H       1    MUSC   H00kO       1     0.425     1.008
   34227       H       1    MUSC   H00kP       1     0.425     1.008
   34228       H       1    MUSC   H00kQ       1     0.425     1.008
   34229       H       1    MUSC   H00kR       1     0.425     1.008
   34230       H       1    MUSC   H00kS       1     0.425     1.008
   34231       H       1    MUSC   H00kT       1     0.425     1.008
   34232       H       1    MUSC   H00kU       1     0.425     1.008
   34233       H       1    MUSC   H00kV       1     0.425     1.008
   34234       H       1    MUSC   H00kW       1     0.425     1.008
   34235       H       1    MUSC   H00kX       1     0.425     1.008
   34236       H       1    MUSC   H00kY       1     0.425     1.008
   34237       H       1    MUSC   H00kZ       1     0.425     1.008
   34238       H       1    MUSC   H00ka       1     0.425     1.008
   34239       H       1    MUSC   H00kb       1     0.425     1.008
   34240       H       1    MUSC   H00kc       1     0.425     1.008
   34241       H       1    MUSC   H00kd       1     0.425     1.008
   34242       H       1    MUSC   H00ke       1     0.425     1.008
   34243       H       1    MUSC   H00kf       1     0.425     1.008
   34244       H       1    MUSC   H00kg       1     0.425     1.008
   34245       H       1    MUSC   H00kh       1     0.425     1.008
   34246       H       1    MUSC   H00ki       1     0.425     1.008
   34247       H       1    MUSC   H00kj       1     0.425     1.008
   34248       H       1    MUSC   H00kk       1     0.425     1.008
   34249       H       1    MUSC   H00kl       1     0.425     1.008
   34250       H       1    MUSC   H00km       1     0.425     1.008
   34251       H       1    MUSC   H00kn       1     0.425     1.008
   34252       H       1    MUSC   H00ko       1     0.425     1.008
   34253       H       1    MUSC   H00kp       1     0.425     1.008
   34254       H       1    MUSC   H00kq       1     0.425     1.008
   34255       H       1    MUSC   H00kr       1     0.425     1.008
   34256       H       1    MUSC   H00ks       1     0.425     1.008
   34257       H       1    MUSC   H00kt       1     0.425     1.008
   34258       H       1    MUSC   H00ku       1     0.425     1.008
   34259       H       1    MUSC   H00kv       1     0.425     1.008
   34260       H       1    MUSC   H00kw       1     0.425     1.008
   34261       H       1    MUSC   H00kx       1     0.425     1.008
   34262       H       1    MUSC   H00ky       1     0.425     1.008
   34263       H       1    MUSC   H00kz       1     0.425     1.008
   34264       H       1    MUSC   H00l0       1     0.425     1.008
   34265       H       1    MUSC   H00l1       1     0.425     1.008
   34266       H       1    MUSC   H00l2       1     0.425     1.008
   34267       H       1    MUSC   H00l3       1     0.425     1.008
   34268       H       1    MUSC   H00l4       1     0.425     1.008
   34269       H       1    MUSC   H00l5       1     0.425     1.008
   34270       H       1    MUSC   H00l6       1     0.425     1.008
   34271       H       1    MUSC   H00l7       1     0.425     1.008
   34272       H       1    MUSC   H00l8       1     0.425     1.008
   34273       H       1    MUSC   H00l9       1     0.425     1.008
   34274       H       1    MUSC   H00lA       1     0.425     1.008
   34275       H       1    MUSC   H00lB       1     0.425     1.008
   34276       H       1    MUSC   H00lC       1     0.425     1.008
   34277       H       1    MUSC   H00lD       1     0.425     1.008
   34278       H       1    MUSC   H00lE       1     0.425     1.008
   34279       H       1    MUSC   H00lF       1     0.425     1.008
   34280       H       1    MUSC   H00lG       1     0.425     1.008
   34281       H       1    MUSC   H00lH       1     0.425     1.008
   34282       H       1    MUSC   H00lI       1     0.425     1.008
   34283       H       1    MUSC   H00lJ       1     0.425     1.008
   34284       H       1    MUSC   H00lK       1     0.425     1.008
   34285       H       1    MUSC   H00lL       1     0.425     1.008
   34286       H       1    MUSC   H00lM       1     0.425     1.008
   34287       H       1    MUSC   H00lN       1     0.425     1.008
   34288       H       1    MUSC   H00lO       1     0.425     1.008
   34289       H       1    MUSC   H00lP       1     0.425     1.008
   34290       H       1    MUSC   H00lQ       1     0.425     1.008
   34291       H       1    MUSC   H00lR       1     0.425     1.008
   34292       H       1    MUSC   H00lS       1     0.425     1.008
   34293       H       1    MUSC   H00lT       1     0.425     1.008
   34294       H       1    MUSC   H00lU       1     0.425     1.008
   34295       H       1    MUSC   H00lV       1     0.425     1.008
   34296       H       1    MUSC   H00lW       1     0.425     1.008
   34297       H       1    MUSC   H00lX       1     0.425     1.008
   34298       H       1    MUSC   H00lY       1     0.425     1.008
   34299       H       1    MUSC   H00lZ       1     0.425     1.008
   34300       H       1    MUSC   H00la       1     0.425     1.008
   34301       H       1    MUSC   H00lb       1     0.425     1.008
   34302       H       1    MUSC   H00lc       1     0.425     1.008
   34303       H       1    MUSC   H00ld       1     0.425     1.008
   34304       H       1    MUSC   H00le       1     0.425     1.008
   34305       H       1    MUSC   H00lf       1     0.425     1.008
   34306       H       1    MUSC   H00lg       1     0.425     1.008
   34307       H       1    MUSC   H00lh       1     0.425     1.008
   34308       H       1    MUSC   H00li       1     0.425     1.008
   34309       H       1    MUSC   H00lj       1     0.425     1.008
   34310       H       1    MUSC   H00lk       1     0.425     1.008
   34311       H       1    MUSC   H00ll       1     0.425     1.008
   34312       H       1    MUSC   H00lm       1     0.425     1.008
   34313       H       1    MUSC   H00ln       1     0.425     1.008
   34314       H       1    MUSC   H00lo       1     0.425     1.008
   34315       H       1    MUSC   H00lp       1     0.425     1.008
   34316       H       1    MUSC   H00lq       1     0.425     1.008
   34317       H       1    MUSC   H00lr       1     0.425     1.008
   34318       H       1    MUSC   H00ls       1     0.425     1.008
   34319       H       1    MUSC   H00lt       1     0.425     1.008
   34320       H       1    MUSC   H00lu       1     0.425     1.008
   34321       H       1    MUSC   H00lv       1     0.425     1.008
   34322       H       1    MUSC   H00lw       1     0.425     1.008
   34323       H       1    MUSC   H00lx       1     0.425     1.008
   34324       H       1    MUSC   H00ly       1     0.425     1.008
   34325       H       1    MUSC   H00lz       1     0.425     1.008
   34326       H       1    MUSC   H00m0       1     0.425     1.008
   34327       H       1    MUSC   H00m1       1     0.425     1.008
   34328       H       1    MUSC   H00m2       1     0.425     1.008
   34329       H       1    MUSC   H00m3       1     0.425     1.008
   34330       H       1    MUSC   H00m4       1     0.425     1.008
   34331       H       1    MUSC   H00m5       1     0.425     1.008
   34332       H       1    MUSC   H00m6       1     0.425     1.008
   34333       H       1    MUSC   H00m7       1     0.425     1.008
   34334       H       1    MUSC   H00m8       1     0.425     1.008
   34335       H       1    MUSC   H00m9       1     0.425     1.008
   34336       H       1    MUSC   H00mA       1     0.425     1.008
   34337       H       1    MUSC   H00mB       1     0.425     1.008
   34338       H       1    MUSC   H00mC       1     0.425     1.008
   34339       H       1    MUSC   H00mD       1     0.425     1.008
   34340       H       1    MUSC   H00mE       1     0.425     1.008
   34341       H       1    MUSC   H00mF       1     0.425     1.008
   34342       H       1    MUSC   H00mG       1     0.425     1.008
   34343       H       1    MUSC   H00mH       1     0.425     1.008
   34344       H       1    MUSC   H00mI       1     0.425     1.008
   34345       H       1    MUSC   H00mJ       1     0.425     1.008
   34346       H       1    MUSC   H00mK       1     0.425     1.008
   34347       H       1    MUSC   H00mL       1     0.425     1.008
   34348       H       1    MUSC   H00mM       1     0.425     1.008
   34349       H       1    MUSC   H00mN       1     0.425     1.008
   34350       H       1    MUSC   H00mO       1     0.425     1.008
   34351       H       1    MUSC   H00mP       1     0.425     1.008
   34352       H       1    MUSC   H00mQ       1     0.425     1.008
   34353       H       1    MUSC   H00mR       1     0.425     1.008
   34354       H       1    MUSC   H00mS       1     0.425     1.008
   34355       H       1    MUSC   H00mT       1     0.425     1.008
   34356       H       1    MUSC   H00mU       1     0.425     1.008
   34357       H       1    MUSC   H00mV       1     0.425     1.008
   34358       H       1    MUSC   H00mW       1     0.425     1.008
   34359       H       1    MUSC   H00mX       1     0.425     1.008
   34360       H       1    MUSC   H00mY       1     0.425     1.008
   34361       H       1    MUSC   H00mZ       1     0.425     1.008
   34362       H       1    MUSC   H00ma       1     0.425     1.008
   34363       H       1    MUSC   H00mb       1     0.425     1.008
   34364       H       1    MUSC   H00mc       1     0.425     1.008
   34365       H       1    MUSC   H00md       1     0.425     1.008
   34366       H       1    MUSC   H00me       1     0.425     1.008
   34367       H       1    MUSC   H00mf       1     0.425     1.008
   34368       H       1    MUSC   H00mg       1     0.425     1.008
   34369       H       1    MUSC   H00mh       1     0.425     1.008
   34370       H       1    MUSC   H00mi       1     0.425     1.008
   34371       H       1    MUSC   H00mj       1     0.425     1.008
   34372       H       1    MUSC   H00mk       1     0.425     1.008
   34373       H       1    MUSC   H00ml       1     0.425     1.008
   34374       H       1    MUSC   H00mm       1     0.425     1.008
   34375       H       1    MUSC   H00mn       1     0.425     1.008
   34376       H       1    MUSC   H00mo       1     0.425     1.008
   34377       H       1    MUSC   H00mp       1     0.425     1.008
   34378       H       1    MUSC   H00mq       1     0.425     1.008
   34379       H       1    MUSC   H00mr       1     0.425     1.008
   34380       H       1    MUSC   H00ms       1     0.425     1.008
   34381       H       1    MUSC   H00mt       1     0.425     1.008
   34382       H       1    MUSC   H00mu       1     0.425     1.008
   34383       H       1    MUSC   H00mv       1     0.425     1.008
   34384       H       1    MUSC   H00mw       1     0.425     1.008
   34385       H       1    MUSC   H00mx       1     0.425     1.008
   34386       H       1    MUSC   H00my       1     0.425     1.008
   34387       H       1    MUSC   H00mz       1     0.425     1.008
   34388       H       1    MUSC   H00n0       1     0.425     1.008
   34389       H       1    MUSC   H00n1       1     0.425     1.008
   34390       H       1    MUSC   H00n2       1     0.425     1.008
   34391       H       1    MUSC   H00n3       1     0.425     1.008
   34392       H       1    MUSC   H00n4       1     0.425     1.008
   34393       H       1    MUSC   H00n5       1     0.425     1.008
   34394       H       1    MUSC   H00n6       1     0.425     1.008
   34395       H       1    MUSC   H00n7       1     0.425     1.008
   34396       H       1    MUSC   H00n8       1     0.425     1.008
   34397       H       1    MUSC   H00n9       1     0.425     1.008
   34398       H       1    MUSC   H00nA       1     0.425     1.008
   34399       H       1    MUSC   H00nB       1     0.425     1.008
   34400       H       1    MUSC   H00nC       1     0.425     1.008
   34401       H       1    MUSC   H00nD       1     0.425     1.008
   34402       H       1    MUSC   H00nE       1     0.425     1.008
   34403       H       1    MUSC   H00nF       1     0.425     1.008
   34404       H       1    MUSC   H00nG       1     0.425     1.008
   34405       H       1    MUSC   H00nH       1     0.425     1.008
   34406       H       1    MUSC   H00nI       1     0.425     1.008
   34407       H       1    MUSC   H00nJ       1     0.425     1.008
   34408       H       1    MUSC   H00nK       1     0.425     1.008
   34409       H       1    MUSC   H00nL       1     0.425     1.008
   34410       H       1    MUSC   H00nM       1     0.425     1.008
   34411       H       1    MUSC   H00nN       1     0.425     1.008
   34412       H       1    MUSC   H00nO       1     0.425     1.008
   34413       H       1    MUSC   H00nP       1     0.425     1.008
   34414       H       1    MUSC   H00nQ       1     0.425     1.008
   34415       H       1    MUSC   H00nR       1     0.425     1.008
   34416       H       1    MUSC   H00nS       1     0.425     1.008
   34417       H       1    MUSC   H00nT       1     0.425     1.008
   34418       H       1    MUSC   H00nU       1     0.425     1.008
   34419       H       1    MUSC   H00nV       1     0.425     1.008
   34420       H       1    MUSC   H00nW       1     0.425     1.008
   34421       H       1    MUSC   H00nX       1     0.425     1.008
   34422       H       1    MUSC   H00nY       1     0.425     1.008
   34423       H       1    MUSC   H00nZ       1     0.425     1.008
   34424       H       1    MUSC   H00na       1     0.425     1.008
   34425       H       1    MUSC   H00nb       1     0.425     1.008
   34426       H       1    MUSC   H00nc       1     0.425     1.008
   34427       H       1    MUSC   H00nd       1     0.425     1.008
   34428       H       1    MUSC   H00ne       1     0.425     1.008
   34429       H       1    MUSC   H00nf       1     0.425     1.008
   34430       H       1    MUSC   H00ng       1     0.425     1.008
   34431       H       1    MUSC   H00nh       1     0.425     1.008
   34432       H       1    MUSC   H00ni       1     0.425     1.008
   34433       H       1    MUSC   H00nj       1     0.425     1.008
   34434       H       1    MUSC   H00nk       1     0.425     1.008
   34435       H       1    MUSC   H00nl       1     0.425     1.008
   34436       H       1    MUSC   H00nm       1     0.425     1.008
   34437       H       1    MUSC   H00nn       1     0.425     1.008
   34438       H       1    MUSC   H00no       1     0.425     1.008
   34439       H       1    MUSC   H00np       1     0.425     1.008
   34440       H       1    MUSC   H00nq       1     0.425     1.008
   34441       H       1    MUSC   H00nr       1     0.425     1.008
   34442       H       1    MUSC   H00ns       1     0.425     1.008
   34443       H       1    MUSC   H00nt       1     0.425     1.008
   34444       H       1    MUSC   H00nu       1     0.425     1.008
   34445       H       1    MUSC   H00nv       1     0.425     1.008
   34446       H       1    MUSC   H00nw       1     0.425     1.008
   34447       H       1    MUSC   H00nx       1     0.425     1.008
   34448       H       1    MUSC   H00ny       1     0.425     1.008
   34449       H       1    MUSC   H00nz       1     0.425     1.008
   34450       H       1    MUSC   H00o0       1     0.425     1.008
   34451       H       1    MUSC   H00o1       1     0.425     1.008
   34452       H       1    MUSC   H00o2       1     0.425     1.008
   34453       H       1    MUSC   H00o3       1     0.425     1.008
   34454       H       1    MUSC   H00o4       1     0.425     1.008
   34455       H       1    MUSC   H00o5       1     0.425     1.008
   34456       H       1    MUSC   H00o6       1     0.425     1.008
   34457       H       1    MUSC   H00o7       1     0.425     1.008
   34458       H       1    MUSC   H00o8       1     0.425     1.008
   34459       H       1    MUSC   H00o9       1     0.425     1.008
   34460       H       1    MUSC   H00oA       1     0.425     1.008
   34461       H       1    MUSC   H00oB       1     0.425     1.008
   34462       H       1    MUSC   H00oC       1     0.425     1.008
   34463       H       1    MUSC   H00oD       1     0.425     1.008
   34464       H       1    MUSC   H00oE       1     0.425     1.008
   34465       H       1    MUSC   H00oF       1     0.425     1.008
   34466       H       1    MUSC   H00oG       1     0.425     1.008
   34467       H       1    MUSC   H00oH       1     0.425     1.008
   34468       H       1    MUSC   H00oI       1     0.425     1.008
   34469       H       1    MUSC   H00oJ       1     0.425     1.008
   34470       H       1    MUSC   H00oK       1     0.425     1.008
   34471       H       1    MUSC   H00oL       1     0.425     1.008
   34472       H       1    MUSC   H00oM       1     0.425     1.008
   34473       H       1    MUSC   H00oN       1     0.425     1.008
   34474       H       1    MUSC   H00oO       1     0.425     1.008
   34475       H       1    MUSC   H00oP       1     0.425     1.008
   34476       H       1    MUSC   H00oQ       1     0.425     1.008
   34477       H       1    MUSC   H00oR       1     0.425     1.008
   34478       H       1    MUSC   H00oS       1     0.425     1.008
   34479       H       1    MUSC   H00oT       1     0.425     1.008
   34480       H       1    MUSC   H00oU       1     0.425     1.008
   34481       H       1    MUSC   H00oV       1     0.425     1.008
   34482       H       1    MUSC   H00oW       1     0.425     1.008
   34483       H       1    MUSC   H00oX       1     0.425     1.008
   34484       H       1    MUSC   H00oY       1     0.425     1.008
   34485       H       1    MUSC   H00oZ       1     0.425     1.008
   34486       H       1    MUSC   H00oa       1     0.425     1.008
   34487       H       1    MUSC   H00ob       1     0.425     1.008
   34488       H       1    MUSC   H00oc       1     0.425     1.008
   34489       H       1    MUSC   H00od       1     0.425     1.008
   34490       H       1    MUSC   H00oe       1     0.425     1.008
   34491       H       1    MUSC   H00of       1     0.425     1.008
   34492       H       1    MUSC   H00og       1     0.425     1.008
   34493       H       1    MUSC   H00oh       1     0.425     1.008
   34494       H       1    MUSC   H00oi       1     0.425     1.008
   34495       H       1    MUSC   H00oj       1     0.425     1.008
   34496       H       1    MUSC   H00ok       1     0.425     1.008
   34497       H       1    MUSC   H00ol       1     0.425     1.008
   34498       H       1    MUSC   H00om       1     0.425     1.008
   34499       H       1    MUSC   H00on       1     0.425     1.008
   34500       H       1    MUSC   H00oo       1     0.425     1.008
   34501       H       1    MUSC   H00op       1     0.425     1.008
   34502       H       1    MUSC   H00oq       1     0.425     1.008
   34503       H       1    MUSC   H00or       1     0.425     1.008
   34504       H       1    MUSC   H00os       1     0.425     1.008
   34505       H       1    MUSC   H00ot       1     0.425     1.008
   34506       H       1    MUSC   H00ou       1     0.425     1.008
   34507       H       1    MUSC   H00ov       1     0.425     1.008
   34508       H       1    MUSC   H00ow       1     0.425     1.008
   34509       H       1    MUSC   H00ox       1     0.425     1.008
   34510       H       1    MUSC   H00oy       1     0.425     1.008
   34511       H       1    MUSC   H00oz       1     0.425     1.008
   34512       H       1    MUSC   H00p0       1     0.425     1.008
   34513       H       1    MUSC   H00p1       1     0.425     1.008
   34514       H       1    MUSC   H00p2       1     0.425     1.008
   34515       H       1    MUSC   H00p3       1     0.425     1.008
   34516       H       1    MUSC   H00p4       1     0.425     1.008
   34517       H       1    MUSC   H00p5       1     0.425     1.008
   34518       H       1    MUSC   H00p6       1     0.425     1.008
   34519       H       1    MUSC   H00p7       1     0.425     1.008
   34520       H       1    MUSC   H00p8       1     0.425     1.008
   34521       H       1    MUSC   H00p9       1     0.425     1.008
   34522       H       1    MUSC   H00pA       1     0.425     1.008
   34523       H       1    MUSC   H00pB       1     0.425     1.008
   34524       H       1    MUSC   H00pC       1     0.425     1.008
   34525       H       1    MUSC   H00pD       1     0.425     1.008
   34526       H       1    MUSC   H00pE       1     0.425     1.008
   34527       H       1    MUSC   H00pF       1     0.425     1.008
   34528       H       1    MUSC   H00pG       1     0.425     1.008
   34529       H       1    MUSC   H00pH       1     0.425     1.008
   34530       H       1    MUSC   H00pI       1     0.425     1.008
   34531       H       1    MUSC   H00pJ       1     0.425     1.008
   34532       H       1    MUSC   H00pK       1     0.425     1.008
   34533       H       1    MUSC   H00pL       1     0.425     1.008
   34534       H       1    MUSC   H00pM       1     0.425     1.008
   34535       H       1    MUSC   H00pN       1     0.425     1.008
   34536       H       1    MUSC   H00pO       1     0.425     1.008
   34537       H       1    MUSC   H00pP       1     0.425     1.008
   34538       H       1    MUSC   H00pQ       1     0.425     1.008
   34539       H       1    MUSC   H00pR       1     0.425     1.008
   34540       H       1    MUSC   H00pS       1     0.425     1.008
   34541       H       1    MUSC   H00pT       1     0.425     1.008
   34542       H       1    MUSC   H00pU       1     0.425     1.008
   34543       H       1    MUSC   H00pV       1     0.425     1.008
   34544       H       1    MUSC   H00pW       1     0.425     1.008
   34545       H       1    MUSC   H00pX       1     0.425     1.008
   34546       H       1    MUSC   H00pY       1     0.425     1.008
   34547       H       1    MUSC   H00pZ       1     0.425     1.008
   34548       H       1    MUSC   H00pa       1     0.425     1.008
   34549       H       1    MUSC   H00pb       1     0.425     1.008
   34550       H       1    MUSC   H00pc       1     0.425     1.008
   34551       H       1    MUSC   H00pd       1     0.425     1.008
   34552       H       1    MUSC   H00pe       1     0.425     1.008
   34553       H       1    MUSC   H00pf       1     0.425     1.008
   34554       H       1    MUSC   H00pg       1     0.425     1.008
   34555       H       1    MUSC   H00ph       1     0.425     1.008
   34556       H       1    MUSC   H00pi       1     0.425     1.008
   34557       H       1    MUSC   H00pj       1     0.425     1.008
   34558       H       1    MUSC   H00pk       1     0.425     1.008
   34559       H       1    MUSC   H00pl       1     0.425     1.008
   34560       H       1    MUSC   H00pm       1     0.425     1.008
   34561       H       1    MUSC   H00pn       1     0.425     1.008
   34562       H       1    MUSC   H00po       1     0.425     1.008
   34563       H       1    MUSC   H00pp       1     0.425     1.008
   34564       H       1    MUSC   H00pq       1     0.425     1.008
   34565       H       1    MUSC   H00pr       1     0.425     1.008
   34566       H       1    MUSC   H00ps       1     0.425     1.008
   34567       H       1    MUSC   H00pt       1     0.425     1.008
   34568       H       1    MUSC   H00pu       1     0.425     1.008
   34569       H       1    MUSC   H00pv       1     0.425     1.008
   34570       H       1    MUSC   H00pw       1     0.425     1.008
   34571       H       1    MUSC   H00px       1     0.425     1.008
   34572       H       1    MUSC   H00py       1     0.425     1.008
   34573       H       1    MUSC   H00pz       1     0.425     1.008
   34574       H       1    MUSC   H00q0       1     0.425     1.008
   34575       H       1    MUSC   H00q1       1     0.425     1.008
   34576       H       1    MUSC   H00q2       1     0.425     1.008
   34577       H       1    MUSC   H00q3       1     0.425     1.008
   34578       H       1    MUSC   H00q4       1     0.425     1.008
   34579       H       1    MUSC   H00q5       1     0.425     1.008
   34580       H       1    MUSC   H00q6       1     0.425     1.008
   34581       H       1    MUSC   H00q7       1     0.425     1.008
   34582       H       1    MUSC   H00q8       1     0.425     1.008
   34583       H       1    MUSC   H00q9       1     0.425     1.008
   34584       H       1    MUSC   H00qA       1     0.425     1.008
   34585       H       1    MUSC   H00qB       1     0.425     1.008
   34586       H       1    MUSC   H00qC       1     0.425     1.008
   34587       H       1    MUSC   H00qD       1     0.425     1.008
   34588       H       1    MUSC   H00qE       1     0.425     1.008
   34589       H       1    MUSC   H00qF       1     0.425     1.008
   34590       H       1    MUSC   H00qG       1     0.425     1.008
   34591       H       1    MUSC   H00qH       1     0.425     1.008
   34592       H       1    MUSC   H00qI       1     0.425     1.008
   34593       H       1    MUSC   H00qJ       1     0.425     1.008
   34594       H       1    MUSC   H00qK       1     0.425     1.008
   34595       H       1    MUSC   H00qL       1     0.425     1.008
   34596       H       1    MUSC   H00qM       1     0.425     1.008
   34597       H       1    MUSC   H00qN       1     0.425     1.008
   34598       H       1    MUSC   H00qO       1     0.425     1.008
   34599       H       1    MUSC   H00qP       1     0.425     1.008
   34600       H       1    MUSC   H00qQ       1     0.425     1.008
   34601       H       1    MUSC   H00qR       1     0.425     1.008
   34602       H       1    MUSC   H00qS       1     0.425     1.008
   34603       H       1    MUSC   H00qT       1     0.425     1.008
   34604       H       1    MUSC   H00qU       1     0.425     1.008
   34605       H       1    MUSC   H00qV       1     0.425     1.008
   34606       H       1    MUSC   H00qW       1     0.425     1.008
   34607       H       1    MUSC   H00qX       1     0.425     1.008
   34608       H       1    MUSC   H00qY       1     0.425     1.008
   34609       H       1    MUSC   H00qZ       1     0.425     1.008
   34610       H       1    MUSC   H00qa       1     0.425     1.008
   34611       H       1    MUSC   H00qb       1     0.425     1.008
   34612       H       1    MUSC   H00qc       1     0.425     1.008
   34613       H       1    MUSC   H00qd       1     0.425     1.008
   34614       H       1    MUSC   H00qe       1     0.425     1.008
   34615       H       1    MUSC   H00qf       1     0.425     1.008
   34616       H       1    MUSC   H00qg       1     0.425     1.008
   34617       H       1    MUSC   H00qh       1     0.425     1.008
   34618       H       1    MUSC   H00qi       1     0.425     1.008
   34619       H       1    MUSC   H00qj       1     0.425     1.008
   34620       H       1    MUSC   H00qk       1     0.425     1.008
   34621       H       1    MUSC   H00ql       1     0.425     1.008
   34622       H       1    MUSC   H00qm       1     0.425     1.008
   34623       H       1    MUSC   H00qn       1     0.425     1.008
   34624       H       1    MUSC   H00qo       1     0.425     1.008
   34625       H       1    MUSC   H00qp       1     0.425     1.008
   34626       H       1    MUSC   H00qq       1     0.425     1.008
   34627       H       1    MUSC   H00qr       1     0.425     1.008
   34628       H       1    MUSC   H00qs       1     0.425     1.008
   34629       H       1    MUSC   H00qt       1     0.425     1.008
   34630       H       1    MUSC   H00qu       1     0.425     1.008
   34631       H       1    MUSC   H00qv       1     0.425     1.008
   34632       H       1    MUSC   H00qw       1     0.425     1.008
   34633       H       1    MUSC   H00qx       1     0.425     1.008
   34634       H       1    MUSC   H00qy       1     0.425     1.008
   34635       H       1    MUSC   H00qz       1     0.425     1.008
   34636       H       1    MUSC   H00r0       1     0.425     1.008
   34637       H       1    MUSC   H00r1       1     0.425     1.008
   34638       H       1    MUSC   H00r2       1     0.425     1.008
   34639       H       1    MUSC   H00r3       1     0.425     1.008
   34640       H       1    MUSC   H00r4       1     0.425     1.008
   34641       H       1    MUSC   H00r5       1     0.425     1.008
   34642       H       1    MUSC   H00r6       1     0.425     1.008
   34643       H       1    MUSC   H00r7       1     0.425     1.008
   34644       H       1    MUSC   H00r8       1     0.425     1.008
   34645       H       1    MUSC   H00r9       1     0.425     1.008
   34646       H       1    MUSC   H00rA       1     0.425     1.008
   34647       H       1    MUSC   H00rB       1     0.425     1.008
   34648       H       1    MUSC   H00rC       1     0.425     1.008
   34649       H       1    MUSC   H00rD       1     0.425     1.008
   34650       H       1    MUSC   H00rE       1     0.425     1.008
   34651       H       1    MUSC   H00rF       1     0.425     1.008
   34652       H       1    MUSC   H00rG       1     0.425     1.008
   34653       H       1    MUSC   H00rH       1     0.425     1.008
   34654       H       1    MUSC   H00rI       1     0.425     1.008
   34655       H       1    MUSC   H00rJ       1     0.425     1.008
   34656       H       1    MUSC   H00rK       1     0.425     1.008
   34657       H       1    MUSC   H00rL       1     0.425     1.008
   34658       H       1    MUSC   H00rM       1     0.425     1.008
   34659       H       1    MUSC   H00rN       1     0.425     1.008
   34660       H       1    MUSC   H00rO       1     0.425     1.008
   34661       H       1    MUSC   H00rP       1     0.425     1.008
   34662       H       1    MUSC   H00rQ       1     0.425     1.008
   34663       H       1    MUSC   H00rR       1     0.425     1.008
   34664       H       1    MUSC   H00rS       1     0.425     1.008
   34665       H       1    MUSC   H00rT       1     0.425     1.008
   34666       H       1    MUSC   H00rU       1     0.425     1.008
   34667       H       1    MUSC   H00rV       1     0.425     1.008
   34668       H       1    MUSC   H00rW       1     0.425     1.008
   34669       H       1    MUSC   H00rX       1     0.425     1.008
   34670       H       1    MUSC   H00rY       1     0.425     1.008
   34671       H       1    MUSC   H00rZ       1     0.425     1.008
   34672       H       1    MUSC   H00ra       1     0.425     1.008
   34673       H       1    MUSC   H00rb       1     0.425     1.008
   34674       H       1    MUSC   H00rc       1     0.425     1.008
   34675       H       1    MUSC   H00rd       1     0.425     1.008
   34676       H       1    MUSC   H00re       1     0.425     1.008
   34677       H       1    MUSC   H00rf       1     0.425     1.008
   34678       H       1    MUSC   H00rg       1     0.425     1.008
   34679       H       1    MUSC   H00rh       1     0.425     1.008
   34680       H       1    MUSC   H00ri       1     0.425     1.008
   34681       H       1    MUSC   H00rj       1     0.425     1.008
   34682       H       1    MUSC   H00rk       1     0.425     1.008
   34683       H       1    MUSC   H00rl       1     0.425     1.008
   34684       H       1    MUSC   H00rm       1     0.425     1.008
   34685       H       1    MUSC   H00rn       1     0.425     1.008
   34686       H       1    MUSC   H00ro       1     0.425     1.008
   34687       H       1    MUSC   H00rp       1     0.425     1.008
   34688       H       1    MUSC   H00rq       1     0.425     1.008
   34689       H       1    MUSC   H00rr       1     0.425     1.008
   34690       H       1    MUSC   H00rs       1     0.425     1.008
   34691       H       1    MUSC   H00rt       1     0.425     1.008
   34692       H       1    MUSC   H00ru       1     0.425     1.008
   34693       H       1    MUSC   H00rv       1     0.425     1.008
   34694       H       1    MUSC   H00rw       1     0.425     1.008


[ bonds ]
;      i       j    func      b0
      31   31351       1
      32   31352       1
      33   31353       1
      34   31354       1
      55   31355       1
      56   31356       1
      57   31357       1
      58   31358       1
     107   31359       1
     108   31360       1
     109   31361       1
     110   31362       1
     131   31363       1
     132   31364       1
     133   31365       1
     134   31366       1
     181   31367       1
     182   31368       1
     183   31369       1
     184   31370       1
     205   31371       1
     206   31372       1
     207   31373       1
     208   31374       1
     257   31375       1
     258   31376       1
     259   31377       1
     260   31378       1
     281   31379       1
     282   31380       1
     283   31381       1
     284   31382       1
     331   31383       1
     332   31384       1
     333   31385       1
     334   31386       1
     355   31387       1
     356   31388       1
     357   31389       1
     358   31390       1
     407   31391       1
     408   31392       1
     409   31393       1
     410   31394       1
     431   31395       1
     432   31396       1
     433   31397       1
     434   31398       1
     481   31399       1
     482   31400       1
     483   31401       1
     484   31402       1
     505   31403       1
     506   31404       1
     507   31405       1
     508   31406       1
     557   31407       1
     558   31408       1
     559   31409       1
     560   31410       1
     581   31411       1
     582   31412       1
     583   31413       1
     584   31414       1
     631   31415       1
     632   31416       1
     633   31417       1
     634   31418       1
     655   31419       1
     656   31420       1
     657   31421       1
     658   31422       1
     707   31423       1
     708   31424       1
     709   31425       1
     710   31426       1
     731   31427       1
     732   31428       1
     733   31429       1
     734   31430       1
     781   31431       1
     782   31432       1
     783   31433       1
     784   31434       1
     805   31435       1
     806   31436       1
     807   31437       1
     808   31438       1
     857   31439       1
     858   31440       1
     859   31441       1
     860   31442       1
     881   31443       1
     882   31444       1
     883   31445       1
     884   31446       1
     931   31447       1
     932   31448       1
     933   31449       1
     934   31450       1
     955   31451       1
     956   31452       1
     957   31453       1
     958   31454       1
    1007   31455       1
    1008   31456       1
    1009   31457       1
    1010   31458       1
    1031   31459       1
    1032   31460       1
    1033   31461       1
    1034   31462       1
    1081   31463       1
    1082   31464       1
    1083   31465       1
    1084   31466       1
    1105   31467       1
    1106   31468       1
    1107   31469       1
    1108   31470       1
    1157   31471       1
    1158   31472       1
    1159   31473       1
    1160   31474       1
    1181   31475       1
    1182   31476       1
    1183   31477       1
    1184   31478       1
    1231   31479       1
    1232   31480       1
    1233   31481       1
    1234   31482       1
    1255   31483       1
    1256   31484       1
    1257   31485       1
    1258   31486       1
    1307   31487       1
    1308   31488       1
    1309   31489       1
    1310   31490       1
    1331   31491       1
    1332   31492       1
    1333   31493       1
    1334   31494       1
    1381   31495       1
    1382   31496       1
    1383   31497       1
    1384   31498       1
    1405   31499       1
    1406   31500       1
    1407   31501       1
    1408   31502       1
    1457   31503       1
    1458   31504       1
    1459   31505       1
    1460   31506       1
    1481   31507       1
    1482   31508       1
    1483   31509       1
    1484   31510       1
    1531   31511       1
    1532   31512       1
    1533   31513       1
    1534   31514       1
    1555   31515       1
    1556   31516       1
    1557   31517       1
    1558   31518       1
    1607   31519       1
    1608   31520       1
    1609   31521       1
    1610   31522       1
    1631   31523       1
    1632   31524       1
    1633   31525       1
    1634   31526       1
    1681   31527       1
    1682   31528       1
    1683   31529       1
    1684   31530       1
    1705   31531       1
    1706   31532       1
    1707   31533       1
    1708   31534       1
    1757   31535       1
    1758   31536       1
    1759   31537       1
    1760   31538       1
    1781   31539       1
    1782   31540       1
    1783   31541       1
    1784   31542       1
    1831   31543       1
    1832   31544       1
    1833   31545       1
    1834   31546       1
    1855   31547       1
    1856   31548       1
    1857   31549       1
    1858   31550       1
    1907   31551       1
    1908   31552       1
    1909   31553       1
    1910   31554       1
    1931   31555       1
    1932   31556       1
    1933   31557       1
    1934   31558       1
    1981   31559       1
    1982   31560       1
    1983   31561       1
    1984   31562       1
    2005   31563       1
    2006   31564       1
    2007   31565       1
    2008   31566       1
    2057   31567       1
    2058   31568       1
    2059   31569       1
    2060   31570       1
    2081   31571       1
    2082   31572       1
    2083   31573       1
    2084   31574       1
    2131   31575       1
    2132   31576       1
    2133   31577       1
    2134   31578       1
    2155   31579       1
    2156   31580       1
    2157   31581       1
    2158   31582       1
    2207   31583       1
    2208   31584       1
    2209   31585       1
    2210   31586       1
    2231   31587       1
    2232   31588       1
    2233   31589       1
    2234   31590       1
    2281   31591       1
    2282   31592       1
    2283   31593       1
    2284   31594       1
    2305   31595       1
    2306   31596       1
    2307   31597       1
    2308   31598       1
    2357   31599       1
    2358   31600       1
    2359   31601       1
    2360   31602       1
    2381   31603       1
    2382   31604       1
    2383   31605       1
    2384   31606       1
    2431   31607       1
    2432   31608       1
    2433   31609       1
    2434   31610       1
    2455   31611       1
    2456   31612       1
    2457   31613       1
    2458   31614       1
    2507   31615       1
    2508   31616       1
    2509   31617       1
    2510   31618       1
    2531   31619       1
    2532   31620       1
    2533   31621       1
    2534   31622       1
    2581   31623       1
    2582   31624       1
    2583   31625       1
    2584   31626       1
    2605   31627       1
    2606   31628       1
    2607   31629       1
    2608   31630       1
    2657   31631       1
    2658   31632       1
    2659   31633       1
    2660   31634       1
    2681   31635       1
    2682   31636       1
    2683   31637       1
    2684   31638       1
    2731   31639       1
    2732   31640       1
    2733   31641       1
    2734   31642       1
    2755   31643       1
    2756   31644       1
    2757   31645       1
    2758   31646       1
    2807   31647       1
    2808   31648       1
    2809   31649       1
    2810   31650       1
    2831   31651       1
    2832   31652       1
    2833   31653       1
    2834   31654       1
    2881   31655       1
    2882   31656       1
    2883   31657       1
    2884   31658       1
    2905   31659       1
    2906   31660       1
    2907   31661       1
    2908   31662       1
    2957   31663       1
    2958   31664       1
    2959   31665       1
    2960   31666       1
    2981   31667       1
    2982   31668       1
    2983   31669       1
    2984   31670       1
    3031   31671       1
    3032   31672       1
    3033   31673       1
    3034   31674       1
    3055   31675       1
    3056   31676       1
    3057   31677       1
    3058   31678       1
    3107   31679       1
    3108   31680       1
    3109   31681       1
    3110   31682       1
    3131   31683       1
    3132   31684       1
    3133   31685       1
    3134   31686       1
    3181   31687       1
    3182   31688       1
    3183   31689       1
    3184   31690       1
    3205   31691       1
    3206   31692       1
    3207   31693       1
    3208   31694       1
    3257   31695       1
    3258   31696       1
    3259   31697       1
    3260   31698       1
    3281   31699       1
    3282   31700       1
    3283   31701       1
    3284   31702       1
    3331   31703       1
    3332   31704       1
    3333   31705       1
    3334   31706       1
    3355   31707       1
    3356   31708       1
    3357   31709       1
    3358   31710       1
    3407   31711       1
    3408   31712       1
    3409   31713       1
    3410   31714       1
    3431   31715       1
    3432   31716       1
    3433   31717       1
    3434   31718       1
    3481   31719       1
    3482   31720       1
    3483   31721       1
    3484   31722       1
    3505   31723       1
    3506   31724       1
    3507   31725       1
    3508   31726       1
    3557   31727       1
    3558   31728       1
    3559   31729       1
    3560   31730       1
    3581   31731       1
    3582   31732       1
    3583   31733       1
    3584   31734       1
    3631   31735       1
    3632   31736       1
    3633   31737       1
    3634   31738       1
    3655   31739       1
    3656   31740       1
    3657   31741       1
    3658   31742       1
    3707   31743       1
    3708   31744       1
    3709   31745       1
    3710   31746       1
    3731   31747       1
    3732   31748       1
    3733   31749       1
    3734   31750       1
    3781   31751       1
    3782   31752       1
    3783   31753       1
    3784   31754       1
    3805   31755       1
    3806   31756       1
    3807   31757       1
    3808   31758       1
    3857   31759       1
    3858   31760       1
    3859   31761       1
    3860   31762       1
    3881   31763       1
    3882   31764       1
    3883   31765       1
    3884   31766       1
    3931   31767       1
    3932   31768       1
    3933   31769       1
    3934   31770       1
    3955   31771       1
    3956   31772       1
    3957   31773       1
    3958   31774       1
    4007   31775       1
    4008   31776       1
    4009   31777       1
    4010   31778       1
    4031   31779       1
    4032   31780       1
    4033   31781       1
    4034   31782       1
    4081   31783       1
    4082   31784       1
    4083   31785       1
    4084   31786       1
    4105   31787       1
    4106   31788       1
    4107   31789       1
    4108   31790       1
    4157   31791       1
    4158   31792       1
    4159   31793       1
    4160   31794       1
    4181   31795       1
    4182   31796       1
    4183   31797       1
    4184   31798       1
    4231   31799       1
    4232   31800       1
    4233   31801       1
    4234   31802       1
    4255   31803       1
    4256   31804       1
    4257   31805       1
    4258   31806       1
    4307   31807       1
    4308   31808       1
    4309   31809       1
    4310   31810       1
    4331   31811       1
    4332   31812       1
    4333   31813       1
    4334   31814       1
    4381   31815       1
    4382   31816       1
    4383   31817       1
    4384   31818       1
    4405   31819       1
    4406   31820       1
    4407   31821       1
    4408   31822       1
    4457   31823       1
    4458   31824       1
    4459   31825       1
    4460   31826       1
    4481   31827       1
    4482   31828       1
    4483   31829       1
    4484   31830       1
    4531   31831       1
    4532   31832       1
    4533   31833       1
    4534   31834       1
    4555   31835       1
    4556   31836       1
    4557   31837       1
    4558   31838       1
    4607   31839       1
    4608   31840       1
    4609   31841       1
    4610   31842       1
    4631   31843       1
    4632   31844       1
    4633   31845       1
    4634   31846       1
    4681   31847       1
    4682   31848       1
    4683   31849       1
    4684   31850       1
    4705   31851       1
    4706   31852       1
    4707   31853       1
    4708   31854       1
    4757   31855       1
    4758   31856       1
    4759   31857       1
    4760   31858       1
    4781   31859       1
    4782   31860       1
    4783   31861       1
    4784   31862       1
    4831   31863       1
    4832   31864       1
    4833   31865       1
    4834   31866       1
    4855   31867       1
    4856   31868       1
    4857   31869       1
    4858   31870       1
    4907   31871       1
    4908   31872       1
    4909   31873       1
    4910   31874       1
    4931   31875       1
    4932   31876       1
    4933   31877       1
    4934   31878       1
    4981   31879       1
    4982   31880       1
    4983   31881       1
    4984   31882       1
    5005   31883       1
    5006   31884       1
    5007   31885       1
    5008   31886       1
    5057   31887       1
    5058   31888       1
    5059   31889       1
    5060   31890       1
    5081   31891       1
    5082   31892       1
    5083   31893       1
    5084   31894       1
    5131   31895       1
    5132   31896       1
    5133   31897       1
    5134   31898       1
    5155   31899       1
    5156   31900       1
    5157   31901       1
    5158   31902       1
    5207   31903       1
    5208   31904       1
    5209   31905       1
    5210   31906       1
    5231   31907       1
    5232   31908       1
    5233   31909       1
    5234   31910       1
    5281   31911       1
    5282   31912       1
    5283   31913       1
    5284   31914       1
    5305   31915       1
    5306   31916       1
    5307   31917       1
    5308   31918       1
    5357   31919       1
    5358   31920       1
    5359   31921       1
    5360   31922       1
    5381   31923       1
    5382   31924       1
    5383   31925       1
    5384   31926       1
    5431   31927       1
    5432   31928       1
    5433   31929       1
    5434   31930       1
    5455   31931       1
    5456   31932       1
    5457   31933       1
    5458   31934       1
    5507   31935       1
    5508   31936       1
    5509   31937       1
    5510   31938       1
    5531   31939       1
    5532   31940       1
    5533   31941       1
    5534   31942       1
    5581   31943       1
    5582   31944       1
    5583   31945       1
    5584   31946       1
    5605   31947       1
    5606   31948       1
    5607   31949       1
    5608   31950       1
    5657   31951       1
    5658   31952       1
    5659   31953       1
    5660   31954       1
    5681   31955       1
    5682   31956       1
    5683   31957       1
    5684   31958       1
    5731   31959       1
    5732   31960       1
    5733   31961       1
    5734   31962       1
    5755   31963       1
    5756   31964       1
    5757   31965       1
    5758   31966       1
    5807   31967       1
    5808   31968       1
    5809   31969       1
    5810   31970       1
    5831   31971       1
    5832   31972       1
    5833   31973       1
    5834   31974       1
    5881   31975       1
    5882   31976       1
    5883   31977       1
    5884   31978       1
    5905   31979       1
    5906   31980       1
    5907   31981       1
    5908   31982       1
    5957   31983       1
    5958   31984       1
    5959   31985       1
    5960   31986       1
    5981   31987       1
    5982   31988       1
    5983   31989       1
    5984   31990       1
    6031   31991       1
    6032   31992       1
    6033   31993       1
    6034   31994       1
    6055   31995       1
    6056   31996       1
    6057   31997       1
    6058   31998       1
    6107   31999       1
    6108   32000       1
    6109   32001       1
    6110   32002       1
    6131   32003       1
    6132   32004       1
    6133   32005       1
    6134   32006       1
    6181   32007       1
    6182   32008       1
    6183   32009       1
    6184   32010       1
    6205   32011       1
    6206   32012       1
    6207   32013       1
    6208   32014       1
    6257   32015       1
    6258   32016       1
    6259   32017       1
    6260   32018       1
    6281   32019       1
    6282   32020       1
    6283   32021       1
    6284   32022       1
    6331   32023       1
    6332   32024       1
    6333   32025       1
    6334   32026       1
    6355   32027       1
    6356   32028       1
    6357   32029       1
    6358   32030       1
    6407   32031       1
    6408   32032       1
    6409   32033       1
    6410   32034       1
    6431   32035       1
    6432   32036       1
    6433   32037       1
    6434   32038       1
    6481   32039       1
    6482   32040       1
    6483   32041       1
    6484   32042       1
    6505   32043       1
    6506   32044       1
    6507   32045       1
    6508   32046       1
    6557   32047       1
    6558   32048       1
    6559   32049       1
    6560   32050       1
    6581   32051       1
    6582   32052       1
    6583   32053       1
    6584   32054       1
    6631   32055       1
    6632   32056       1
    6633   32057       1
    6634   32058       1
    6655   32059       1
    6656   32060       1
    6657   32061       1
    6658   32062       1
    6707   32063       1
    6708   32064       1
    6709   32065       1
    6710   32066       1
    6731   32067       1
    6732   32068       1
    6733   32069       1
    6734   32070       1
    6781   32071       1
    6782   32072       1
    6783   32073       1
    6784   32074       1
    6805   32075       1
    6806   32076       1
    6807   32077       1
    6808   32078       1
    6857   32079       1
    6858   32080       1
    6859   32081       1
    6860   32082       1
    6881   32083       1
    6882   32084       1
    6883   32085       1
    6884   32086       1
    6931   32087       1
    6932   32088       1
    6933   32089       1
    6934   32090       1
    6955   32091       1
    6956   32092       1
    6957   32093       1
    6958   32094       1
    7007   32095       1
    7008   32096       1
    7009   32097       1
    7010   32098       1
    7031   32099       1
    7032   32100       1
    7033   32101       1
    7034   32102       1
    7081   32103       1
    7082   32104       1
    7083   32105       1
    7084   32106       1
    7105   32107       1
    7106   32108       1
    7107   32109       1
    7108   32110       1
    7157   32111       1
    7158   32112       1
    7159   32113       1
    7160   32114       1
    7181   32115       1
    7182   32116       1
    7183   32117       1
    7184   32118       1
    7231   32119       1
    7232   32120       1
    7233   32121       1
    7234   32122       1
    7255   32123       1
    7256   32124       1
    7257   32125       1
    7258   32126       1
    7307   32127       1
    7308   32128       1
    7309   32129       1
    7310   32130       1
    7331   32131       1
    7332   32132       1
    7333   32133       1
    7334   32134       1
    7381   32135       1
    7382   32136       1
    7383   32137       1
    7384   32138       1
    7405   32139       1
    7406   32140       1
    7407   32141       1
    7408   32142       1
    7457   32143       1
    7458   32144       1
    7459   32145       1
    7460   32146       1
    7481   32147       1
    7482   32148       1
    7483   32149       1
    7484   32150       1
    7531   32151       1
    7532   32152       1
    7533   32153       1
    7534   32154       1
    7555   32155       1
    7556   32156       1
    7557   32157       1
    7558   32158       1
    7607   32159       1
    7608   32160       1
    7609   32161       1
    7610   32162       1
    7631   32163       1
    7632   32164       1
    7633   32165       1
    7634   32166       1
    7681   32167       1
    7682   32168       1
    7683   32169       1
    7684   32170       1
    7705   32171       1
    7706   32172       1
    7707   32173       1
    7708   32174       1
    7757   32175       1
    7758   32176       1
    7759   32177       1
    7760   32178       1
    7781   32179       1
    7782   32180       1
    7783   32181       1
    7784   32182       1
    7831   32183       1
    7832   32184       1
    7833   32185       1
    7834   32186       1
    7855   32187       1
    7856   32188       1
    7857   32189       1
    7858   32190       1
    7907   32191       1
    7908   32192       1
    7909   32193       1
    7910   32194       1
    7931   32195       1
    7932   32196       1
    7933   32197       1
    7934   32198       1
    7981   32199       1
    7982   32200       1
    7983   32201       1
    7984   32202       1
    8005   32203       1
    8006   32204       1
    8007   32205       1
    8008   32206       1
    8057   32207       1
    8058   32208       1
    8059   32209       1
    8060   32210       1
    8081   32211       1
    8082   32212       1
    8083   32213       1
    8084   32214       1
    8131   32215       1
    8132   32216       1
    8133   32217       1
    8134   32218       1
    8155   32219       1
    8156   32220       1
    8157   32221       1
    8158   32222       1
    8207   32223       1
    8208   32224       1
    8209   32225       1
    8210   32226       1
    8231   32227       1
    8232   32228       1
    8233   32229       1
    8234   32230       1
    8281   32231       1
    8282   32232       1
    8283   32233       1
    8284   32234       1
    8305   32235       1
    8306   32236       1
    8307   32237       1
    8308   32238       1
    8357   32239       1
    8358   32240       1
    8359   32241       1
    8360   32242       1
    8381   32243       1
    8382   32244       1
    8383   32245       1
    8384   32246       1
    8431   32247       1
    8432   32248       1
    8433   32249       1
    8434   32250       1
    8455   32251       1
    8456   32252       1
    8457   32253       1
    8458   32254       1
    8507   32255       1
    8508   32256       1
    8509   32257       1
    8510   32258       1
    8531   32259       1
    8532   32260       1
    8533   32261       1
    8534   32262       1
    8581   32263       1
    8582   32264       1
    8583   32265       1
    8584   32266       1
    8605   32267       1
    8606   32268       1
    8607   32269       1
    8608   32270       1
    8657   32271       1
    8658   32272       1
    8659   32273       1
    8660   32274       1
    8681   32275       1
    8682   32276       1
    8683   32277       1
    8684   32278       1
    8731   32279       1
    8732   32280       1
    8733   32281       1
    8734   32282       1
    8755   32283       1
    8756   32284       1
    8757   32285       1
    8758   32286       1
    8807   32287       1
    8808   32288       1
    8809   32289       1
    8810   32290       1
    8831   32291       1
    8832   32292       1
    8833   32293       1
    8834   32294       1
    8881   32295       1
    8882   32296       1
    8883   32297       1
    8884   32298       1
    8905   32299       1
    8906   32300       1
    8907   32301       1
    8908   32302       1
    8957   32303       1
    8958   32304       1
    8959   32305       1
    8960   32306       1
    8981   32307       1
    8982   32308       1
    8983   32309       1
    8984   32310       1
    9031   32311       1
    9032   32312       1
    9033   32313       1
    9034   32314       1
    9055   32315       1
    9056   32316       1
    9057   32317       1
    9058   32318       1
    9107   32319       1
    9108   32320       1
    9109   32321       1
    9110   32322       1
    9131   32323       1
    9132   32324       1
    9133   32325       1
    9134   32326       1
    9181   32327       1
    9182   32328       1
    9183   32329       1
    9184   32330       1
    9205   32331       1
    9206   32332       1
    9207   32333       1
    9208   32334       1
    9257   32335       1
    9258   32336       1
    9259   32337       1
    9260   32338       1
    9281   32339       1
    9282   32340       1
    9283   32341       1
    9284   32342       1
    9331   32343       1
    9332   32344       1
    9333   32345       1
    9334   32346       1
    9355   32347       1
    9356   32348       1
    9357   32349       1
    9358   32350       1
    9407   32351       1
    9408   32352       1
    9409   32353       1
    9410   32354       1
    9431   32355       1
    9432   32356       1
    9433   32357       1
    9434   32358       1
    9481   32359       1
    9482   32360       1
    9483   32361       1
    9484   32362       1
    9505   32363       1
    9506   32364       1
    9507   32365       1
    9508   32366       1
    9557   32367       1
    9558   32368       1
    9559   32369       1
    9560   32370       1
    9581   32371       1
    9582   32372       1
    9583   32373       1
    9584   32374       1
    9631   32375       1
    9632   32376       1
    9633   32377       1
    9634   32378       1
    9655   32379       1
    9656   32380       1
    9657   32381       1
    9658   32382       1
    9707   32383       1
    9708   32384       1
    9709   32385       1
    9710   32386       1
    9731   32387       1
    9732   32388       1
    9733   32389       1
    9734   32390       1
    9781   32391       1
    9782   32392       1
    9783   32393       1
    9784   32394       1
    9805   32395       1
    9806   32396       1
    9807   32397       1
    9808   32398       1
    9857   32399       1
    9858   32400       1
    9859   32401       1
    9860   32402       1
    9881   32403       1
    9882   32404       1
    9883   32405       1
    9884   32406       1
    9931   32407       1
    9932   32408       1
    9933   32409       1
    9934   32410       1
    9955   32411       1
    9956   32412       1
    9957   32413       1
    9958   32414       1
   10007   32415       1
   10008   32416       1
   10009   32417       1
   10010   32418       1
   10031   32419       1
   10032   32420       1
   10033   32421       1
   10034   32422       1
   10081   32423       1
   10082   32424       1
   10083   32425       1
   10084   32426       1
   10105   32427       1
   10106   32428       1
   10107   32429       1
   10108   32430       1
   10157   32431       1
   10158   32432       1
   10159   32433       1
   10160   32434       1
   10181   32435       1
   10182   32436       1
   10183   32437       1
   10184   32438       1
   10231   32439       1
   10232   32440       1
   10233   32441       1
   10234   32442       1
   10255   32443       1
   10256   32444       1
   10257   32445       1
   10258   32446       1
   10307   32447       1
   10308   32448       1
   10309   32449       1
   10310   32450       1
   10331   32451       1
   10332   32452       1
   10333   32453       1
   10334   32454       1
   10381   32455       1
   10382   32456       1
   10383   32457       1
   10384   32458       1
   10405   32459       1
   10406   32460       1
   10407   32461       1
   10408   32462       1
   10457   32463       1
   10458   32464       1
   10459   32465       1
   10460   32466       1
   10481   32467       1
   10482   32468       1
   10483   32469       1
   10484   32470       1
   10531   32471       1
   10532   32472       1
   10533   32473       1
   10534   32474       1
   10555   32475       1
   10556   32476       1
   10557   32477       1
   10558   32478       1
   10607   32479       1
   10608   32480       1
   10609   32481       1
   10610   32482       1
   10631   32483       1
   10632   32484       1
   10633   32485       1
   10634   32486       1
   10681   32487       1
   10682   32488       1
   10683   32489       1
   10684   32490       1
   10705   32491       1
   10706   32492       1
   10707   32493       1
   10708   32494       1
   10757   32495       1
   10758   32496       1
   10759   32497       1
   10760   32498       1
   10781   32499       1
   10782   32500       1
   10783   32501       1
   10784   32502       1
   10831   32503       1
   10832   32504       1
   10833   32505       1
   10834   32506       1
   10855   32507       1
   10856   32508       1
   10857   32509       1
   10858   32510       1
   10907   32511       1
   10908   32512       1
   10909   32513       1
   10910   32514       1
   10931   32515       1
   10932   32516       1
   10933   32517       1
   10934   32518       1
   10981   32519       1
   10982   32520       1
   10983   32521       1
   10984   32522       1
   11005   32523       1
   11006   32524       1
   11007   32525       1
   11008   32526       1
   11057   32527       1
   11058   32528       1
   11059   32529       1
   11060   32530       1
   11081   32531       1
   11082   32532       1
   11083   32533       1
   11084   32534       1
   11131   32535       1
   11132   32536       1
   11133   32537       1
   11134   32538       1
   11155   32539       1
   11156   32540       1
   11157   32541       1
   11158   32542       1
   11207   32543       1
   11208   32544       1
   11209   32545       1
   11210   32546       1
   11231   32547       1
   11232   32548       1
   11233   32549       1
   11234   32550       1
   11281   32551       1
   11282   32552       1
   11283   32553       1
   11284   32554       1
   11305   32555       1
   11306   32556       1
   11307   32557       1
   11308   32558       1
   11357   32559       1
   11358   32560       1
   11359   32561       1
   11360   32562       1
   11381   32563       1
   11382   32564       1
   11383   32565       1
   11384   32566       1
   11431   32567       1
   11432   32568       1
   11433   32569       1
   11434   32570       1
   11455   32571       1
   11456   32572       1
   11457   32573       1
   11458   32574       1
   11507   32575       1
   11508   32576       1
   11509   32577       1
   11510   32578       1
   11531   32579       1
   11532   32580       1
   11533   32581       1
   11534   32582       1
   11581   32583       1
   11582   32584       1
   11583   32585       1
   11584   32586       1
   11605   32587       1
   11606   32588       1
   11607   32589       1
   11608   32590       1
   11657   32591       1
   11658   32592       1
   11659   32593       1
   11660   32594       1
   11681   32595       1
   11682   32596       1
   11683   32597       1
   11684   32598       1
   11731   32599       1
   11732   32600       1
   11733   32601       1
   11734   32602       1
   11755   32603       1
   11756   32604       1
   11757   32605       1
   11758   32606       1
   11807   32607       1
   11808   32608       1
   11809   32609       1
   11810   32610       1
   11831   32611       1
   11832   32612       1
   11833   32613       1
   11834   32614       1
   11881   32615       1
   11882   32616       1
   11883   32617       1
   11884   32618       1
   11905   32619       1
   11906   32620       1
   11907   32621       1
   11908   32622       1
   11957   32623       1
   11958   32624       1
   11959   32625       1
   11960   32626       1
   11981   32627       1
   11982   32628       1
   11983   32629       1
   11984   32630       1
   12031   32631       1
   12032   32632       1
   12033   32633       1
   12034   32634       1
   12055   32635       1
   12056   32636       1
   12057   32637       1
   12058   32638       1
   12107   32639       1
   12108   32640       1
   12109   32641       1
   12110   32642       1
   12131   32643       1
   12132   32644       1
   12133   32645       1
   12134   32646       1
   12181   32647       1
   12182   32648       1
   12183   32649       1
   12184   32650       1
   12205   32651       1
   12206   32652       1
   12207   32653       1
   12208   32654       1
   12257   32655       1
   12258   32656       1
   12259   32657       1
   12260   32658       1
   12281   32659       1
   12282   32660       1
   12283   32661       1
   12284   32662       1
   12331   32663       1
   12332   32664       1
   12333   32665       1
   12334   32666       1
   12355   32667       1
   12356   32668       1
   12357   32669       1
   12358   32670       1
   12407   32671       1
   12408   32672       1
   12409   32673       1
   12410   32674       1
   12431   32675       1
   12432   32676       1
   12433   32677       1
   12434   32678       1
   12481   32679       1
   12482   32680       1
   12483   32681       1
   12484   32682       1
   12505   32683       1
   12506   32684       1
   12507   32685       1
   12508   32686       1
   12557   32687       1
   12558   32688       1
   12559   32689       1
   12560   32690       1
   12581   32691       1
   12582   32692       1
   12583   32693       1
   12584   32694       1
   12631   32695       1
   12632   32696       1
   12633   32697       1
   12634   32698       1
   12655   32699       1
   12656   32700       1
   12657   32701       1
   12658   32702       1
   12707   32703       1
   12708   32704       1
   12709   32705       1
   12710   32706       1
   12731   32707       1
   12732   32708       1
   12733   32709       1
   12734   32710       1
   12781   32711       1
   12782   32712       1
   12783   32713       1
   12784   32714       1
   12805   32715       1
   12806   32716       1
   12807   32717       1
   12808   32718       1
   12857   32719       1
   12858   32720       1
   12859   32721       1
   12860   32722       1
   12881   32723       1
   12882   32724       1
   12883   32725       1
   12884   32726       1
   12931   32727       1
   12932   32728       1
   12933   32729       1
   12934   32730       1
   12955   32731       1
   12956   32732       1
   12957   32733       1
   12958   32734       1
   13007   32735       1
   13008   32736       1
   13009   32737       1
   13010   32738       1
   13031   32739       1
   13032   32740       1
   13033   32741       1
   13034   32742       1
   13081   32743       1
   13082   32744       1
   13083   32745       1
   13084   32746       1
   13105   32747       1
   13106   32748       1
   13107   32749       1
   13108   32750       1
   13157   32751       1
   13158   32752       1
   13159   32753       1
   13160   32754       1
   13181   32755       1
   13182   32756       1
   13183   32757       1
   13184   32758       1
   13231   32759       1
   13232   32760       1
   13233   32761       1
   13234   32762       1
   13255   32763       1
   13256   32764       1
   13257   32765       1
   13258   32766       1
   13307   32767       1
   13308   32768       1
   13309   32769       1
   13310   32770       1
   13331   32771       1
   13332   32772       1
   13333   32773       1
   13334   32774       1
   13381   32775       1
   13382   32776       1
   13383   32777       1
   13384   32778       1
   13405   32779       1
   13406   32780       1
   13407   32781       1
   13408   32782       1
   13457   32783       1
   13458   32784       1
   13459   32785       1
   13460   32786       1
   13481   32787       1
   13482   32788       1
   13483   32789       1
   13484   32790       1
   13531   32791       1
   13532   32792       1
   13533   32793       1
   13534   32794       1
   13555   32795       1
   13556   32796       1
   13557   32797       1
   13558   32798       1
   13607   32799       1
   13608   32800       1
   13609   32801       1
   13610   32802       1
   13631   32803       1
   13632   32804       1
   13633   32805       1
   13634   32806       1
   13681   32807       1
   13682   32808       1
   13683   32809       1
   13684   32810       1
   13705   32811       1
   13706   32812       1
   13707   32813       1
   13708   32814       1
   13757   32815       1
   13758   32816       1
   13759   32817       1
   13760   32818       1
   13781   32819       1
   13782   32820       1
   13783   32821       1
   13784   32822       1
   13831   32823       1
   13832   32824       1
   13833   32825       1
   13834   32826       1
   13855   32827       1
   13856   32828       1
   13857   32829       1
   13858   32830       1
   13907   32831       1
   13908   32832       1
   13909   32833       1
   13910   32834       1
   13931   32835       1
   13932   32836       1
   13933   32837       1
   13934   32838       1
   13981   32839       1
   13982   32840       1
   13983   32841       1
   13984   32842       1
   14005   32843       1
   14006   32844       1
   14007   32845       1
   14008   32846       1
   14057   32847       1
   14058   32848       1
   14059   32849       1
   14060   32850       1
   14081   32851       1
   14082   32852       1
   14083   32853       1
   14084   32854       1
   14131   32855       1
   14132   32856       1
   14133   32857       1
   14134   32858       1
   14155   32859       1
   14156   32860       1
   14157   32861       1
   14158   32862       1
   14207   32863       1
   14208   32864       1
   14209   32865       1
   14210   32866       1
   14231   32867       1
   14232   32868       1
   14233   32869       1
   14234   32870       1
   14281   32871       1
   14282   32872       1
   14283   32873       1
   14284   32874       1
   14305   32875       1
   14306   32876       1
   14307   32877       1
   14308   32878       1
   14357   32879       1
   14358   32880       1
   14359   32881       1
   14360   32882       1
   14381   32883       1
   14382   32884       1
   14383   32885       1
   14384   32886       1
   14431   32887       1
   14432   32888       1
   14433   32889       1
   14434   32890       1
   14455   32891       1
   14456   32892       1
   14457   32893       1
   14458   32894       1
   14507   32895       1
   14508   32896       1
   14509   32897       1
   14510   32898       1
   14531   32899       1
   14532   32900       1
   14533   32901       1
   14534   32902       1
   14581   32903       1
   14582   32904       1
   14583   32905       1
   14584   32906       1
   14605   32907       1
   14606   32908       1
   14607   32909       1
   14608   32910       1
   14657   32911       1
   14658   32912       1
   14659   32913       1
   14660   32914       1
   14681   32915       1
   14682   32916       1
   14683   32917       1
   14684   32918       1
   14731   32919       1
   14732   32920       1
   14733   32921       1
   14734   32922       1
   14755   32923       1
   14756   32924       1
   14757   32925       1
   14758   32926       1
   14807   32927       1
   14808   32928       1
   14809   32929       1
   14810   32930       1
   14831   32931       1
   14832   32932       1
   14833   32933       1
   14834   32934       1
   14881   32935       1
   14882   32936       1
   14883   32937       1
   14884   32938       1
   14905   32939       1
   14906   32940       1
   14907   32941       1
   14908   32942       1
   14957   32943       1
   14958   32944       1
   14959   32945       1
   14960   32946       1
   14981   32947       1
   14982   32948       1
   14983   32949       1
   14984   32950       1
   15031   32951       1
   15032   32952       1
   15033   32953       1
   15034   32954       1
   15055   32955       1
   15056   32956       1
   15057   32957       1
   15058   32958       1
   15107   32959       1
   15108   32960       1
   15109   32961       1
   15110   32962       1
   15131   32963       1
   15132   32964       1
   15133   32965       1
   15134   32966       1
   15181   32967       1
   15182   32968       1
   15183   32969       1
   15184   32970       1
   15205   32971       1
   15206   32972       1
   15207   32973       1
   15208   32974       1
   15257   32975       1
   15258   32976       1
   15259   32977       1
   15260   32978       1
   15281   32979       1
   15282   32980       1
   15283   32981       1
   15284   32982       1
   15331   32983       1
   15332   32984       1
   15333   32985       1
   15334   32986       1
   15355   32987       1
   15356   32988       1
   15357   32989       1
   15358   32990       1
   15407   32991       1
   15408   32992       1
   15409   32993       1
   15410   32994       1
   15431   32995       1
   15432   32996       1
   15433   32997       1
   15434   32998       1
   15481   32999       1
   15482   33000       1
   15483   33001       1
   15484   33002       1
   15505   33003       1
   15506   33004       1
   15507   33005       1
   15508   33006       1
   15557   33007       1
   15558   33008       1
   15559   33009       1
   15560   33010       1
   15581   33011       1
   15582   33012       1
   15583   33013       1
   15584   33014       1
   15631   33015       1
   15632   33016       1
   15633   33017       1
   15634   33018       1
   15655   33019       1
   15656   33020       1
   15657   33021       1
   15658   33022       1
   15707   33023       1
   15708   33024       1
   15709   33025       1
   15710   33026       1
   15731   33027       1
   15732   33028       1
   15733   33029       1
   15734   33030       1
   15781   33031       1
   15782   33032       1
   15783   33033       1
   15784   33034       1
   15805   33035       1
   15806   33036       1
   15807   33037       1
   15808   33038       1
   15857   33039       1
   15858   33040       1
   15859   33041       1
   15860   33042       1
   15881   33043       1
   15882   33044       1
   15883   33045       1
   15884   33046       1
   15931   33047       1
   15932   33048       1
   15933   33049       1
   15934   33050       1
   15955   33051       1
   15956   33052       1
   15957   33053       1
   15958   33054       1
   16007   33055       1
   16008   33056       1
   16009   33057       1
   16010   33058       1
   16031   33059       1
   16032   33060       1
   16033   33061       1
   16034   33062       1
   16081   33063       1
   16082   33064       1
   16083   33065       1
   16084   33066       1
   16105   33067       1
   16106   33068       1
   16107   33069       1
   16108   33070       1
   16157   33071       1
   16158   33072       1
   16159   33073       1
   16160   33074       1
   16181   33075       1
   16182   33076       1
   16183   33077       1
   16184   33078       1
   16231   33079       1
   16232   33080       1
   16233   33081       1
   16234   33082       1
   16255   33083       1
   16256   33084       1
   16257   33085       1
   16258   33086       1
   16307   33087       1
   16308   33088       1
   16309   33089       1
   16310   33090       1
   16331   33091       1
   16332   33092       1
   16333   33093       1
   16334   33094       1
   16381   33095       1
   16382   33096       1
   16383   33097       1
   16384   33098       1
   16405   33099       1
   16406   33100       1
   16407   33101       1
   16408   33102       1
   16457   33103       1
   16458   33104       1
   16459   33105       1
   16460   33106       1
   16481   33107       1
   16482   33108       1
   16483   33109       1
   16484   33110       1
   16531   33111       1
   16532   33112       1
   16533   33113       1
   16534   33114       1
   16555   33115       1
   16556   33116       1
   16557   33117       1
   16558   33118       1
   16607   33119       1
   16608   33120       1
   16609   33121       1
   16610   33122       1
   16631   33123       1
   16632   33124       1
   16633   33125       1
   16634   33126       1
   16681   33127       1
   16682   33128       1
   16683   33129       1
   16684   33130       1
   16705   33131       1
   16706   33132       1
   16707   33133       1
   16708   33134       1
   16757   33135       1
   16758   33136       1
   16759   33137       1
   16760   33138       1
   16781   33139       1
   16782   33140       1
   16783   33141       1
   16784   33142       1
   16831   33143       1
   16832   33144       1
   16833   33145       1
   16834   33146       1
   16855   33147       1
   16856   33148       1
   16857   33149       1
   16858   33150       1
   16907   33151       1
   16908   33152       1
   16909   33153       1
   16910   33154       1
   16931   33155       1
   16932   33156       1
   16933   33157       1
   16934   33158       1
   16981   33159       1
   16982   33160       1
   16983   33161       1
   16984   33162       1
   17005   33163       1
   17006   33164       1
   17007   33165       1
   17008   33166       1
   17057   33167       1
   17058   33168       1
   17059   33169       1
   17060   33170       1
   17081   33171       1
   17082   33172       1
   17083   33173       1
   17084   33174       1
   17131   33175       1
   17132   33176       1
   17133   33177       1
   17134   33178       1
   17155   33179       1
   17156   33180       1
   17157   33181       1
   17158   33182       1
   17207   33183       1
   17208   33184       1
   17209   33185       1
   17210   33186       1
   17231   33187       1
   17232   33188       1
   17233   33189       1
   17234   33190       1
   17281   33191       1
   17282   33192       1
   17283   33193       1
   17284   33194       1
   17305   33195       1
   17306   33196       1
   17307   33197       1
   17308   33198       1
   17357   33199       1
   17358   33200       1
   17359   33201       1
   17360   33202       1
   17381   33203       1
   17382   33204       1
   17383   33205       1
   17384   33206       1
   17431   33207       1
   17432   33208       1
   17433   33209       1
   17434   33210       1
   17455   33211       1
   17456   33212       1
   17457   33213       1
   17458   33214       1
   17507   33215       1
   17508   33216       1
   17509   33217       1
   17510   33218       1
   17531   33219       1
   17532   33220       1
   17533   33221       1
   17534   33222       1
   17581   33223       1
   17582   33224       1
   17583   33225       1
   17584   33226       1
   17605   33227       1
   17606   33228       1
   17607   33229       1
   17608   33230       1
   17657   33231       1
   17658   33232       1
   17659   33233       1
   17660   33234       1
   17681   33235       1
   17682   33236       1
   17683   33237       1
   17684   33238       1
   17731   33239       1
   17732   33240       1
   17733   33241       1
   17734   33242       1
   17755   33243       1
   17756   33244       1
   17757   33245       1
   17758   33246       1
   17807   33247       1
   17808   33248       1
   17809   33249       1
   17810   33250       1
   17831   33251       1
   17832   33252       1
   17833   33253       1
   17834   33254       1
   17881   33255       1
   17882   33256       1
   17883   33257       1
   17884   33258       1
   17905   33259       1
   17906   33260       1
   17907   33261       1
   17908   33262       1
   17957   33263       1
   17958   33264       1
   17959   33265       1
   17960   33266       1
   17981   33267       1
   17982   33268       1
   17983   33269       1
   17984   33270       1
   18031   33271       1
   18032   33272       1
   18033   33273       1
   18034   33274       1
   18055   33275       1
   18056   33276       1
   18057   33277       1
   18058   33278       1
   18107   33279       1
   18108   33280       1
   18109   33281       1
   18110   33282       1
   18131   33283       1
   18132   33284       1
   18133   33285       1
   18134   33286       1
   18181   33287       1
   18182   33288       1
   18183   33289       1
   18184   33290       1
   18205   33291       1
   18206   33292       1
   18207   33293       1
   18208   33294       1
   18257   33295       1
   18258   33296       1
   18259   33297       1
   18260   33298       1
   18281   33299       1
   18282   33300       1
   18283   33301       1
   18284   33302       1
   18331   33303       1
   18332   33304       1
   18333   33305       1
   18334   33306       1
   18355   33307       1
   18356   33308       1
   18357   33309       1
   18358   33310       1
   18407   33311       1
   18408   33312       1
   18409   33313       1
   18410   33314       1
   18431   33315       1
   18432   33316       1
   18433   33317       1
   18434   33318       1
   18481   33319       1
   18482   33320       1
   18483   33321       1
   18484   33322       1
   18505   33323       1
   18506   33324       1
   18507   33325       1
   18508   33326       1
   18557   33327       1
   18558   33328       1
   18559   33329       1
   18560   33330       1
   18581   33331       1
   18582   33332       1
   18583   33333       1
   18584   33334       1
   18631   33335       1
   18632   33336       1
   18633   33337       1
   18634   33338       1
   18655   33339       1
   18656   33340       1
   18657   33341       1
   18658   33342       1
   18707   33343       1
   18708   33344       1
   18709   33345       1
   18710   33346       1
   18731   33347       1
   18732   33348       1
   18733   33349       1
   18734   33350       1
   18781   33351       1
   18782   33352       1
   18783   33353       1
   18784   33354       1
   18805   33355       1
   18806   33356       1
   18807   33357       1
   18808   33358       1
   18857   33359       1
   18858   33360       1
   18859   33361       1
   18860   33362       1
   18881   33363       1
   18882   33364       1
   18883   33365       1
   18884   33366       1
   18931   33367       1
   18932   33368       1
   18933   33369       1
   18934   33370       1
   18955   33371       1
   18956   33372       1
   18957   33373       1
   18958   33374       1
   19007   33375       1
   19008   33376       1
   19009   33377       1
   19010   33378       1
   19031   33379       1
   19032   33380       1
   19033   33381       1
   19034   33382       1
   19081   33383       1
   19082   33384       1
   19083   33385       1
   19084   33386       1
   19105   33387       1
   19106   33388       1
   19107   33389       1
   19108   33390       1
   19157   33391       1
   19158   33392       1
   19159   33393       1
   19160   33394       1
   19181   33395       1
   19182   33396       1
   19183   33397       1
   19184   33398       1
   19231   33399       1
   19232   33400       1
   19233   33401       1
   19234   33402       1
   19255   33403       1
   19256   33404       1
   19257   33405       1
   19258   33406       1
   19307   33407       1
   19308   33408       1
   19309   33409       1
   19310   33410       1
   19331   33411       1
   19332   33412       1
   19333   33413       1
   19334   33414       1
   19381   33415       1
   19382   33416       1
   19383   33417       1
   19384   33418       1
   19405   33419       1
   19406   33420       1
   19407   33421       1
   19408   33422       1
   19457   33423       1
   19458   33424       1
   19459   33425       1
   19460   33426       1
   19481   33427       1
   19482   33428       1
   19483   33429       1
   19484   33430       1
   19531   33431       1
   19532   33432       1
   19533   33433       1
   19534   33434       1
   19555   33435       1
   19556   33436       1
   19557   33437       1
   19558   33438       1
   19607   33439       1
   19608   33440       1
   19609   33441       1
   19610   33442       1
   19631   33443       1
   19632   33444       1
   19633   33445       1
   19634   33446       1
   19681   33447       1
   19682   33448       1
   19683   33449       1
   19684   33450       1
   19705   33451       1
   19706   33452       1
   19707   33453       1
   19708   33454       1
   19757   33455       1
   19758   33456       1
   19759   33457       1
   19760   33458       1
   19781   33459       1
   19782   33460       1
   19783   33461       1
   19784   33462       1
   19831   33463       1
   19832   33464       1
   19833   33465       1
   19834   33466       1
   19855   33467       1
   19856   33468       1
   19857   33469       1
   19858   33470       1
   19907   33471       1
   19908   33472       1
   19909   33473       1
   19910   33474       1
   19931   33475       1
   19932   33476       1
   19933   33477       1
   19934   33478       1
   19981   33479       1
   19982   33480       1
   19983   33481       1
   19984   33482       1
   20005   33483       1
   20006   33484       1
   20007   33485       1
   20008   33486       1
   20057   33487       1
   20058   33488       1
   20059   33489       1
   20060   33490       1
   20081   33491       1
   20082   33492       1
   20083   33493       1
   20084   33494       1
   20131   33495       1
   20132   33496       1
   20133   33497       1
   20134   33498       1
   20155   33499       1
   20156   33500       1
   20157   33501       1
   20158   33502       1
   20207   33503       1
   20208   33504       1
   20209   33505       1
   20210   33506       1
   20231   33507       1
   20232   33508       1
   20233   33509       1
   20234   33510       1
   20281   33511       1
   20282   33512       1
   20283   33513       1
   20284   33514       1
   20305   33515       1
   20306   33516       1
   20307   33517       1
   20308   33518       1
   20357   33519       1
   20358   33520       1
   20359   33521       1
   20360   33522       1
   20381   33523       1
   20382   33524       1
   20383   33525       1
   20384   33526       1
   20431   33527       1
   20432   33528       1
   20433   33529       1
   20434   33530       1
   20455   33531       1
   20456   33532       1
   20457   33533       1
   20458   33534       1
   20507   33535       1
   20508   33536       1
   20509   33537       1
   20510   33538       1
   20531   33539       1
   20532   33540       1
   20533   33541       1
   20534   33542       1
   20581   33543       1
   20582   33544       1
   20583   33545       1
   20584   33546       1
   20605   33547       1
   20606   33548       1
   20607   33549       1
   20608   33550       1
   20657   33551       1
   20658   33552       1
   20659   33553       1
   20660   33554       1
   20681   33555       1
   20682   33556       1
   20683   33557       1
   20684   33558       1
   20731   33559       1
   20732   33560       1
   20733   33561       1
   20734   33562       1
   20755   33563       1
   20756   33564       1
   20757   33565       1
   20758   33566       1
   20807   33567       1
   20808   33568       1
   20809   33569       1
   20810   33570       1
   20831   33571       1
   20832   33572       1
   20833   33573       1
   20834   33574       1
   20881   33575       1
   20882   33576       1
   20883   33577       1
   20884   33578       1
   20905   33579       1
   20906   33580       1
   20907   33581       1
   20908   33582       1
   20957   33583       1
   20958   33584       1
   20959   33585       1
   20960   33586       1
   20981   33587       1
   20982   33588       1
   20983   33589       1
   20984   33590       1
   21031   33591       1
   21032   33592       1
   21033   33593       1
   21034   33594       1
   21055   33595       1
   21056   33596       1
   21057   33597       1
   21058   33598       1
   21107   33599       1
   21108   33600       1
   21109   33601       1
   21110   33602       1
   21131   33603       1
   21132   33604       1
   21133   33605       1
   21134   33606       1
   21181   33607       1
   21182   33608       1
   21183   33609       1
   21184   33610       1
   21205   33611       1
   21206   33612       1
   21207   33613       1
   21208   33614       1
   21257   33615       1
   21258   33616       1
   21259   33617       1
   21260   33618       1
   21281   33619       1
   21282   33620       1
   21283   33621       1
   21284   33622       1
   21331   33623       1
   21332   33624       1
   21333   33625       1
   21334   33626       1
   21355   33627       1
   21356   33628       1
   21357   33629       1
   21358   33630       1
   21407   33631       1
   21408   33632       1
   21409   33633       1
   21410   33634       1
   21431   33635       1
   21432   33636       1
   21433   33637       1
   21434   33638       1
   21481   33639       1
   21482   33640       1
   21483   33641       1
   21484   33642       1
   21505   33643       1
   21506   33644       1
   21507   33645       1
   21508   33646       1
   21557   33647       1
   21558   33648       1
   21559   33649       1
   21560   33650       1
   21581   33651       1
   21582   33652       1
   21583   33653       1
   21584   33654       1
   21631   33655       1
   21632   33656       1
   21633   33657       1
   21634   33658       1
   21655   33659       1
   21656   33660       1
   21657   33661       1
   21658   33662       1
   21707   33663       1
   21708   33664       1
   21709   33665       1
   21710   33666       1
   21731   33667       1
   21732   33668       1
   21733   33669       1
   21734   33670       1
   21781   33671       1
   21782   33672       1
   21783   33673       1
   21784   33674       1
   21805   33675       1
   21806   33676       1
   21807   33677       1
   21808   33678       1
   21857   33679       1
   21858   33680       1
   21859   33681       1
   21860   33682       1
   21881   33683       1
   21882   33684       1
   21883   33685       1
   21884   33686       1
   21931   33687       1
   21932   33688       1
   21933   33689       1
   21934   33690       1
   21955   33691       1
   21956   33692       1
   21957   33693       1
   21958   33694       1
   22007   33695       1
   22008   33696       1
   22009   33697       1
   22010   33698       1
   22031   33699       1
   22032   33700       1
   22033   33701       1
   22034   33702       1
   22081   33703       1
   22082   33704       1
   22083   33705       1
   22084   33706       1
   22105   33707       1
   22106   33708       1
   22107   33709       1
   22108   33710       1
   22157   33711       1
   22158   33712       1
   22159   33713       1
   22160   33714       1
   22181   33715       1
   22182   33716       1
   22183   33717       1
   22184   33718       1
   22231   33719       1
   22232   33720       1
   22233   33721       1
   22234   33722       1
   22255   33723       1
   22256   33724       1
   22257   33725       1
   22258   33726       1
   22307   33727       1
   22308   33728       1
   22309   33729       1
   22310   33730       1
   22331   33731       1
   22332   33732       1
   22333   33733       1
   22334   33734       1
   22381   33735       1
   22382   33736       1
   22383   33737       1
   22384   33738       1
   22405   33739       1
   22406   33740       1
   22407   33741       1
   22408   33742       1
   22457   33743       1
   22458   33744       1
   22459   33745       1
   22460   33746       1
   22481   33747       1
   22482   33748       1
   22483   33749       1
   22484   33750       1
   22531   33751       1
   22532   33752       1
   22533   33753       1
   22534   33754       1
   22555   33755       1
   22556   33756       1
   22557   33757       1
   22558   33758       1
   22607   33759       1
   22608   33760       1
   22609   33761       1
   22610   33762       1
   22631   33763       1
   22632   33764       1
   22633   33765       1
   22634   33766       1
   22681   33767       1
   22682   33768       1
   22683   33769       1
   22684   33770       1
   22705   33771       1
   22706   33772       1
   22707   33773       1
   22708   33774       1
   22757   33775       1
   22758   33776       1
   22759   33777       1
   22760   33778       1
   22781   33779       1
   22782   33780       1
   22783   33781       1
   22784   33782       1
   22831   33783       1
   22832   33784       1
   22833   33785       1
   22834   33786       1
   22855   33787       1
   22856   33788       1
   22857   33789       1
   22858   33790       1
   22907   33791       1
   22908   33792       1
   22909   33793       1
   22910   33794       1
   22931   33795       1
   22932   33796       1
   22933   33797       1
   22934   33798       1
   22981   33799       1
   22982   33800       1
   22983   33801       1
   22984   33802       1
   23005   33803       1
   23006   33804       1
   23007   33805       1
   23008   33806       1
   23057   33807       1
   23058   33808       1
   23059   33809       1
   23060   33810       1
   23081   33811       1
   23082   33812       1
   23083   33813       1
   23084   33814       1
   23131   33815       1
   23132   33816       1
   23133   33817       1
   23134   33818       1
   23155   33819       1
   23156   33820       1
   23157   33821       1
   23158   33822       1
   23207   33823       1
   23208   33824       1
   23209   33825       1
   23210   33826       1
   23231   33827       1
   23232   33828       1
   23233   33829       1
   23234   33830       1
   23281   33831       1
   23282   33832       1
   23283   33833       1
   23284   33834       1
   23305   33835       1
   23306   33836       1
   23307   33837       1
   23308   33838       1
   23357   33839       1
   23358   33840       1
   23359   33841       1
   23360   33842       1
   23381   33843       1
   23382   33844       1
   23383   33845       1
   23384   33846       1
   23431   33847       1
   23432   33848       1
   23433   33849       1
   23434   33850       1
   23455   33851       1
   23456   33852       1
   23457   33853       1
   23458   33854       1
   23507   33855       1
   23508   33856       1
   23509   33857       1
   23510   33858       1
   23531   33859       1
   23532   33860       1
   23533   33861       1
   23534   33862       1
   23581   33863       1
   23582   33864       1
   23583   33865       1
   23584   33866       1
   23605   33867       1
   23606   33868       1
   23607   33869       1
   23608   33870       1
   23657   33871       1
   23658   33872       1
   23659   33873       1
   23660   33874       1
   23681   33875       1
   23682   33876       1
   23683   33877       1
   23684   33878       1
   23731   33879       1
   23732   33880       1
   23733   33881       1
   23734   33882       1
   23755   33883       1
   23756   33884       1
   23757   33885       1
   23758   33886       1
   23807   33887       1
   23808   33888       1
   23809   33889       1
   23810   33890       1
   23831   33891       1
   23832   33892       1
   23833   33893       1
   23834   33894       1
   23881   33895       1
   23882   33896       1
   23883   33897       1
   23884   33898       1
   23905   33899       1
   23906   33900       1
   23907   33901       1
   23908   33902       1
   23957   33903       1
   23958   33904       1
   23959   33905       1
   23960   33906       1
   23981   33907       1
   23982   33908       1
   23983   33909       1
   23984   33910       1
   24031   33911       1
   24032   33912       1
   24033   33913       1
   24034   33914       1
   24055   33915       1
   24056   33916       1
   24057   33917       1
   24058   33918       1
   24107   33919       1
   24108   33920       1
   24109   33921       1
   24110   33922       1
   24131   33923       1
   24132   33924       1
   24133   33925       1
   24134   33926       1
   24181   33927       1
   24182   33928       1
   24183   33929       1
   24184   33930       1
   24205   33931       1
   24206   33932       1
   24207   33933       1
   24208   33934       1
   24257   33935       1
   24258   33936       1
   24259   33937       1
   24260   33938       1
   24281   33939       1
   24282   33940       1
   24283   33941       1
   24284   33942       1
   24331   33943       1
   24332   33944       1
   24333   33945       1
   24334   33946       1
   24355   33947       1
   24356   33948       1
   24357   33949       1
   24358   33950       1
   24407   33951       1
   24408   33952       1
   24409   33953       1
   24410   33954       1
   24431   33955       1
   24432   33956       1
   24433   33957       1
   24434   33958       1
   24481   33959       1
   24482   33960       1
   24483   33961       1
   24484   33962       1
   24505   33963       1
   24506   33964       1
   24507   33965       1
   24508   33966       1
   24557   33967       1
   24558   33968       1
   24559   33969       1
   24560   33970       1
   24581   33971       1
   24582   33972       1
   24583   33973       1
   24584   33974       1
   24631   33975       1
   24632   33976       1
   24633   33977       1
   24634   33978       1
   24655   33979       1
   24656   33980       1
   24657   33981       1
   24658   33982       1
   24707   33983       1
   24708   33984       1
   24709   33985       1
   24710   33986       1
   24731   33987       1
   24732   33988       1
   24733   33989       1
   24734   33990       1
   24781   33991       1
   24782   33992       1
   24783   33993       1
   24784   33994       1
   24805   33995       1
   24806   33996       1
   24807   33997       1
   24808   33998       1
   24857   33999       1
   24858   34000       1
   24859   34001       1
   24860   34002       1
   24881   34003       1
   24882   34004       1
   24883   34005       1
   24884   34006       1
   24931   34007       1
   24932   34008       1
   24933   34009       1
   24934   34010       1
   24955   34011       1
   24956   34012       1
   24957   34013       1
   24958   34014       1
   25007   34015       1
   25008   34016       1
   25009   34017       1
   25010   34018       1
   25031   34019       1
   25032   34020       1
   25033   34021       1
   25034   34022       1
   25081   34023       1
   25082   34024       1
   25083   34025       1
   25084   34026       1
   25105   34027       1
   25106   34028       1
   25107   34029       1
   25108   34030       1
   25157   34031       1
   25158   34032       1
   25159   34033       1
   25160   34034       1
   25181   34035       1
   25182   34036       1
   25183   34037       1
   25184   34038       1
   25231   34039       1
   25232   34040       1
   25233   34041       1
   25234   34042       1
   25255   34043       1
   25256   34044       1
   25257   34045       1
   25258   34046       1
   25307   34047       1
   25308   34048       1
   25309   34049       1
   25310   34050       1
   25331   34051       1
   25332   34052       1
   25333   34053       1
   25334   34054       1
   25381   34055       1
   25382   34056       1
   25383   34057       1
   25384   34058       1
   25405   34059       1
   25406   34060       1
   25407   34061       1
   25408   34062       1
   25457   34063       1
   25458   34064       1
   25459   34065       1
   25460   34066       1
   25481   34067       1
   25482   34068       1
   25483   34069       1
   25484   34070       1
   25531   34071       1
   25532   34072       1
   25533   34073       1
   25534   34074       1
   25555   34075       1
   25556   34076       1
   25557   34077       1
   25558   34078       1
   25607   34079       1
   25608   34080       1
   25609   34081       1
   25610   34082       1
   25631   34083       1
   25632   34084       1
   25633   34085       1
   25634   34086       1
   25681   34087       1
   25682   34088       1
   25683   34089       1
   25684   34090       1
   25705   34091       1
   25706   34092       1
   25707   34093       1
   25708   34094       1
   25757   34095       1
   25758   34096       1
   25759   34097       1
   25760   34098       1
   25781   34099       1
   25782   34100       1
   25783   34101       1
   25784   34102       1
   25831   34103       1
   25832   34104       1
   25833   34105       1
   25834   34106       1
   25855   34107       1
   25856   34108       1
   25857   34109       1
   25858   34110       1
   25907   34111       1
   25908   34112       1
   25909   34113       1
   25910   34114       1
   25931   34115       1
   25932   34116       1
   25933   34117       1
   25934   34118       1
   25981   34119       1
   25982   34120       1
   25983   34121       1
   25984   34122       1
   26005   34123       1
   26006   34124       1
   26007   34125       1
   26008   34126       1
   26057   34127       1
   26058   34128       1
   26059   34129       1
   26060   34130       1
   26081   34131       1
   26082   34132       1
   26083   34133       1
   26084   34134       1
   26131   34135       1
   26132   34136       1
   26133   34137       1
   26134   34138       1
   26155   34139       1
   26156   34140       1
   26157   34141       1
   26158   34142       1
   26207   34143       1
   26208   34144       1
   26209   34145       1
   26210   34146       1
   26231   34147       1
   26232   34148       1
   26233   34149       1
   26234   34150       1
   26281   34151       1
   26282   34152       1
   26283   34153       1
   26284   34154       1
   26305   34155       1
   26306   34156       1
   26307   34157       1
   26308   34158       1
   26357   34159       1
   26358   34160       1
   26359   34161       1
   26360   34162       1
   26381   34163       1
   26382   34164       1
   26383   34165       1
   26384   34166       1
   26431   34167       1
   26432   34168       1
   26433   34169       1
   26434   34170       1
   26455   34171       1
   26456   34172       1
   26457   34173       1
   26458   34174       1
   26507   34175       1
   26508   34176       1
   26509   34177       1
   26510   34178       1
   26531   34179       1
   26532   34180       1
   26533   34181       1
   26534   34182       1
   26581   34183       1
   26582   34184       1
   26583   34185       1
   26584   34186       1
   26605   34187       1
   26606   34188       1
   26607   34189       1
   26608   34190       1
   26657   34191       1
   26658   34192       1
   26659   34193       1
   26660   34194       1
   26681   34195       1
   26682   34196       1
   26683   34197       1
   26684   34198       1
   26731   34199       1
   26732   34200       1
   26733   34201       1
   26734   34202       1
   26755   34203       1
   26756   34204       1
   26757   34205       1
   26758   34206       1
   26807   34207       1
   26808   34208       1
   26809   34209       1
   26810   34210       1
   26831   34211       1
   26832   34212       1
   26833   34213       1
   26834   34214       1
   26881   34215       1
   26882   34216       1
   26883   34217       1
   26884   34218       1
   26905   34219       1
   26906   34220       1
   26907   34221       1
   26908   34222       1
   26957   34223       1
   26958   34224       1
   26959   34225       1
   26960   34226       1
   26981   34227       1
   26982   34228       1
   26983   34229       1
   26984   34230       1
   27031   34231       1
   27032   34232       1
   27033   34233       1
   27034   34234       1
   27055   34235       1
   27056   34236       1
   27057   34237       1
   27058   34238       1
   27107   34239       1
   27108   34240       1
   27109   34241       1
   27110   34242       1
   27131   34243       1
   27132   34244       1
   27133   34245       1
   27134   34246       1
   27181   34247       1
   27182   34248       1
   27183   34249       1
   27184   34250       1
   27205   34251       1
   27206   34252       1
   27207   34253       1
   27208   34254       1
   27257   34255       1
   27258   34256       1
   27259   34257       1
   27260   34258       1
   27281   34259       1
   27282   34260       1
   27283   34261       1
   27284   34262       1
   27331   34263       1
   27332   34264       1
   27333   34265       1
   27334   34266       1
   27355   34267       1
   27356   34268       1
   27357   34269       1
   27358   34270       1
   27407   34271       1
   27408   34272       1
   27409   34273       1
   27410   34274       1
   27431   34275       1
   27432   34276       1
   27433   34277       1
   27434   34278       1
   27481   34279       1
   27482   34280       1
   27483   34281       1
   27484   34282       1
   27505   34283       1
   27506   34284       1
   27507   34285       1
   27508   34286       1
   27557   34287       1
   27558   34288       1
   27559   34289       1
   27560   34290       1
   27581   34291       1
   27582   34292       1
   27583   34293       1
   27584   34294       1
   27631   34295       1
   27632   34296       1
   27633   34297       1
   27634   34298       1
   27655   34299       1
   27656   34300       1
   27657   34301       1
   27658   34302       1
   27707   34303       1
   27708   34304       1
   27709   34305       1
   27710   34306       1
   27731   34307       1
   27732   34308       1
   27733   34309       1
   27734   34310       1
   27781   34311       1
   27782   34312       1
   27783   34313       1
   27784   34314       1
   27805   34315       1
   27806   34316       1
   27807   34317       1
   27808   34318       1
   27857   34319       1
   27858   34320       1
   27859   34321       1
   27860   34322       1
   27881   34323       1
   27882   34324       1
   27883   34325       1
   27884   34326       1
   27931   34327       1
   27932   34328       1
   27933   34329       1
   27934   34330       1
   27955   34331       1
   27956   34332       1
   27957   34333       1
   27958   34334       1
   28007   34335       1
   28008   34336       1
   28009   34337       1
   28010   34338       1
   28031   34339       1
   28032   34340       1
   28033   34341       1
   28034   34342       1
   28081   34343       1
   28082   34344       1
   28083   34345       1
   28084   34346       1
   28105   34347       1
   28106   34348       1
   28107   34349       1
   28108   34350       1
   28157   34351       1
   28158   34352       1
   28159   34353       1
   28160   34354       1
   28181   34355       1
   28182   34356       1
   28183   34357       1
   28184   34358       1
   28231   34359       1
   28232   34360       1
   28233   34361       1
   28234   34362       1
   28255   34363       1
   28256   34364       1
   28257   34365       1
   28258   34366       1
   28307   34367       1
   28308   34368       1
   28309   34369       1
   28310   34370       1
   28331   34371       1
   28332   34372       1
   28333   34373       1
   28334   34374       1
   28381   34375       1
   28382   34376       1
   28383   34377       1
   28384   34378       1
   28405   34379       1
   28406   34380       1
   28407   34381       1
   28408   34382       1
   28457   34383       1
   28458   34384       1
   28459   34385       1
   28460   34386       1
   28481   34387       1
   28482   34388       1
   28483   34389       1
   28484   34390       1
   28531   34391       1
   28532   34392       1
   28533   34393       1
   28534   34394       1
   28555   34395       1
   28556   34396       1
   28557   34397       1
   28558   34398       1
   28607   34399       1
   28608   34400       1
   28609   34401       1
   28610   34402       1
   28631   34403       1
   28632   34404       1
   28633   34405       1
   28634   34406       1
   28681   34407       1
   28682   34408       1
   28683   34409       1
   28684   34410       1
   28705   34411       1
   28706   34412       1
   28707   34413       1
   28708   34414       1
   28757   34415       1
   28758   34416       1
   28759   34417       1
   28760   34418       1
   28781   34419       1
   28782   34420       1
   28783   34421       1
   28784   34422       1
   28831   34423       1
   28832   34424       1
   28833   34425       1
   28834   34426       1
   28855   34427       1
   28856   34428       1
   28857   34429       1
   28858   34430       1
   28907   34431       1
   28908   34432       1
   28909   34433       1
   28910   34434       1
   28931   34435       1
   28932   34436       1
   28933   34437       1
   28934   34438       1
   28981   34439       1
   28982   34440       1
   28983   34441       1
   28984   34442       1
   29005   34443       1
   29006   34444       1
   29007   34445       1
   29008   34446       1
   29057   34447       1
   29058   34448       1
   29059   34449       1
   29060   34450       1
   29081   34451       1
   29082   34452       1
   29083   34453       1
   29084   34454       1
   29131   34455       1
   29132   34456       1
   29133   34457       1
   29134   34458       1
   29155   34459       1
   29156   34460       1
   29157   34461       1
   29158   34462       1
   29207   34463       1
   29208   34464       1
   29209   34465       1
   29210   34466       1
   29231   34467       1
   29232   34468       1
   29233   34469       1
   29234   34470       1
   29281   34471       1
   29282   34472       1
   29283   34473       1
   29284   34474       1
   29305   34475       1
   29306   34476       1
   29307   34477       1
   29308   34478       1
   29357   34479       1
   29358   34480       1
   29359   34481       1
   29360   34482       1
   29381   34483       1
   29382   34484       1
   29383   34485       1
   29384   34486       1
   29431   34487       1
   29432   34488       1
   29433   34489       1
   29434   34490       1
   29455   34491       1
   29456   34492       1
   29457   34493       1
   29458   34494       1
   29507   34495       1
   29508   34496       1
   29509   34497       1
   29510   34498       1
   29531   34499       1
   29532   34500       1
   29533   34501       1
   29534   34502       1
   29581   34503       1
   29582   34504       1
   29583   34505       1
   29584   34506       1
   29605   34507       1
   29606   34508       1
   29607   34509       1
   29608   34510       1
   29657   34511       1
   29658   34512       1
   29659   34513       1
   29660   34514       1
   29681   34515       1
   29682   34516       1
   29683   34517       1
   29684   34518       1
   29731   34519       1
   29732   34520       1
   29733   34521       1
   29734   34522       1
   29755   34523       1
   29756   34524       1
   29757   34525       1
   29758   34526       1
   29807   34527       1
   29808   34528       1
   29809   34529       1
   29810   34530       1
   29831   34531       1
   29832   34532       1
   29833   34533       1
   29834   34534       1
   29881   34535       1
   29882   34536       1
   29883   34537       1
   29884   34538       1
   29905   34539       1
   29906   34540       1
   29907   34541       1
   29908   34542       1
   29957   34543       1
   29958   34544       1
   29959   34545       1
   29960   34546       1
   29981   34547       1
   29982   34548       1
   29983   34549       1
   29984   34550       1
   30031   34551       1
   30032   34552       1
   30033   34553       1
   30034   34554       1
   30055   34555       1
   30056   34556       1
   30057   34557       1
   30058   34558       1
   30107   34559       1
   30108   34560       1
   30109   34561       1
   30110   34562       1
   30131   34563       1
   30132   34564       1
   30133   34565       1
   30134   34566       1
   30181   34567       1
   30182   34568       1
   30183   34569       1
   30184   34570       1
   30205   34571       1
   30206   34572       1
   30207   34573       1
   30208   34574       1
   30257   34575       1
   30258   34576       1
   30259   34577       1
   30260   34578       1
   30281   34579       1
   30282   34580       1
   30283   34581       1
   30284   34582       1
   30331   34583       1
   30332   34584       1
   30333   34585       1
   30334   34586       1
   30355   34587       1
   30356   34588       1
   30357   34589       1
   30358   34590       1
   30407   34591       1
   30408   34592       1
   30409   34593       1
   30410   34594       1
   30431   34595       1
   30432   34596       1
   30433   34597       1
   30434   34598       1
   30481   34599       1
   30482   34600       1
   30483   34601       1
   30484   34602       1
   30505   34603       1
   30506   34604       1
   30507   34605       1
   30508   34606       1
   30557   34607       1
   30558   34608       1
   30559   34609       1
   30560   34610       1
   30581   34611       1
   30582   34612       1
   30583   34613       1
   30584   34614       1
   30631   34615       1
   30632   34616       1
   30633   34617       1
   30634   34618       1
   30655   34619       1
   30656   34620       1
   30657   34621       1
   30658   34622       1
   30707   34623       1
   30708   34624       1
   30709   34625       1
   30710   34626       1
   30731   34627       1
   30732   34628       1
   30733   34629       1
   30734   34630       1
   30781   34631       1
   30782   34632       1
   30783   34633       1
   30784   34634       1
   30805   34635       1
   30806   34636       1
   30807   34637       1
   30808   34638       1
   30857   34639       1
   30858   34640       1
   30859   34641       1
   30860   34642       1
   30881   34643       1
   30882   34644       1
   30883   34645       1
   30884   34646       1
   30931   34647       1
   30932   34648       1
   30933   34649       1
   30934   34650       1
   30955   34651       1
   30956   34652       1
   30957   34653       1
   30958   34654       1
   31007   34655       1
   31008   34656       1
   31009   34657       1
   31010   34658       1
   31031   34659       1
   31032   34660       1
   31033   34661       1
   31034   34662       1
   31081   34663       1
   31082   34664       1
   31083   34665       1
   31084   34666       1
   31105   34667       1
   31106   34668       1
   31107   34669       1
   31108   34670       1
   31157   34671       1
   31158   34672       1
   31159   34673       1
   31160   34674       1
   31181   34675       1
   31182   34676       1
   31183   34677       1
   31184   34678       1
   31231   34679       1
   31232   34680       1
   31233   34681       1
   31234   34682       1
   31255   34683       1
   31256   34684       1
   31257   34685       1
   31258   34686       1
   31307   34687       1
   31308   34688       1
   31309   34689       1
   31310   34690       1
   31331   34691       1
   31332   34692       1
   31333   34693       1
   31334   34694       1


[ angles ]
;      i       j       k    func     th0     cth
    1736      31   31351       1
   29706      32   31352       1
       8      33   31353       1
    1654      34   31354       1
    3232      55   31355       1
      10      56   31356       1
    1504      57   31357       1
       8      58   31358       1
      10     107   31359       1
   29782     108   31360       1
      84     109   31361       1
    1730     110   31362       1
    1506     131   31363       1
      86     132   31364       1
    1580     133   31365       1
      84     134   31366       1
    1886     181   31367       1
   29856     182   31368       1
     158     183   31369       1
    1804     184   31370       1
    1732     205   31371       1
     160     206   31372       1
       4     207   31373       1
     158     208   31374       1
     160     257   31375       1
   29932     258   31376       1
     234     259   31377       1
    1880     260   31378       1
       6     281   31379       1
     236     282   31380       1
      80     283   31381       1
     234     284   31382       1
    2036     331   31383       1
   30006     332   31384       1
     308     333   31385       1
    1954     334   31386       1
    1882     355   31387       1
     310     356   31388       1
     154     357   31389       1
     308     358   31390       1
     310     407   31391       1
   30082     408   31392       1
     384     409   31393       1
    2030     410   31394       1
     156     431   31395       1
     386     432   31396       1
     230     433   31397       1
     384     434   31398       1
    2186     481   31399       1
   30156     482   31400       1
     458     483   31401       1
    2104     484   31402       1
    2032     505   31403       1
     460     506   31404       1
     304     507   31405       1
     458     508   31406       1
     460     557   31407       1
   30232     558   31408       1
     534     559   31409       1
    2180     560   31410       1
     306     581   31411       1
     536     582   31412       1
     380     583   31413       1
     534     584   31414       1
    2336     631   31415       1
   30306     632   31416       1
     608     633   31417       1
    2254     634   31418       1
    2182     655   31419       1
     610     656   31420       1
     454     657   31421       1
     608     658   31422       1
     610     707   31423       1
   30382     708   31424       1
     684     709   31425       1
    2330     710   31426       1
     456     731   31427       1
     686     732   31428       1
     530     733   31429       1
     684     734   31430       1
    2486     781   31431       1
   30456     782   31432       1
     758     783   31433       1
    2404     784   31434       1
    2332     805   31435       1
     760     806   31436       1
     604     807   31437       1
     758     808   31438       1
     760     857   31439       1
   30532     858   31440       1
     834     859   31441       1
    2480     860   31442       1
     606     881   31443       1
     836     882   31444       1
     680     883   31445       1
     834     884   31446       1
    2636     931   31447       1
   30606     932   31448       1
     908     933   31449       1
    2554     934   31450       1
    2482     955   31451       1
     910     956   31452       1
     754     957   31453       1
     908     958   31454       1
     910    1007   31455       1
   30682    1008   31456       1
     984    1009   31457       1
    2630    1010   31458       1
     756    1031   31459       1
     986    1032   31460       1
     830    1033   31461       1
     984    1034   31462       1
    2786    1081   31463       1
   30756    1082   31464       1
    1058    1083   31465       1
    2704    1084   31466       1
    2632    1105   31467       1
    1060    1106   31468       1
     904    1107   31469       1
    1058    1108   31470       1
    1060    1157   31471       1
   30832    1158   31472       1
    1134    1159   31473       1
    2780    1160   31474       1
     906    1181   31475       1
    1136    1182   31476       1
     980    1183   31477       1
    1134    1184   31478       1
    2936    1231   31479       1
   30906    1232   31480       1
    1208    1233   31481       1
    2854    1234   31482       1
    2782    1255   31483       1
    1210    1256   31484       1
    1054    1257   31485       1
    1208    1258   31486       1
    1210    1307   31487       1
   30982    1308   31488       1
    1284    1309   31489       1
    2930    1310   31490       1
    1056    1331   31491       1
    1286    1332   31492       1
    1130    1333   31493       1
    1284    1334   31494       1
    3086    1381   31495       1
   31056    1382   31496       1
    1358    1383   31497       1
    3004    1384   31498       1
    2932    1405   31499       1
    1360    1406   31500       1
    1204    1407   31501       1
    1358    1408   31502       1
    1360    1457   31503       1
   31132    1458   31504       1
    1434    1459   31505       1
    3080    1460   31506       1
    1206    1481   31507       1
    1436    1482   31508       1
    1280    1483   31509       1
    1434    1484   31510       1
    3236    1531   31511       1
   31206    1532   31512       1
    1508    1533   31513       1
    3154    1534   31514       1
    3082    1555   31515       1
    1510    1556   31516       1
    1354    1557   31517       1
    1508    1558   31518       1
    1510    1607   31519       1
   31282    1608   31520       1
    1584    1609   31521       1
    3230    1610   31522       1
    1356    1631   31523       1
    1586    1632   31524       1
    1430    1633   31525       1
    1584    1634   31526       1
    3386    1681   31527       1
       6    1682   31528       1
    1658    1683   31529       1
    3304    1684   31530       1
    4882    1705   31531       1
    1660    1706   31532       1
    3154    1707   31533       1
    1658    1708   31534       1
    1660    1757   31535       1
      82    1758   31536       1
    1734    1759   31537       1
    3380    1760   31538       1
    3156    1781   31539       1
    1736    1782   31540       1
    3230    1783   31541       1
    1734    1784   31542       1
    3536    1831   31543       1
     156    1832   31544       1
    1808    1833   31545       1
    3454    1834   31546       1
    3382    1855   31547       1
    1810    1856   31548       1
    1654    1857   31549       1
    1808    1858   31550       1
    1810    1907   31551       1
     232    1908   31552       1
    1884    1909   31553       1
    3530    1910   31554       1
    1656    1931   31555       1
    1886    1932   31556       1
    1730    1933   31557       1
    1884    1934   31558       1
    3686    1981   31559       1
     306    1982   31560       1
    1958    1983   31561       1
    3604    1984   31562       1
    3532    2005   31563       1
    1960    2006   31564       1
    1804    2007   31565       1
    1958    2008   31566       1
    1960    2057   31567       1
     382    2058   31568       1
    2034    2059   31569       1
    3680    2060   31570       1
    1806    2081   31571       1
    2036    2082   31572       1
    1880    2083   31573       1
    2034    2084   31574       1
    3836    2131   31575       1
     456    2132   31576       1
    2108    2133   31577       1
    3754    2134   31578       1
    3682    2155   31579       1
    2110    2156   31580       1
    1954    2157   31581       1
    2108    2158   31582       1
    2110    2207   31583       1
     532    2208   31584       1
    2184    2209   31585       1
    3830    2210   31586       1
    1956    2231   31587       1
    2186    2232   31588       1
    2030    2233   31589       1
    2184    2234   31590       1
    3986    2281   31591       1
     606    2282   31592       1
    2258    2283   31593       1
    3904    2284   31594       1
    3832    2305   31595       1
    2260    2306   31596       1
    2104    2307   31597       1
    2258    2308   31598       1
    2260    2357   31599       1
     682    2358   31600       1
    2334    2359   31601       1
    3980    2360   31602       1
    2106    2381   31603       1
    2336    2382   31604       1
    2180    2383   31605       1
    2334    2384   31606       1
    4136    2431   31607       1
     756    2432   31608       1
    2408    2433   31609       1
    4054    2434   31610       1
    3982    2455   31611       1
    2410    2456   31612       1
    2254    2457   31613       1
    2408    2458   31614       1
    2410    2507   31615       1
     832    2508   31616       1
    2484    2509   31617       1
    4130    2510   31618       1
    2256    2531   31619       1
    2486    2532   31620       1
    2330    2533   31621       1
    2484    2534   31622       1
    4286    2581   31623       1
     906    2582   31624       1
    2558    2583   31625       1
    4204    2584   31626       1
    4132    2605   31627       1
    2560    2606   31628       1
    2404    2607   31629       1
    2558    2608   31630       1
    2560    2657   31631       1
     982    2658   31632       1
    2634    2659   31633       1
    4280    2660   31634       1
    2406    2681   31635       1
    2636    2682   31636       1
    2480    2683   31637       1
    2634    2684   31638       1
    4436    2731   31639       1
    1056    2732   31640       1
    2708    2733   31641       1
    4354    2734   31642       1
    4282    2755   31643       1
    2710    2756   31644       1
    2554    2757   31645       1
    2708    2758   31646       1
    2710    2807   31647       1
    1132    2808   31648       1
    2784    2809   31649       1
    4430    2810   31650       1
    2556    2831   31651       1
    2786    2832   31652       1
    2630    2833   31653       1
    2784    2834   31654       1
    4586    2881   31655       1
    1206    2882   31656       1
    2858    2883   31657       1
    4504    2884   31658       1
    4432    2905   31659       1
    2860    2906   31660       1
    2704    2907   31661       1
    2858    2908   31662       1
    2860    2957   31663       1
    1282    2958   31664       1
    2934    2959   31665       1
    4580    2960   31666       1
    2706    2981   31667       1
    2936    2982   31668       1
    2780    2983   31669       1
    2934    2984   31670       1
    4736    3031   31671       1
    1356    3032   31672       1
    3008    3033   31673       1
    4654    3034   31674       1
    4582    3055   31675       1
    3010    3056   31676       1
    2854    3057   31677       1
    3008    3058   31678       1
    3010    3107   31679       1
    1432    3108   31680       1
    3084    3109   31681       1
    4730    3110   31682       1
    2856    3131   31683       1
    3086    3132   31684       1
    2930    3133   31685       1
    3084    3134   31686       1
    4886    3181   31687       1
    1506    3182   31688       1
    3158    3183   31689       1
    4804    3184   31690       1
    4732    3205   31691       1
    3160    3206   31692       1
    3004    3207   31693       1
    3158    3208   31694       1
    3160    3257   31695       1
    1582    3258   31696       1
    3234    3259   31697       1
    4880    3260   31698       1
    3006    3281   31699       1
    3236    3282   31700       1
    3080    3283   31701       1
    3234    3284   31702       1
    5036    3331   31703       1
    1656    3332   31704       1
    3308    3333   31705       1
    4954    3334   31706       1
    6532    3355   31707       1
    3310    3356   31708       1
    4804    3357   31709       1
    3308    3358   31710       1
    3310    3407   31711       1
    1732    3408   31712       1
    3384    3409   31713       1
    5030    3410   31714       1
    4806    3431   31715       1
    3386    3432   31716       1
    4880    3433   31717       1
    3384    3434   31718       1
    5186    3481   31719       1
    1806    3482   31720       1
    3458    3483   31721       1
    5104    3484   31722       1
    5032    3505   31723       1
    3460    3506   31724       1
    3304    3507   31725       1
    3458    3508   31726       1
    3460    3557   31727       1
    1882    3558   31728       1
    3534    3559   31729       1
    5180    3560   31730       1
    3306    3581   31731       1
    3536    3582   31732       1
    3380    3583   31733       1
    3534    3584   31734       1
    5336    3631   31735       1
    1956    3632   31736       1
    3608    3633   31737       1
    5254    3634   31738       1
    5182    3655   31739       1
    3610    3656   31740       1
    3454    3657   31741       1
    3608    3658   31742       1
    3610    3707   31743       1
    2032    3708   31744       1
    3684    3709   31745       1
    5330    3710   31746       1
    3456    3731   31747       1
    3686    3732   31748       1
    3530    3733   31749       1
    3684    3734   31750       1
    5486    3781   31751       1
    2106    3782   31752       1
    3758    3783   31753       1
    5404    3784   31754       1
    5332    3805   31755       1
    3760    3806   31756       1
    3604    3807   31757       1
    3758    3808   31758       1
    3760    3857   31759       1
    2182    3858   31760       1
    3834    3859   31761       1
    5480    3860   31762       1
    3606    3881   31763       1
    3836    3882   31764       1
    3680    3883   31765       1
    3834    3884   31766       1
    5636    3931   31767       1
    2256    3932   31768       1
    3908    3933   31769       1
    5554    3934   31770       1
    5482    3955   31771       1
    3910    3956   31772       1
    3754    3957   31773       1
    3908    3958   31774       1
    3910    4007   31775       1
    2332    4008   31776       1
    3984    4009   31777       1
    5630    4010   31778       1
    3756    4031   31779       1
    3986    4032   31780       1
    3830    4033   31781       1
    3984    4034   31782       1
    5786    4081   31783       1
    2406    4082   31784       1
    4058    4083   31785       1
    5704    4084   31786       1
    5632    4105   31787       1
    4060    4106   31788       1
    3904    4107   31789       1
    4058    4108   31790       1
    4060    4157   31791       1
    2482    4158   31792       1
    4134    4159   31793       1
    5780    4160   31794       1
    3906    4181   31795       1
    4136    4182   31796       1
    3980    4183   31797       1
    4134    4184   31798       1
    5936    4231   31799       1
    2556    4232   31800       1
    4208    4233   31801       1
    5854    4234   31802       1
    5782    4255   31803       1
    4210    4256   31804       1
    4054    4257   31805       1
    4208    4258   31806       1
    4210    4307   31807       1
    2632    4308   31808       1
    4284    4309   31809       1
    5930    4310   31810       1
    4056    4331   31811       1
    4286    4332   31812       1
    4130    4333   31813       1
    4284    4334   31814       1
    6086    4381   31815       1
    2706    4382   31816       1
    4358    4383   31817       1
    6004    4384   31818       1
    5932    4405   31819       1
    4360    4406   31820       1
    4204    4407   31821       1
    4358    4408   31822       1
    4360    4457   31823       1
    2782    4458   31824       1
    4434    4459   31825       1
    6080    4460   31826       1
    4206    4481   31827       1
    4436    4482   31828       1
    4280    4483   31829       1
    4434    4484   31830       1
    6236    4531   31831       1
    2856    4532   31832       1
    4508    4533   31833       1
    6154    4534   31834       1
    6082    4555   31835       1
    4510    4556   31836       1
    4354    4557   31837       1
    4508    4558   31838       1
    4510    4607   31839       1
    2932    4608   31840       1
    4584    4609   31841       1
    6230    4610   31842       1
    4356    4631   31843       1
    4586    4632   31844       1
    4430    4633   31845       1
    4584    4634   31846       1
    6386    4681   31847       1
    3006    4682   31848       1
    4658    4683   31849       1
    6304    4684   31850       1
    6232    4705   31851       1
    4660    4706   31852       1
    4504    4707   31853       1
    4658    4708   31854       1
    4660    4757   31855       1
    3082    4758   31856       1
    4734    4759   31857       1
    6380    4760   31858       1
    4506    4781   31859       1
    4736    4782   31860       1
    4580    4783   31861       1
    4734    4784   31862       1
    6536    4831   31863       1
    3156    4832   31864       1
    4808    4833   31865       1
    6454    4834   31866       1
    6382    4855   31867       1
    4810    4856   31868       1
    4654    4857   31869       1
    4808    4858   31870       1
    4810    4907   31871       1
    3232    4908   31872       1
    4884    4909   31873       1
    6530    4910   31874       1
    4656    4931   31875       1
    4886    4932   31876       1
    4730    4933   31877       1
    4884    4934   31878       1
    6686    4981   31879       1
    3306    4982   31880       1
    4958    4983   31881       1
    6604    4984   31882       1
    8182    5005   31883       1
    4960    5006   31884       1
    6454    5007   31885       1
    4958    5008   31886       1
    4960    5057   31887       1
    3382    5058   31888       1
    5034    5059   31889       1
    6680    5060   31890       1
    6456    5081   31891       1
    5036    5082   31892       1
    6530    5083   31893       1
    5034    5084   31894       1
    6836    5131   31895       1
    3456    5132   31896       1
    5108    5133   31897       1
    6754    5134   31898       1
    6682    5155   31899       1
    5110    5156   31900       1
    4954    5157   31901       1
    5108    5158   31902       1
    5110    5207   31903       1
    3532    5208   31904       1
    5184    5209   31905       1
    6830    5210   31906       1
    4956    5231   31907       1
    5186    5232   31908       1
    5030    5233   31909       1
    5184    5234   31910       1
    6986    5281   31911       1
    3606    5282   31912       1
    5258    5283   31913       1
    6904    5284   31914       1
    6832    5305   31915       1
    5260    5306   31916       1
    5104    5307   31917       1
    5258    5308   31918       1
    5260    5357   31919       1
    3682    5358   31920       1
    5334    5359   31921       1
    6980    5360   31922       1
    5106    5381   31923       1
    5336    5382   31924       1
    5180    5383   31925       1
    5334    5384   31926       1
    7136    5431   31927       1
    3756    5432   31928       1
    5408    5433   31929       1
    7054    5434   31930       1
    6982    5455   31931       1
    5410    5456   31932       1
    5254    5457   31933       1
    5408    5458   31934       1
    5410    5507   31935       1
    3832    5508   31936       1
    5484    5509   31937       1
    7130    5510   31938       1
    5256    5531   31939       1
    5486    5532   31940       1
    5330    5533   31941       1
    5484    5534   31942       1
    7286    5581   31943       1
    3906    5582   31944       1
    5558    5583   31945       1
    7204    5584   31946       1
    7132    5605   31947       1
    5560    5606   31948       1
    5404    5607   31949       1
    5558    5608   31950       1
    5560    5657   31951       1
    3982    5658   31952       1
    5634    5659   31953       1
    7280    5660   31954       1
    5406    5681   31955       1
    5636    5682   31956       1
    5480    5683   31957       1
    5634    5684   31958       1
    7436    5731   31959       1
    4056    5732   31960       1
    5708    5733   31961       1
    7354    5734   31962       1
    7282    5755   31963       1
    5710    5756   31964       1
    5554    5757   31965       1
    5708    5758   31966       1
    5710    5807   31967       1
    4132    5808   31968       1
    5784    5809   31969       1
    7430    5810   31970       1
    5556    5831   31971       1
    5786    5832   31972       1
    5630    5833   31973       1
    5784    5834   31974       1
    7586    5881   31975       1
    4206    5882   31976       1
    5858    5883   31977       1
    7504    5884   31978       1
    7432    5905   31979       1
    5860    5906   31980       1
    5704    5907   31981       1
    5858    5908   31982       1
    5860    5957   31983       1
    4282    5958   31984       1
    5934    5959   31985       1
    7580    5960   31986       1
    5706    5981   31987       1
    5936    5982   31988       1
    5780    5983   31989       1
    5934    5984   31990       1
    7736    6031   31991       1
    4356    6032   31992       1
    6008    6033   31993       1
    7654    6034   31994       1
    7582    6055   31995       1
    6010    6056   31996       1
    5854    6057   31997       1
    6008    6058   31998       1
    6010    6107   31999       1
    4432    6108   32000       1
    6084    6109   32001       1
    7730    6110   32002       1
    5856    6131   32003       1
    6086    6132   32004       1
    5930    6133   32005       1
    6084    6134   32006       1
    7886    6181   32007       1
    4506    6182   32008       1
    6158    6183   32009       1
    7804    6184   32010       1
    7732    6205   32011       1
    6160    6206   32012       1
    6004    6207   32013       1
    6158    6208   32014       1
    6160    6257   32015       1
    4582    6258   32016       1
    6234    6259   32017       1
    7880    6260   32018       1
    6006    6281   32019       1
    6236    6282   32020       1
    6080    6283   32021       1
    6234    6284   32022       1
    8036    6331   32023       1
    4656    6332   32024       1
    6308    6333   32025       1
    7954    6334   32026       1
    7882    6355   32027       1
    6310    6356   32028       1
    6154    6357   32029       1
    6308    6358   32030       1
    6310    6407   32031       1
    4732    6408   32032       1
    6384    6409   32033       1
    8030    6410   32034       1
    6156    6431   32035       1
    6386    6432   32036       1
    6230    6433   32037       1
    6384    6434   32038       1
    8186    6481   32039       1
    4806    6482   32040       1
    6458    6483   32041       1
    8104    6484   32042       1
    8032    6505   32043       1
    6460    6506   32044       1
    6304    6507   32045       1
    6458    6508   32046       1
    6460    6557   32047       1
    4882    6558   32048       1
    6534    6559   32049       1
    8180    6560   32050       1
    6306    6581   32051       1
    6536    6582   32052       1
    6380    6583   32053       1
    6534    6584   32054       1
    8336    6631   32055       1
    4956    6632   32056       1
    6608    6633   32057       1
    8254    6634   32058       1
    9832    6655   32059       1
    6610    6656   32060       1
    8104    6657   32061       1
    6608    6658   32062       1
    6610    6707   32063       1
    5032    6708   32064       1
    6684    6709   32065       1
    8330    6710   32066       1
    8106    6731   32067       1
    6686    6732   32068       1
    8180    6733   32069       1
    6684    6734   32070       1
    8486    6781   32071       1
    5106    6782   32072       1
    6758    6783   32073       1
    8404    6784   32074       1
    8332    6805   32075       1
    6760    6806   32076       1
    6604    6807   32077       1
    6758    6808   32078       1
    6760    6857   32079       1
    5182    6858   32080       1
    6834    6859   32081       1
    8480    6860   32082       1
    6606    6881   32083       1
    6836    6882   32084       1
    6680    6883   32085       1
    6834    6884   32086       1
    8636    6931   32087       1
    5256    6932   32088       1
    6908    6933   32089       1
    8554    6934   32090       1
    8482    6955   32091       1
    6910    6956   32092       1
    6754    6957   32093       1
    6908    6958   32094       1
    6910    7007   32095       1
    5332    7008   32096       1
    6984    7009   32097       1
    8630    7010   32098       1
    6756    7031   32099       1
    6986    7032   32100       1
    6830    7033   32101       1
    6984    7034   32102       1
    8786    7081   32103       1
    5406    7082   32104       1
    7058    7083   32105       1
    8704    7084   32106       1
    8632    7105   32107       1
    7060    7106   32108       1
    6904    7107   32109       1
    7058    7108   32110       1
    7060    7157   32111       1
    5482    7158   32112       1
    7134    7159   32113       1
    8780    7160   32114       1
    6906    7181   32115       1
    7136    7182   32116       1
    6980    7183   32117       1
    7134    7184   32118       1
    8936    7231   32119       1
    5556    7232   32120       1
    7208    7233   32121       1
    8854    7234   32122       1
    8782    7255   32123       1
    7210    7256   32124       1
    7054    7257   32125       1
    7208    7258   32126       1
    7210    7307   32127       1
    5632    7308   32128       1
    7284    7309   32129       1
    8930    7310   32130       1
    7056    7331   32131       1
    7286    7332   32132       1
    7130    7333   32133       1
    7284    7334   32134       1
    9086    7381   32135       1
    5706    7382   32136       1
    7358    7383   32137       1
    9004    7384   32138       1
    8932    7405   32139       1
    7360    7406   32140       1
    7204    7407   32141       1
    7358    7408   32142       1
    7360    7457   32143       1
    5782    7458   32144       1
    7434    7459   32145       1
    9080    7460   32146       1
    7206    7481   32147       1
    7436    7482   32148       1
    7280    7483   32149       1
    7434    7484   32150       1
    9236    7531   32151       1
    5856    7532   32152       1
    7508    7533   32153       1
    9154    7534   32154       1
    9082    7555   32155       1
    7510    7556   32156       1
    7354    7557   32157       1
    7508    7558   32158       1
    7510    7607   32159       1
    5932    7608   32160       1
    7584    7609   32161       1
    9230    7610   32162       1
    7356    7631   32163       1
    7586    7632   32164       1
    7430    7633   32165       1
    7584    7634   32166       1
    9386    7681   32167       1
    6006    7682   32168       1
    7658    7683   32169       1
    9304    7684   32170       1
    9232    7705   32171       1
    7660    7706   32172       1
    7504    7707   32173       1
    7658    7708   32174       1
    7660    7757   32175       1
    6082    7758   32176       1
    7734    7759   32177       1
    9380    7760   32178       1
    7506    7781   32179       1
    7736    7782   32180       1
    7580    7783   32181       1
    7734    7784   32182       1
    9536    7831   32183       1
    6156    7832   32184       1
    7808    7833   32185       1
    9454    7834   32186       1
    9382    7855   32187       1
    7810    7856   32188       1
    7654    7857   32189       1
    7808    7858   32190       1
    7810    7907   32191       1
    6232    7908   32192       1
    7884    7909   32193       1
    9530    7910   32194       1
    7656    7931   32195       1
    7886    7932   32196       1
    7730    7933   32197       1
    7884    7934   32198       1
    9686    7981   32199       1
    6306    7982   32200       1
    7958    7983   32201       1
    9604    7984   32202       1
    9532    8005   32203       1
    7960    8006   32204       1
    7804    8007   32205       1
    7958    8008   32206       1
    7960    8057   32207       1
    6382    8058   32208       1
    8034    8059   32209       1
    9680    8060   32210       1
    7806    8081   32211       1
    8036    8082   32212       1
    7880    8083   32213       1
    8034    8084   32214       1
    9836    8131   32215       1
    6456    8132   32216       1
    8108    8133   32217       1
    9754    8134   32218       1
    9682    8155   32219       1
    8110    8156   32220       1
    7954    8157   32221       1
    8108    8158   32222       1
    8110    8207   32223       1
    6532    8208   32224       1
    8184    8209   32225       1
    9830    8210   32226       1
    7956    8231   32227       1
    8186    8232   32228       1
    8030    8233   32229       1
    8184    8234   32230       1
    9986    8281   32231       1
    6606    8282   32232       1
    8258    8283   32233       1
    9904    8284   32234       1
   11482    8305   32235       1
    8260    8306   32236       1
    9754    8307   32237       1
    8258    8308   32238       1
    8260    8357   32239       1
    6682    8358   32240       1
    8334    8359   32241       1
    9980    8360   32242       1
    9756    8381   32243       1
    8336    8382   32244       1
    9830    8383   32245       1
    8334    8384   32246       1
   10136    8431   32247       1
    6756    8432   32248       1
    8408    8433   32249       1
   10054    8434   32250       1
    9982    8455   32251       1
    8410    8456   32252       1
    8254    8457   32253       1
    8408    8458   32254       1
    8410    8507   32255       1
    6832    8508   32256       1
    8484    8509   32257       1
   10130    8510   32258       1
    8256    8531   32259       1
    8486    8532   32260       1
    8330    8533   32261       1
    8484    8534   32262       1
   10286    8581   32263       1
    6906    8582   32264       1
    8558    8583   32265       1
   10204    8584   32266       1
   10132    8605   32267       1
    8560    8606   32268       1
    8404    8607   32269       1
    8558    8608   32270       1
    8560    8657   32271       1
    6982    8658   32272       1
    8634    8659   32273       1
   10280    8660   32274       1
    8406    8681   32275       1
    8636    8682   32276       1
    8480    8683   32277       1
    8634    8684   32278       1
   10436    8731   32279       1
    7056    8732   32280       1
    8708    8733   32281       1
   10354    8734   32282       1
   10282    8755   32283       1
    8710    8756   32284       1
    8554    8757   32285       1
    8708    8758   32286       1
    8710    8807   32287       1
    7132    8808   32288       1
    8784    8809   32289       1
   10430    8810   32290       1
    8556    8831   32291       1
    8786    8832   32292       1
    8630    8833   32293       1
    8784    8834   32294       1
   10586    8881   32295       1
    7206    8882   32296       1
    8858    8883   32297       1
   10504    8884   32298       1
   10432    8905   32299       1
    8860    8906   32300       1
    8704    8907   32301       1
    8858    8908   32302       1
    8860    8957   32303       1
    7282    8958   32304       1
    8934    8959   32305       1
   10580    8960   32306       1
    8706    8981   32307       1
    8936    8982   32308       1
    8780    8983   32309       1
    8934    8984   32310       1
   10736    9031   32311       1
    7356    9032   32312       1
    9008    9033   32313       1
   10654    9034   32314       1
   10582    9055   32315       1
    9010    9056   32316       1
    8854    9057   32317       1
    9008    9058   32318       1
    9010    9107   32319       1
    7432    9108   32320       1
    9084    9109   32321       1
   10730    9110   32322       1
    8856    9131   32323       1
    9086    9132   32324       1
    8930    9133   32325       1
    9084    9134   32326       1
   10886    9181   32327       1
    7506    9182   32328       1
    9158    9183   32329       1
   10804    9184   32330       1
   10732    9205   32331       1
    9160    9206   32332       1
    9004    9207   32333       1
    9158    9208   32334       1
    9160    9257   32335       1
    7582    9258   32336       1
    9234    9259   32337       1
   10880    9260   32338       1
    9006    9281   32339       1
    9236    9282   32340       1
    9080    9283   32341       1
    9234    9284   32342       1
   11036    9331   32343       1
    7656    9332   32344       1
    9308    9333   32345       1
   10954    9334   32346       1
   10882    9355   32347       1
    9310    9356   32348       1
    9154    9357   32349       1
    9308    9358   32350       1
    9310    9407   32351       1
    7732    9408   32352       1
    9384    9409   32353       1
   11030    9410   32354       1
    9156    9431   32355       1
    9386    9432   32356       1
    9230    9433   32357       1
    9384    9434   32358       1
   11186    9481   32359       1
    7806    9482   32360       1
    9458    9483   32361       1
   11104    9484   32362       1
   11032    9505   32363       1
    9460    9506   32364       1
    9304    9507   32365       1
    9458    9508   32366       1
    9460    9557   32367       1
    7882    9558   32368       1
    9534    9559   32369       1
   11180    9560   32370       1
    9306    9581   32371       1
    9536    9582   32372       1
    9380    9583   32373       1
    9534    9584   32374       1
   11336    9631   32375       1
    7956    9632   32376       1
    9608    9633   32377       1
   11254    9634   32378       1
   11182    9655   32379       1
    9610    9656   32380       1
    9454    9657   32381       1
    9608    9658   32382       1
    9610    9707   32383       1
    8032    9708   32384       1
    9684    9709   32385       1
   11330    9710   32386       1
    9456    9731   32387       1
    9686    9732   32388       1
    9530    9733   32389       1
    9684    9734   32390       1
   11486    9781   32391       1
    8106    9782   32392       1
    9758    9783   32393       1
   11404    9784   32394       1
   11332    9805   32395       1
    9760    9806   32396       1
    9604    9807   32397       1
    9758    9808   32398       1
    9760    9857   32399       1
    8182    9858   32400       1
    9834    9859   32401       1
   11480    9860   32402       1
    9606    9881   32403       1
    9836    9882   32404       1
    9680    9883   32405       1
    9834    9884   32406       1
   11636    9931   32407       1
    8256    9932   32408       1
    9908    9933   32409       1
   11554    9934   32410       1
   13132    9955   32411       1
    9910    9956   32412       1
   11404    9957   32413       1
    9908    9958   32414       1
    9910   10007   32415       1
    8332   10008   32416       1
    9984   10009   32417       1
   11630   10010   32418       1
   11406   10031   32419       1
    9986   10032   32420       1
   11480   10033   32421       1
    9984   10034   32422       1
   11786   10081   32423       1
    8406   10082   32424       1
   10058   10083   32425       1
   11704   10084   32426       1
   11632   10105   32427       1
   10060   10106   32428       1
    9904   10107   32429       1
   10058   10108   32430       1
   10060   10157   32431       1
    8482   10158   32432       1
   10134   10159   32433       1
   11780   10160   32434       1
    9906   10181   32435       1
   10136   10182   32436       1
    9980   10183   32437       1
   10134   10184   32438       1
   11936   10231   32439       1
    8556   10232   32440       1
   10208   10233   32441       1
   11854   10234   32442       1
   11782   10255   32443       1
   10210   10256   32444       1
   10054   10257   32445       1
   10208   10258   32446       1
   10210   10307   32447       1
    8632   10308   32448       1
   10284   10309   32449       1
   11930   10310   32450       1
   10056   10331   32451       1
   10286   10332   32452       1
   10130   10333   32453       1
   10284   10334   32454       1
   12086   10381   32455       1
    8706   10382   32456       1
   10358   10383   32457       1
   12004   10384   32458       1
   11932   10405   32459       1
   10360   10406   32460       1
   10204   10407   32461       1
   10358   10408   32462       1
   10360   10457   32463       1
    8782   10458   32464       1
   10434   10459   32465       1
   12080   10460   32466       1
   10206   10481   32467       1
   10436   10482   32468       1
   10280   10483   32469       1
   10434   10484   32470       1
   12236   10531   32471       1
    8856   10532   32472       1
   10508   10533   32473       1
   12154   10534   32474       1
   12082   10555   32475       1
   10510   10556   32476       1
   10354   10557   32477       1
   10508   10558   32478       1
   10510   10607   32479       1
    8932   10608   32480       1
   10584   10609   32481       1
   12230   10610   32482       1
   10356   10631   32483       1
   10586   10632   32484       1
   10430   10633   32485       1
   10584   10634   32486       1
   12386   10681   32487       1
    9006   10682   32488       1
   10658   10683   32489       1
   12304   10684   32490       1
   12232   10705   32491       1
   10660   10706   32492       1
   10504   10707   32493       1
   10658   10708   32494       1
   10660   10757   32495       1
    9082   10758   32496       1
   10734   10759   32497       1
   12380   10760   32498       1
   10506   10781   32499       1
   10736   10782   32500       1
   10580   10783   32501       1
   10734   10784   32502       1
   12536   10831   32503       1
    9156   10832   32504       1
   10808   10833   32505       1
   12454   10834   32506       1
   12382   10855   32507       1
   10810   10856   32508       1
   10654   10857   32509       1
   10808   10858   32510       1
   10810   10907   32511       1
    9232   10908   32512       1
   10884   10909   32513       1
   12530   10910   32514       1
   10656   10931   32515       1
   10886   10932   32516       1
   10730   10933   32517       1
   10884   10934   32518       1
   12686   10981   32519       1
    9306   10982   32520       1
   10958   10983   32521       1
   12604   10984   32522       1
   12532   11005   32523       1
   10960   11006   32524       1
   10804   11007   32525       1
   10958   11008   32526       1
   10960   11057   32527       1
    9382   11058   32528       1
   11034   11059   32529       1
   12680   11060   32530       1
   10806   11081   32531       1
   11036   11082   32532       1
   10880   11083   32533       1
   11034   11084   32534       1
   12836   11131   32535       1
    9456   11132   32536       1
   11108   11133   32537       1
   12754   11134   32538       1
   12682   11155   32539       1
   11110   11156   32540       1
   10954   11157   32541       1
   11108   11158   32542       1
   11110   11207   32543       1
    9532   11208   32544       1
   11184   11209   32545       1
   12830   11210   32546       1
   10956   11231   32547       1
   11186   11232   32548       1
   11030   11233   32549       1
   11184   11234   32550       1
   12986   11281   32551       1
    9606   11282   32552       1
   11258   11283   32553       1
   12904   11284   32554       1
   12832   11305   32555       1
   11260   11306   32556       1
   11104   11307   32557       1
   11258   11308   32558       1
   11260   11357   32559       1
    9682   11358   32560       1
   11334   11359   32561       1
   12980   11360   32562       1
   11106   11381   32563       1
   11336   11382   32564       1
   11180   11383   32565       1
   11334   11384   32566       1
   13136   11431   32567       1
    9756   11432   32568       1
   11408   11433   32569       1
   13054   11434   32570       1
   12982   11455   32571       1
   11410   11456   32572       1
   11254   11457   32573       1
   11408   11458   32574       1
   11410   11507   32575       1
    9832   11508   32576       1
   11484   11509   32577       1
   13130   11510   32578       1
   11256   11531   32579       1
   11486   11532   32580       1
   11330   11533   32581       1
   11484   11534   32582       1
   13286   11581   32583       1
    9906   11582   32584       1
   11558   11583   32585       1
   13204   11584   32586       1
   14782   11605   32587       1
   11560   11606   32588       1
   13054   11607   32589       1
   11558   11608   32590       1
   11560   11657   32591       1
    9982   11658   32592       1
   11634   11659   32593       1
   13280   11660   32594       1
   13056   11681   32595       1
   11636   11682   32596       1
   13130   11683   32597       1
   11634   11684   32598       1
   13436   11731   32599       1
   10056   11732   32600       1
   11708   11733   32601       1
   13354   11734   32602       1
   13282   11755   32603       1
   11710   11756   32604       1
   11554   11757   32605       1
   11708   11758   32606       1
   11710   11807   32607       1
   10132   11808   32608       1
   11784   11809   32609       1
   13430   11810   32610       1
   11556   11831   32611       1
   11786   11832   32612       1
   11630   11833   32613       1
   11784   11834   32614       1
   13586   11881   32615       1
   10206   11882   32616       1
   11858   11883   32617       1
   13504   11884   32618       1
   13432   11905   32619       1
   11860   11906   32620       1
   11704   11907   32621       1
   11858   11908   32622       1
   11860   11957   32623       1
   10282   11958   32624       1
   11934   11959   32625       1
   13580   11960   32626       1
   11706   11981   32627       1
   11936   11982   32628       1
   11780   11983   32629       1
   11934   11984   32630       1
   13736   12031   32631       1
   10356   12032   32632       1
   12008   12033   32633       1
   13654   12034   32634       1
   13582   12055   32635       1
   12010   12056   32636       1
   11854   12057   32637       1
   12008   12058   32638       1
   12010   12107   32639       1
   10432   12108   32640       1
   12084   12109   32641       1
   13730   12110   32642       1
   11856   12131   32643       1
   12086   12132   32644       1
   11930   12133   32645       1
   12084   12134   32646       1
   13886   12181   32647       1
   10506   12182   32648       1
   12158   12183   32649       1
   13804   12184   32650       1
   13732   12205   32651       1
   12160   12206   32652       1
   12004   12207   32653       1
   12158   12208   32654       1
   12160   12257   32655       1
   10582   12258   32656       1
   12234   12259   32657       1
   13880   12260   32658       1
   12006   12281   32659       1
   12236   12282   32660       1
   12080   12283   32661       1
   12234   12284   32662       1
   14036   12331   32663       1
   10656   12332   32664       1
   12308   12333   32665       1
   13954   12334   32666       1
   13882   12355   32667       1
   12310   12356   32668       1
   12154   12357   32669       1
   12308   12358   32670       1
   12310   12407   32671       1
   10732   12408   32672       1
   12384   12409   32673       1
   14030   12410   32674       1
   12156   12431   32675       1
   12386   12432   32676       1
   12230   12433   32677       1
   12384   12434   32678       1
   14186   12481   32679       1
   10806   12482   32680       1
   12458   12483   32681       1
   14104   12484   32682       1
   14032   12505   32683       1
   12460   12506   32684       1
   12304   12507   32685       1
   12458   12508   32686       1
   12460   12557   32687       1
   10882   12558   32688       1
   12534   12559   32689       1
   14180   12560   32690       1
   12306   12581   32691       1
   12536   12582   32692       1
   12380   12583   32693       1
   12534   12584   32694       1
   14336   12631   32695       1
   10956   12632   32696       1
   12608   12633   32697       1
   14254   12634   32698       1
   14182   12655   32699       1
   12610   12656   32700       1
   12454   12657   32701       1
   12608   12658   32702       1
   12610   12707   32703       1
   11032   12708   32704       1
   12684   12709   32705       1
   14330   12710   32706       1
   12456   12731   32707       1
   12686   12732   32708       1
   12530   12733   32709       1
   12684   12734   32710       1
   14486   12781   32711       1
   11106   12782   32712       1
   12758   12783   32713       1
   14404   12784   32714       1
   14332   12805   32715       1
   12760   12806   32716       1
   12604   12807   32717       1
   12758   12808   32718       1
   12760   12857   32719       1
   11182   12858   32720       1
   12834   12859   32721       1
   14480   12860   32722       1
   12606   12881   32723       1
   12836   12882   32724       1
   12680   12883   32725       1
   12834   12884   32726       1
   14636   12931   32727       1
   11256   12932   32728       1
   12908   12933   32729       1
   14554   12934   32730       1
   14482   12955   32731       1
   12910   12956   32732       1
   12754   12957   32733       1
   12908   12958   32734       1
   12910   13007   32735       1
   11332   13008   32736       1
   12984   13009   32737       1
   14630   13010   32738       1
   12756   13031   32739       1
   12986   13032   32740       1
   12830   13033   32741       1
   12984   13034   32742       1
   14786   13081   32743       1
   11406   13082   32744       1
   13058   13083   32745       1
   14704   13084   32746       1
   14632   13105   32747       1
   13060   13106   32748       1
   12904   13107   32749       1
   13058   13108   32750       1
   13060   13157   32751       1
   11482   13158   32752       1
   13134   13159   32753       1
   14780   13160   32754       1
   12906   13181   32755       1
   13136   13182   32756       1
   12980   13183   32757       1
   13134   13184   32758       1
   14936   13231   32759       1
   11556   13232   32760       1
   13208   13233   32761       1
   14854   13234   32762       1
   16432   13255   32763       1
   13210   13256   32764       1
   14704   13257   32765       1
   13208   13258   32766       1
   13210   13307   32767       1
   11632   13308   32768       1
   13284   13309   32769       1
   14930   13310   32770       1
   14706   13331   32771       1
   13286   13332   32772       1
   14780   13333   32773       1
   13284   13334   32774       1
   15086   13381   32775       1
   11706   13382   32776       1
   13358   13383   32777       1
   15004   13384   32778       1
   14932   13405   32779       1
   13360   13406   32780       1
   13204   13407   32781       1
   13358   13408   32782       1
   13360   13457   32783       1
   11782   13458   32784       1
   13434   13459   32785       1
   15080   13460   32786       1
   13206   13481   32787       1
   13436   13482   32788       1
   13280   13483   32789       1
   13434   13484   32790       1
   15236   13531   32791       1
   11856   13532   32792       1
   13508   13533   32793       1
   15154   13534   32794       1
   15082   13555   32795       1
   13510   13556   32796       1
   13354   13557   32797       1
   13508   13558   32798       1
   13510   13607   32799       1
   11932   13608   32800       1
   13584   13609   32801       1
   15230   13610   32802       1
   13356   13631   32803       1
   13586   13632   32804       1
   13430   13633   32805       1
   13584   13634   32806       1
   15386   13681   32807       1
   12006   13682   32808       1
   13658   13683   32809       1
   15304   13684   32810       1
   15232   13705   32811       1
   13660   13706   32812       1
   13504   13707   32813       1
   13658   13708   32814       1
   13660   13757   32815       1
   12082   13758   32816       1
   13734   13759   32817       1
   15380   13760   32818       1
   13506   13781   32819       1
   13736   13782   32820       1
   13580   13783   32821       1
   13734   13784   32822       1
   15536   13831   32823       1
   12156   13832   32824       1
   13808   13833   32825       1
   15454   13834   32826       1
   15382   13855   32827       1
   13810   13856   32828       1
   13654   13857   32829       1
   13808   13858   32830       1
   13810   13907   32831       1
   12232   13908   32832       1
   13884   13909   32833       1
   15530   13910   32834       1
   13656   13931   32835       1
   13886   13932   32836       1
   13730   13933   32837       1
   13884   13934   32838       1
   15686   13981   32839       1
   12306   13982   32840       1
   13958   13983   32841       1
   15604   13984   32842       1
   15532   14005   32843       1
   13960   14006   32844       1
   13804   14007   32845       1
   13958   14008   32846       1
   13960   14057   32847       1
   12382   14058   32848       1
   14034   14059   32849       1
   15680   14060   32850       1
   13806   14081   32851       1
   14036   14082   32852       1
   13880   14083   32853       1
   14034   14084   32854       1
   15836   14131   32855       1
   12456   14132   32856       1
   14108   14133   32857       1
   15754   14134   32858       1
   15682   14155   32859       1
   14110   14156   32860       1
   13954   14157   32861       1
   14108   14158   32862       1
   14110   14207   32863       1
   12532   14208   32864       1
   14184   14209   32865       1
   15830   14210   32866       1
   13956   14231   32867       1
   14186   14232   32868       1
   14030   14233   32869       1
   14184   14234   32870       1
   15986   14281   32871       1
   12606   14282   32872       1
   14258   14283   32873       1
   15904   14284   32874       1
   15832   14305   32875       1
   14260   14306   32876       1
   14104   14307   32877       1
   14258   14308   32878       1
   14260   14357   32879       1
   12682   14358   32880       1
   14334   14359   32881       1
   15980   14360   32882       1
   14106   14381   32883       1
   14336   14382   32884       1
   14180   14383   32885       1
   14334   14384   32886       1
   16136   14431   32887       1
   12756   14432   32888       1
   14408   14433   32889       1
   16054   14434   32890       1
   15982   14455   32891       1
   14410   14456   32892       1
   14254   14457   32893       1
   14408   14458   32894       1
   14410   14507   32895       1
   12832   14508   32896       1
   14484   14509   32897       1
   16130   14510   32898       1
   14256   14531   32899       1
   14486   14532   32900       1
   14330   14533   32901       1
   14484   14534   32902       1
   16286   14581   32903       1
   12906   14582   32904       1
   14558   14583   32905       1
   16204   14584   32906       1
   16132   14605   32907       1
   14560   14606   32908       1
   14404   14607   32909       1
   14558   14608   32910       1
   14560   14657   32911       1
   12982   14658   32912       1
   14634   14659   32913       1
   16280   14660   32914       1
   14406   14681   32915       1
   14636   14682   32916       1
   14480   14683   32917       1
   14634   14684   32918       1
   16436   14731   32919       1
   13056   14732   32920       1
   14708   14733   32921       1
   16354   14734   32922       1
   16282   14755   32923       1
   14710   14756   32924       1
   14554   14757   32925       1
   14708   14758   32926       1
   14710   14807   32927       1
   13132   14808   32928       1
   14784   14809   32929       1
   16430   14810   32930       1
   14556   14831   32931       1
   14786   14832   32932       1
   14630   14833   32933       1
   14784   14834   32934       1
   16586   14881   32935       1
   13206   14882   32936       1
   14858   14883   32937       1
   16504   14884   32938       1
   18082   14905   32939       1
   14860   14906   32940       1
   16354   14907   32941       1
   14858   14908   32942       1
   14860   14957   32943       1
   13282   14958   32944       1
   14934   14959   32945       1
   16580   14960   32946       1
   16356   14981   32947       1
   14936   14982   32948       1
   16430   14983   32949       1
   14934   14984   32950       1
   16736   15031   32951       1
   13356   15032   32952       1
   15008   15033   32953       1
   16654   15034   32954       1
   16582   15055   32955       1
   15010   15056   32956       1
   14854   15057   32957       1
   15008   15058   32958       1
   15010   15107   32959       1
   13432   15108   32960       1
   15084   15109   32961       1
   16730   15110   32962       1
   14856   15131   32963       1
   15086   15132   32964       1
   14930   15133   32965       1
   15084   15134   32966       1
   16886   15181   32967       1
   13506   15182   32968       1
   15158   15183   32969       1
   16804   15184   32970       1
   16732   15205   32971       1
   15160   15206   32972       1
   15004   15207   32973       1
   15158   15208   32974       1
   15160   15257   32975       1
   13582   15258   32976       1
   15234   15259   32977       1
   16880   15260   32978       1
   15006   15281   32979       1
   15236   15282   32980       1
   15080   15283   32981       1
   15234   15284   32982       1
   17036   15331   32983       1
   13656   15332   32984       1
   15308   15333   32985       1
   16954   15334   32986       1
   16882   15355   32987       1
   15310   15356   32988       1
   15154   15357   32989       1
   15308   15358   32990       1
   15310   15407   32991       1
   13732   15408   32992       1
   15384   15409   32993       1
   17030   15410   32994       1
   15156   15431   32995       1
   15386   15432   32996       1
   15230   15433   32997       1
   15384   15434   32998       1
   17186   15481   32999       1
   13806   15482   33000       1
   15458   15483   33001       1
   17104   15484   33002       1
   17032   15505   33003       1
   15460   15506   33004       1
   15304   15507   33005       1
   15458   15508   33006       1
   15460   15557   33007       1
   13882   15558   33008       1
   15534   15559   33009       1
   17180   15560   33010       1
   15306   15581   33011       1
   15536   15582   33012       1
   15380   15583   33013       1
   15534   15584   33014       1
   17336   15631   33015       1
   13956   15632   33016       1
   15608   15633   33017       1
   17254   15634   33018       1
   17182   15655   33019       1
   15610   15656   33020       1
   15454   15657   33021       1
   15608   15658   33022       1
   15610   15707   33023       1
   14032   15708   33024       1
   15684   15709   33025       1
   17330   15710   33026       1
   15456   15731   33027       1
   15686   15732   33028       1
   15530   15733   33029       1
   15684   15734   33030       1
   17486   15781   33031       1
   14106   15782   33032       1
   15758   15783   33033       1
   17404   15784   33034       1
   17332   15805   33035       1
   15760   15806   33036       1
   15604   15807   33037       1
   15758   15808   33038       1
   15760   15857   33039       1
   14182   15858   33040       1
   15834   15859   33041       1
   17480   15860   33042       1
   15606   15881   33043       1
   15836   15882   33044       1
   15680   15883   33045       1
   15834   15884   33046       1
   17636   15931   33047       1
   14256   15932   33048       1
   15908   15933   33049       1
   17554   15934   33050       1
   17482   15955   33051       1
   15910   15956   33052       1
   15754   15957   33053       1
   15908   15958   33054       1
   15910   16007   33055       1
   14332   16008   33056       1
   15984   16009   33057       1
   17630   16010   33058       1
   15756   16031   33059       1
   15986   16032   33060       1
   15830   16033   33061       1
   15984   16034   33062       1
   17786   16081   33063       1
   14406   16082   33064       1
   16058   16083   33065       1
   17704   16084   33066       1
   17632   16105   33067       1
   16060   16106   33068       1
   15904   16107   33069       1
   16058   16108   33070       1
   16060   16157   33071       1
   14482   16158   33072       1
   16134   16159   33073       1
   17780   16160   33074       1
   15906   16181   33075       1
   16136   16182   33076       1
   15980   16183   33077       1
   16134   16184   33078       1
   17936   16231   33079       1
   14556   16232   33080       1
   16208   16233   33081       1
   17854   16234   33082       1
   17782   16255   33083       1
   16210   16256   33084       1
   16054   16257   33085       1
   16208   16258   33086       1
   16210   16307   33087       1
   14632   16308   33088       1
   16284   16309   33089       1
   17930   16310   33090       1
   16056   16331   33091       1
   16286   16332   33092       1
   16130   16333   33093       1
   16284   16334   33094       1
   18086   16381   33095       1
   14706   16382   33096       1
   16358   16383   33097       1
   18004   16384   33098       1
   17932   16405   33099       1
   16360   16406   33100       1
   16204   16407   33101       1
   16358   16408   33102       1
   16360   16457   33103       1
   14782   16458   33104       1
   16434   16459   33105       1
   18080   16460   33106       1
   16206   16481   33107       1
   16436   16482   33108       1
   16280   16483   33109       1
   16434   16484   33110       1
   18236   16531   33111       1
   14856   16532   33112       1
   16508   16533   33113       1
   18154   16534   33114       1
   19732   16555   33115       1
   16510   16556   33116       1
   18004   16557   33117       1
   16508   16558   33118       1
   16510   16607   33119       1
   14932   16608   33120       1
   16584   16609   33121       1
   18230   16610   33122       1
   18006   16631   33123       1
   16586   16632   33124       1
   18080   16633   33125       1
   16584   16634   33126       1
   18386   16681   33127       1
   15006   16682   33128       1
   16658   16683   33129       1
   18304   16684   33130       1
   18232   16705   33131       1
   16660   16706   33132       1
   16504   16707   33133       1
   16658   16708   33134       1
   16660   16757   33135       1
   15082   16758   33136       1
   16734   16759   33137       1
   18380   16760   33138       1
   16506   16781   33139       1
   16736   16782   33140       1
   16580   16783   33141       1
   16734   16784   33142       1
   18536   16831   33143       1
   15156   16832   33144       1
   16808   16833   33145       1
   18454   16834   33146       1
   18382   16855   33147       1
   16810   16856   33148       1
   16654   16857   33149       1
   16808   16858   33150       1
   16810   16907   33151       1
   15232   16908   33152       1
   16884   16909   33153       1
   18530   16910   33154       1
   16656   16931   33155       1
   16886   16932   33156       1
   16730   16933   33157       1
   16884   16934   33158       1
   18686   16981   33159       1
   15306   16982   33160       1
   16958   16983   33161       1
   18604   16984   33162       1
   18532   17005   33163       1
   16960   17006   33164       1
   16804   17007   33165       1
   16958   17008   33166       1
   16960   17057   33167       1
   15382   17058   33168       1
   17034   17059   33169       1
   18680   17060   33170       1
   16806   17081   33171       1
   17036   17082   33172       1
   16880   17083   33173       1
   17034   17084   33174       1
   18836   17131   33175       1
   15456   17132   33176       1
   17108   17133   33177       1
   18754   17134   33178       1
   18682   17155   33179       1
   17110   17156   33180       1
   16954   17157   33181       1
   17108   17158   33182       1
   17110   17207   33183       1
   15532   17208   33184       1
   17184   17209   33185       1
   18830   17210   33186       1
   16956   17231   33187       1
   17186   17232   33188       1
   17030   17233   33189       1
   17184   17234   33190       1
   18986   17281   33191       1
   15606   17282   33192       1
   17258   17283   33193       1
   18904   17284   33194       1
   18832   17305   33195       1
   17260   17306   33196       1
   17104   17307   33197       1
   17258   17308   33198       1
   17260   17357   33199       1
   15682   17358   33200       1
   17334   17359   33201       1
   18980   17360   33202       1
   17106   17381   33203       1
   17336   17382   33204       1
   17180   17383   33205       1
   17334   17384   33206       1
   19136   17431   33207       1
   15756   17432   33208       1
   17408   17433   33209       1
   19054   17434   33210       1
   18982   17455   33211       1
   17410   17456   33212       1
   17254   17457   33213       1
   17408   17458   33214       1
   17410   17507   33215       1
   15832   17508   33216       1
   17484   17509   33217       1
   19130   17510   33218       1
   17256   17531   33219       1
   17486   17532   33220       1
   17330   17533   33221       1
   17484   17534   33222       1
   19286   17581   33223       1
   15906   17582   33224       1
   17558   17583   33225       1
   19204   17584   33226       1
   19132   17605   33227       1
   17560   17606   33228       1
   17404   17607   33229       1
   17558   17608   33230       1
   17560   17657   33231       1
   15982   17658   33232       1
   17634   17659   33233       1
   19280   17660   33234       1
   17406   17681   33235       1
   17636   17682   33236       1
   17480   17683   33237       1
   17634   17684   33238       1
   19436   17731   33239       1
   16056   17732   33240       1
   17708   17733   33241       1
   19354   17734   33242       1
   19282   17755   33243       1
   17710   17756   33244       1
   17554   17757   33245       1
   17708   17758   33246       1
   17710   17807   33247       1
   16132   17808   33248       1
   17784   17809   33249       1
   19430   17810   33250       1
   17556   17831   33251       1
   17786   17832   33252       1
   17630   17833   33253       1
   17784   17834   33254       1
   19586   17881   33255       1
   16206   17882   33256       1
   17858   17883   33257       1
   19504   17884   33258       1
   19432   17905   33259       1
   17860   17906   33260       1
   17704   17907   33261       1
   17858   17908   33262       1
   17860   17957   33263       1
   16282   17958   33264       1
   17934   17959   33265       1
   19580   17960   33266       1
   17706   17981   33267       1
   17936   17982   33268       1
   17780   17983   33269       1
   17934   17984   33270       1
   19736   18031   33271       1
   16356   18032   33272       1
   18008   18033   33273       1
   19654   18034   33274       1
   19582   18055   33275       1
   18010   18056   33276       1
   17854   18057   33277       1
   18008   18058   33278       1
   18010   18107   33279       1
   16432   18108   33280       1
   18084   18109   33281       1
   19730   18110   33282       1
   17856   18131   33283       1
   18086   18132   33284       1
   17930   18133   33285       1
   18084   18134   33286       1
   19886   18181   33287       1
   16506   18182   33288       1
   18158   18183   33289       1
   19804   18184   33290       1
   21382   18205   33291       1
   18160   18206   33292       1
   19654   18207   33293       1
   18158   18208   33294       1
   18160   18257   33295       1
   16582   18258   33296       1
   18234   18259   33297       1
   19880   18260   33298       1
   19656   18281   33299       1
   18236   18282   33300       1
   19730   18283   33301       1
   18234   18284   33302       1
   20036   18331   33303       1
   16656   18332   33304       1
   18308   18333   33305       1
   19954   18334   33306       1
   19882   18355   33307       1
   18310   18356   33308       1
   18154   18357   33309       1
   18308   18358   33310       1
   18310   18407   33311       1
   16732   18408   33312       1
   18384   18409   33313       1
   20030   18410   33314       1
   18156   18431   33315       1
   18386   18432   33316       1
   18230   18433   33317       1
   18384   18434   33318       1
   20186   18481   33319       1
   16806   18482   33320       1
   18458   18483   33321       1
   20104   18484   33322       1
   20032   18505   33323       1
   18460   18506   33324       1
   18304   18507   33325       1
   18458   18508   33326       1
   18460   18557   33327       1
   16882   18558   33328       1
   18534   18559   33329       1
   20180   18560   33330       1
   18306   18581   33331       1
   18536   18582   33332       1
   18380   18583   33333       1
   18534   18584   33334       1
   20336   18631   33335       1
   16956   18632   33336       1
   18608   18633   33337       1
   20254   18634   33338       1
   20182   18655   33339       1
   18610   18656   33340       1
   18454   18657   33341       1
   18608   18658   33342       1
   18610   18707   33343       1
   17032   18708   33344       1
   18684   18709   33345       1
   20330   18710   33346       1
   18456   18731   33347       1
   18686   18732   33348       1
   18530   18733   33349       1
   18684   18734   33350       1
   20486   18781   33351       1
   17106   18782   33352       1
   18758   18783   33353       1
   20404   18784   33354       1
   20332   18805   33355       1
   18760   18806   33356       1
   18604   18807   33357       1
   18758   18808   33358       1
   18760   18857   33359       1
   17182   18858   33360       1
   18834   18859   33361       1
   20480   18860   33362       1
   18606   18881   33363       1
   18836   18882   33364       1
   18680   18883   33365       1
   18834   18884   33366       1
   20636   18931   33367       1
   17256   18932   33368       1
   18908   18933   33369       1
   20554   18934   33370       1
   20482   18955   33371       1
   18910   18956   33372       1
   18754   18957   33373       1
   18908   18958   33374       1
   18910   19007   33375       1
   17332   19008   33376       1
   18984   19009   33377       1
   20630   19010   33378       1
   18756   19031   33379       1
   18986   19032   33380       1
   18830   19033   33381       1
   18984   19034   33382       1
   20786   19081   33383       1
   17406   19082   33384       1
   19058   19083   33385       1
   20704   19084   33386       1
   20632   19105   33387       1
   19060   19106   33388       1
   18904   19107   33389       1
   19058   19108   33390       1
   19060   19157   33391       1
   17482   19158   33392       1
   19134   19159   33393       1
   20780   19160   33394       1
   18906   19181   33395       1
   19136   19182   33396       1
   18980   19183   33397       1
   19134   19184   33398       1
   20936   19231   33399       1
   17556   19232   33400       1
   19208   19233   33401       1
   20854   19234   33402       1
   20782   19255   33403       1
   19210   19256   33404       1
   19054   19257   33405       1
   19208   19258   33406       1
   19210   19307   33407       1
   17632   19308   33408       1
   19284   19309   33409       1
   20930   19310   33410       1
   19056   19331   33411       1
   19286   19332   33412       1
   19130   19333   33413       1
   19284   19334   33414       1
   21086   19381   33415       1
   17706   19382   33416       1
   19358   19383   33417       1
   21004   19384   33418       1
   20932   19405   33419       1
   19360   19406   33420       1
   19204   19407   33421       1
   19358   19408   33422       1
   19360   19457   33423       1
   17782   19458   33424       1
   19434   19459   33425       1
   21080   19460   33426       1
   19206   19481   33427       1
   19436   19482   33428       1
   19280   19483   33429       1
   19434   19484   33430       1
   21236   19531   33431       1
   17856   19532   33432       1
   19508   19533   33433       1
   21154   19534   33434       1
   21082   19555   33435       1
   19510   19556   33436       1
   19354   19557   33437       1
   19508   19558   33438       1
   19510   19607   33439       1
   17932   19608   33440       1
   19584   19609   33441       1
   21230   19610   33442       1
   19356   19631   33443       1
   19586   19632   33444       1
   19430   19633   33445       1
   19584   19634   33446       1
   21386   19681   33447       1
   18006   19682   33448       1
   19658   19683   33449       1
   21304   19684   33450       1
   21232   19705   33451       1
   19660   19706   33452       1
   19504   19707   33453       1
   19658   19708   33454       1
   19660   19757   33455       1
   18082   19758   33456       1
   19734   19759   33457       1
   21380   19760   33458       1
   19506   19781   33459       1
   19736   19782   33460       1
   19580   19783   33461       1
   19734   19784   33462       1
   21536   19831   33463       1
   18156   19832   33464       1
   19808   19833   33465       1
   21454   19834   33466       1
   23032   19855   33467       1
   19810   19856   33468       1
   21304   19857   33469       1
   19808   19858   33470       1
   19810   19907   33471       1
   18232   19908   33472       1
   19884   19909   33473       1
   21530   19910   33474       1
   21306   19931   33475       1
   19886   19932   33476       1
   21380   19933   33477       1
   19884   19934   33478       1
   21686   19981   33479       1
   18306   19982   33480       1
   19958   19983   33481       1
   21604   19984   33482       1
   21532   20005   33483       1
   19960   20006   33484       1
   19804   20007   33485       1
   19958   20008   33486       1
   19960   20057   33487       1
   18382   20058   33488       1
   20034   20059   33489       1
   21680   20060   33490       1
   19806   20081   33491       1
   20036   20082   33492       1
   19880   20083   33493       1
   20034   20084   33494       1
   21836   20131   33495       1
   18456   20132   33496       1
   20108   20133   33497       1
   21754   20134   33498       1
   21682   20155   33499       1
   20110   20156   33500       1
   19954   20157   33501       1
   20108   20158   33502       1
   20110   20207   33503       1
   18532   20208   33504       1
   20184   20209   33505       1
   21830   20210   33506       1
   19956   20231   33507       1
   20186   20232   33508       1
   20030   20233   33509       1
   20184   20234   33510       1
   21986   20281   33511       1
   18606   20282   33512       1
   20258   20283   33513       1
   21904   20284   33514       1
   21832   20305   33515       1
   20260   20306   33516       1
   20104   20307   33517       1
   20258   20308   33518       1
   20260   20357   33519       1
   18682   20358   33520       1
   20334   20359   33521       1
   21980   20360   33522       1
   20106   20381   33523       1
   20336   20382   33524       1
   20180   20383   33525       1
   20334   20384   33526       1
   22136   20431   33527       1
   18756   20432   33528       1
   20408   20433   33529       1
   22054   20434   33530       1
   21982   20455   33531       1
   20410   20456   33532       1
   20254   20457   33533       1
   20408   20458   33534       1
   20410   20507   33535       1
   18832   20508   33536       1
   20484   20509   33537       1
   22130   20510   33538       1
   20256   20531   33539       1
   20486   20532   33540       1
   20330   20533   33541       1
   20484   20534   33542       1
   22286   20581   33543       1
   18906   20582   33544       1
   20558   20583   33545       1
   22204   20584   33546       1
   22132   20605   33547       1
   20560   20606   33548       1
   20404   20607   33549       1
   20558   20608   33550       1
   20560   20657   33551       1
   18982   20658   33552       1
   20634   20659   33553       1
   22280   20660   33554       1
   20406   20681   33555       1
   20636   20682   33556       1
   20480   20683   33557       1
   20634   20684   33558       1
   22436   20731   33559       1
   19056   20732   33560       1
   20708   20733   33561       1
   22354   20734   33562       1
   22282   20755   33563       1
   20710   20756   33564       1
   20554   20757   33565       1
   20708   20758   33566       1
   20710   20807   33567       1
   19132   20808   33568       1
   20784   20809   33569       1
   22430   20810   33570       1
   20556   20831   33571       1
   20786   20832   33572       1
   20630   20833   33573       1
   20784   20834   33574       1
   22586   20881   33575       1
   19206   20882   33576       1
   20858   20883   33577       1
   22504   20884   33578       1
   22432   20905   33579       1
   20860   20906   33580       1
   20704   20907   33581       1
   20858   20908   33582       1
   20860   20957   33583       1
   19282   20958   33584       1
   20934   20959   33585       1
   22580   20960   33586       1
   20706   20981   33587       1
   20936   20982   33588       1
   20780   20983   33589       1
   20934   20984   33590       1
   22736   21031   33591       1
   19356   21032   33592       1
   21008   21033   33593       1
   22654   21034   33594       1
   22582   21055   33595       1
   21010   21056   33596       1
   20854   21057   33597       1
   21008   21058   33598       1
   21010   21107   33599       1
   19432   21108   33600       1
   21084   21109   33601       1
   22730   21110   33602       1
   20856   21131   33603       1
   21086   21132   33604       1
   20930   21133   33605       1
   21084   21134   33606       1
   22886   21181   33607       1
   19506   21182   33608       1
   21158   21183   33609       1
   22804   21184   33610       1
   22732   21205   33611       1
   21160   21206   33612       1
   21004   21207   33613       1
   21158   21208   33614       1
   21160   21257   33615       1
   19582   21258   33616       1
   21234   21259   33617       1
   22880   21260   33618       1
   21006   21281   33619       1
   21236   21282   33620       1
   21080   21283   33621       1
   21234   21284   33622       1
   23036   21331   33623       1
   19656   21332   33624       1
   21308   21333   33625       1
   22954   21334   33626       1
   22882   21355   33627       1
   21310   21356   33628       1
   21154   21357   33629       1
   21308   21358   33630       1
   21310   21407   33631       1
   19732   21408   33632       1
   21384   21409   33633       1
   23030   21410   33634       1
   21156   21431   33635       1
   21386   21432   33636       1
   21230   21433   33637       1
   21384   21434   33638       1
   23186   21481   33639       1
   19806   21482   33640       1
   21458   21483   33641       1
   23104   21484   33642       1
   24682   21505   33643       1
   21460   21506   33644       1
   22954   21507   33645       1
   21458   21508   33646       1
   21460   21557   33647       1
   19882   21558   33648       1
   21534   21559   33649       1
   23180   21560   33650       1
   22956   21581   33651       1
   21536   21582   33652       1
   23030   21583   33653       1
   21534   21584   33654       1
   23336   21631   33655       1
   19956   21632   33656       1
   21608   21633   33657       1
   23254   21634   33658       1
   23182   21655   33659       1
   21610   21656   33660       1
   21454   21657   33661       1
   21608   21658   33662       1
   21610   21707   33663       1
   20032   21708   33664       1
   21684   21709   33665       1
   23330   21710   33666       1
   21456   21731   33667       1
   21686   21732   33668       1
   21530   21733   33669       1
   21684   21734   33670       1
   23486   21781   33671       1
   20106   21782   33672       1
   21758   21783   33673       1
   23404   21784   33674       1
   23332   21805   33675       1
   21760   21806   33676       1
   21604   21807   33677       1
   21758   21808   33678       1
   21760   21857   33679       1
   20182   21858   33680       1
   21834   21859   33681       1
   23480   21860   33682       1
   21606   21881   33683       1
   21836   21882   33684       1
   21680   21883   33685       1
   21834   21884   33686       1
   23636   21931   33687       1
   20256   21932   33688       1
   21908   21933   33689       1
   23554   21934   33690       1
   23482   21955   33691       1
   21910   21956   33692       1
   21754   21957   33693       1
   21908   21958   33694       1
   21910   22007   33695       1
   20332   22008   33696       1
   21984   22009   33697       1
   23630   22010   33698       1
   21756   22031   33699       1
   21986   22032   33700       1
   21830   22033   33701       1
   21984   22034   33702       1
   23786   22081   33703       1
   20406   22082   33704       1
   22058   22083   33705       1
   23704   22084   33706       1
   23632   22105   33707       1
   22060   22106   33708       1
   21904   22107   33709       1
   22058   22108   33710       1
   22060   22157   33711       1
   20482   22158   33712       1
   22134   22159   33713       1
   23780   22160   33714       1
   21906   22181   33715       1
   22136   22182   33716       1
   21980   22183   33717       1
   22134   22184   33718       1
   23936   22231   33719       1
   20556   22232   33720       1
   22208   22233   33721       1
   23854   22234   33722       1
   23782   22255   33723       1
   22210   22256   33724       1
   22054   22257   33725       1
   22208   22258   33726       1
   22210   22307   33727       1
   20632   22308   33728       1
   22284   22309   33729       1
   23930   22310   33730       1
   22056   22331   33731       1
   22286   22332   33732       1
   22130   22333   33733       1
   22284   22334   33734       1
   24086   22381   33735       1
   20706   22382   33736       1
   22358   22383   33737       1
   24004   22384   33738       1
   23932   22405   33739       1
   22360   22406   33740       1
   22204   22407   33741       1
   22358   22408   33742       1
   22360   22457   33743       1
   20782   22458   33744       1
   22434   22459   33745       1
   24080   22460   33746       1
   22206   22481   33747       1
   22436   22482   33748       1
   22280   22483   33749       1
   22434   22484   33750       1
   24236   22531   33751       1
   20856   22532   33752       1
   22508   22533   33753       1
   24154   22534   33754       1
   24082   22555   33755       1
   22510   22556   33756       1
   22354   22557   33757       1
   22508   22558   33758       1
   22510   22607   33759       1
   20932   22608   33760       1
   22584   22609   33761       1
   24230   22610   33762       1
   22356   22631   33763       1
   22586   22632   33764       1
   22430   22633   33765       1
   22584   22634   33766       1
   24386   22681   33767       1
   21006   22682   33768       1
   22658   22683   33769       1
   24304   22684   33770       1
   24232   22705   33771       1
   22660   22706   33772       1
   22504   22707   33773       1
   22658   22708   33774       1
   22660   22757   33775       1
   21082   22758   33776       1
   22734   22759   33777       1
   24380   22760   33778       1
   22506   22781   33779       1
   22736   22782   33780       1
   22580   22783   33781       1
   22734   22784   33782       1
   24536   22831   33783       1
   21156   22832   33784       1
   22808   22833   33785       1
   24454   22834   33786       1
   24382   22855   33787       1
   22810   22856   33788       1
   22654   22857   33789       1
   22808   22858   33790       1
   22810   22907   33791       1
   21232   22908   33792       1
   22884   22909   33793       1
   24530   22910   33794       1
   22656   22931   33795       1
   22886   22932   33796       1
   22730   22933   33797       1
   22884   22934   33798       1
   24686   22981   33799       1
   21306   22982   33800       1
   22958   22983   33801       1
   24604   22984   33802       1
   24532   23005   33803       1
   22960   23006   33804       1
   22804   23007   33805       1
   22958   23008   33806       1
   22960   23057   33807       1
   21382   23058   33808       1
   23034   23059   33809       1
   24680   23060   33810       1
   22806   23081   33811       1
   23036   23082   33812       1
   22880   23083   33813       1
   23034   23084   33814       1
   24836   23131   33815       1
   21456   23132   33816       1
   23108   23133   33817       1
   24754   23134   33818       1
   26332   23155   33819       1
   23110   23156   33820       1
   24604   23157   33821       1
   23108   23158   33822       1
   23110   23207   33823       1
   21532   23208   33824       1
   23184   23209   33825       1
   24830   23210   33826       1
   24606   23231   33827       1
   23186   23232   33828       1
   24680   23233   33829       1
   23184   23234   33830       1
   24986   23281   33831       1
   21606   23282   33832       1
   23258   23283   33833       1
   24904   23284   33834       1
   24832   23305   33835       1
   23260   23306   33836       1
   23104   23307   33837       1
   23258   23308   33838       1
   23260   23357   33839       1
   21682   23358   33840       1
   23334   23359   33841       1
   24980   23360   33842       1
   23106   23381   33843       1
   23336   23382   33844       1
   23180   23383   33845       1
   23334   23384   33846       1
   25136   23431   33847       1
   21756   23432   33848       1
   23408   23433   33849       1
   25054   23434   33850       1
   24982   23455   33851       1
   23410   23456   33852       1
   23254   23457   33853       1
   23408   23458   33854       1
   23410   23507   33855       1
   21832   23508   33856       1
   23484   23509   33857       1
   25130   23510   33858       1
   23256   23531   33859       1
   23486   23532   33860       1
   23330   23533   33861       1
   23484   23534   33862       1
   25286   23581   33863       1
   21906   23582   33864       1
   23558   23583   33865       1
   25204   23584   33866       1
   25132   23605   33867       1
   23560   23606   33868       1
   23404   23607   33869       1
   23558   23608   33870       1
   23560   23657   33871       1
   21982   23658   33872       1
   23634   23659   33873       1
   25280   23660   33874       1
   23406   23681   33875       1
   23636   23682   33876       1
   23480   23683   33877       1
   23634   23684   33878       1
   25436   23731   33879       1
   22056   23732   33880       1
   23708   23733   33881       1
   25354   23734   33882       1
   25282   23755   33883       1
   23710   23756   33884       1
   23554   23757   33885       1
   23708   23758   33886       1
   23710   23807   33887       1
   22132   23808   33888       1
   23784   23809   33889       1
   25430   23810   33890       1
   23556   23831   33891       1
   23786   23832   33892       1
   23630   23833   33893       1
   23784   23834   33894       1
   25586   23881   33895       1
   22206   23882   33896       1
   23858   23883   33897       1
   25504   23884   33898       1
   25432   23905   33899       1
   23860   23906   33900       1
   23704   23907   33901       1
   23858   23908   33902       1
   23860   23957   33903       1
   22282   23958   33904       1
   23934   23959   33905       1
   25580   23960   33906       1
   23706   23981   33907       1
   23936   23982   33908       1
   23780   23983   33909       1
   23934   23984   33910       1
   25736   24031   33911       1
   22356   24032   33912       1
   24008   24033   33913       1
   25654   24034   33914       1
   25582   24055   33915       1
   24010   24056   33916       1
   23854   24057   33917       1
   24008   24058   33918       1
   24010   24107   33919       1
   22432   24108   33920       1
   24084   24109   33921       1
   25730   24110   33922       1
   23856   24131   33923       1
   24086   24132   33924       1
   23930   24133   33925       1
   24084   24134   33926       1
   25886   24181   33927       1
   22506   24182   33928       1
   24158   24183   33929       1
   25804   24184   33930       1
   25732   24205   33931       1
   24160   24206   33932       1
   24004   24207   33933       1
   24158   24208   33934       1
   24160   24257   33935       1
   22582   24258   33936       1
   24234   24259   33937       1
   25880   24260   33938       1
   24006   24281   33939       1
   24236   24282   33940       1
   24080   24283   33941       1
   24234   24284   33942       1
   26036   24331   33943       1
   22656   24332   33944       1
   24308   24333   33945       1
   25954   24334   33946       1
   25882   24355   33947       1
   24310   24356   33948       1
   24154   24357   33949       1
   24308   24358   33950       1
   24310   24407   33951       1
   22732   24408   33952       1
   24384   24409   33953       1
   26030   24410   33954       1
   24156   24431   33955       1
   24386   24432   33956       1
   24230   24433   33957       1
   24384   24434   33958       1
   26186   24481   33959       1
   22806   24482   33960       1
   24458   24483   33961       1
   26104   24484   33962       1
   26032   24505   33963       1
   24460   24506   33964       1
   24304   24507   33965       1
   24458   24508   33966       1
   24460   24557   33967       1
   22882   24558   33968       1
   24534   24559   33969       1
   26180   24560   33970       1
   24306   24581   33971       1
   24536   24582   33972       1
   24380   24583   33973       1
   24534   24584   33974       1
   26336   24631   33975       1
   22956   24632   33976       1
   24608   24633   33977       1
   26254   24634   33978       1
   26182   24655   33979       1
   24610   24656   33980       1
   24454   24657   33981       1
   24608   24658   33982       1
   24610   24707   33983       1
   23032   24708   33984       1
   24684   24709   33985       1
   26330   24710   33986       1
   24456   24731   33987       1
   24686   24732   33988       1
   24530   24733   33989       1
   24684   24734   33990       1
   26486   24781   33991       1
   23106   24782   33992       1
   24758   24783   33993       1
   26404   24784   33994       1
   27982   24805   33995       1
   24760   24806   33996       1
   26254   24807   33997       1
   24758   24808   33998       1
   24760   24857   33999       1
   23182   24858   34000       1
   24834   24859   34001       1
   26480   24860   34002       1
   26256   24881   34003       1
   24836   24882   34004       1
   26330   24883   34005       1
   24834   24884   34006       1
   26636   24931   34007       1
   23256   24932   34008       1
   24908   24933   34009       1
   26554   24934   34010       1
   26482   24955   34011       1
   24910   24956   34012       1
   24754   24957   34013       1
   24908   24958   34014       1
   24910   25007   34015       1
   23332   25008   34016       1
   24984   25009   34017       1
   26630   25010   34018       1
   24756   25031   34019       1
   24986   25032   34020       1
   24830   25033   34021       1
   24984   25034   34022       1
   26786   25081   34023       1
   23406   25082   34024       1
   25058   25083   34025       1
   26704   25084   34026       1
   26632   25105   34027       1
   25060   25106   34028       1
   24904   25107   34029       1
   25058   25108   34030       1
   25060   25157   34031       1
   23482   25158   34032       1
   25134   25159   34033       1
   26780   25160   34034       1
   24906   25181   34035       1
   25136   25182   34036       1
   24980   25183   34037       1
   25134   25184   34038       1
   26936   25231   34039       1
   23556   25232   34040       1
   25208   25233   34041       1
   26854   25234   34042       1
   26782   25255   34043       1
   25210   25256   34044       1
   25054   25257   34045       1
   25208   25258   34046       1
   25210   25307   34047       1
   23632   25308   34048       1
   25284   25309   34049       1
   26930   25310   34050       1
   25056   25331   34051       1
   25286   25332   34052       1
   25130   25333   34053       1
   25284   25334   34054       1
   27086   25381   34055       1
   23706   25382   34056       1
   25358   25383   34057       1
   27004   25384   34058       1
   26932   25405   34059       1
   25360   25406   34060       1
   25204   25407   34061       1
   25358   25408   34062       1
   25360   25457   34063       1
   23782   25458   34064       1
   25434   25459   34065       1
   27080   25460   34066       1
   25206   25481   34067       1
   25436   25482   34068       1
   25280   25483   34069       1
   25434   25484   34070       1
   27236   25531   34071       1
   23856   25532   34072       1
   25508   25533   34073       1
   27154   25534   34074       1
   27082   25555   34075       1
   25510   25556   34076       1
   25354   25557   34077       1
   25508   25558   34078       1
   25510   25607   34079       1
   23932   25608   34080       1
   25584   25609   34081       1
   27230   25610   34082       1
   25356   25631   34083       1
   25586   25632   34084       1
   25430   25633   34085       1
   25584   25634   34086       1
   27386   25681   34087       1
   24006   25682   34088       1
   25658   25683   34089       1
   27304   25684   34090       1
   27232   25705   34091       1
   25660   25706   34092       1
   25504   25707   34093       1
   25658   25708   34094       1
   25660   25757   34095       1
   24082   25758   34096       1
   25734   25759   34097       1
   27380   25760   34098       1
   25506   25781   34099       1
   25736   25782   34100       1
   25580   25783   34101       1
   25734   25784   34102       1
   27536   25831   34103       1
   24156   25832   34104       1
   25808   25833   34105       1
   27454   25834   34106       1
   27382   25855   34107       1
   25810   25856   34108       1
   25654   25857   34109       1
   25808   25858   34110       1
   25810   25907   34111       1
   24232   25908   34112       1
   25884   25909   34113       1
   27530   25910   34114       1
   25656   25931   34115       1
   25886   25932   34116       1
   25730   25933   34117       1
   25884   25934   34118       1
   27686   25981   34119       1
   24306   25982   34120       1
   25958   25983   34121       1
   27604   25984   34122       1
   27532   26005   34123       1
   25960   26006   34124       1
   25804   26007   34125       1
   25958   26008   34126       1
   25960   26057   34127       1
   24382   26058   34128       1
   26034   26059   34129       1
   27680   26060   34130       1
   25806   26081   34131       1
   26036   26082   34132       1
   25880   26083   34133       1
   26034   26084   34134       1
   27836   26131   34135       1
   24456   26132   34136       1
   26108   26133   34137       1
   27754   26134   34138       1
   27682   26155   34139       1
   26110   26156   34140       1
   25954   26157   34141       1
   26108   26158   34142       1
   26110   26207   34143       1
   24532   26208   34144       1
   26184   26209   34145       1
   27830   26210   34146       1
   25956   26231   34147       1
   26186   26232   34148       1
   26030   26233   34149       1
   26184   26234   34150       1
   27986   26281   34151       1
   24606   26282   34152       1
   26258   26283   34153       1
   27904   26284   34154       1
   27832   26305   34155       1
   26260   26306   34156       1
   26104   26307   34157       1
   26258   26308   34158       1
   26260   26357   34159       1
   24682   26358   34160       1
   26334   26359   34161       1
   27980   26360   34162       1
   26106   26381   34163       1
   26336   26382   34164       1
   26180   26383   34165       1
   26334   26384   34166       1
   28136   26431   34167       1
   24756   26432   34168       1
   26408   26433   34169       1
   28054   26434   34170       1
   29632   26455   34171       1
   26410   26456   34172       1
   27904   26457   34173       1
   26408   26458   34174       1
   26410   26507   34175       1
   24832   26508   34176       1
   26484   26509   34177       1
   28130   26510   34178       1
   27906   26531   34179       1
   26486   26532   34180       1
   27980   26533   34181       1
   26484   26534   34182       1
   28286   26581   34183       1
   24906   26582   34184       1
   26558   26583   34185       1
   28204   26584   34186       1
   28132   26605   34187       1
   26560   26606   34188       1
   26404   26607   34189       1
   26558   26608   34190       1
   26560   26657   34191       1
   24982   26658   34192       1
   26634   26659   34193       1
   28280   26660   34194       1
   26406   26681   34195       1
   26636   26682   34196       1
   26480   26683   34197       1
   26634   26684   34198       1
   28436   26731   34199       1
   25056   26732   34200       1
   26708   26733   34201       1
   28354   26734   34202       1
   28282   26755   34203       1
   26710   26756   34204       1
   26554   26757   34205       1
   26708   26758   34206       1
   26710   26807   34207       1
   25132   26808   34208       1
   26784   26809   34209       1
   28430   26810   34210       1
   26556   26831   34211       1
   26786   26832   34212       1
   26630   26833   34213       1
   26784   26834   34214       1
   28586   26881   34215       1
   25206   26882   34216       1
   26858   26883   34217       1
   28504   26884   34218       1
   28432   26905   34219       1
   26860   26906   34220       1
   26704   26907   34221       1
   26858   26908   34222       1
   26860   26957   34223       1
   25282   26958   34224       1
   26934   26959   34225       1
   28580   26960   34226       1
   26706   26981   34227       1
   26936   26982   34228       1
   26780   26983   34229       1
   26934   26984   34230       1
   28736   27031   34231       1
   25356   27032   34232       1
   27008   27033   34233       1
   28654   27034   34234       1
   28582   27055   34235       1
   27010   27056   34236       1
   26854   27057   34237       1
   27008   27058   34238       1
   27010   27107   34239       1
   25432   27108   34240       1
   27084   27109   34241       1
   28730   27110   34242       1
   26856   27131   34243       1
   27086   27132   34244       1
   26930   27133   34245       1
   27084   27134   34246       1
   28886   27181   34247       1
   25506   27182   34248       1
   27158   27183   34249       1
   28804   27184   34250       1
   28732   27205   34251       1
   27160   27206   34252       1
   27004   27207   34253       1
   27158   27208   34254       1
   27160   27257   34255       1
   25582   27258   34256       1
   27234   27259   34257       1
   28880   27260   34258       1
   27006   27281   34259       1
   27236   27282   34260       1
   27080   27283   34261       1
   27234   27284   34262       1
   29036   27331   34263       1
   25656   27332   34264       1
   27308   27333   34265       1
   28954   27334   34266       1
   28882   27355   34267       1
   27310   27356   34268       1
   27154   27357   34269       1
   27308   27358   34270       1
   27310   27407   34271       1
   25732   27408   34272       1
   27384   27409   34273       1
   29030   27410   34274       1
   27156   27431   34275       1
   27386   27432   34276       1
   27230   27433   34277       1
   27384   27434   34278       1
   29186   27481   34279       1
   25806   27482   34280       1
   27458   27483   34281       1
   29104   27484   34282       1
   29032   27505   34283       1
   27460   27506   34284       1
   27304   27507   34285       1
   27458   27508   34286       1
   27460   27557   34287       1
   25882   27558   34288       1
   27534   27559   34289       1
   29180   27560   34290       1
   27306   27581   34291       1
   27536   27582   34292       1
   27380   27583   34293       1
   27534   27584   34294       1
   29336   27631   34295       1
   25956   27632   34296       1
   27608   27633   34297       1
   29254   27634   34298       1
   29182   27655   34299       1
   27610   27656   34300       1
   27454   27657   34301       1
   27608   27658   34302       1
   27610   27707   34303       1
   26032   27708   34304       1
   27684   27709   34305       1
   29330   27710   34306       1
   27456   27731   34307       1
   27686   27732   34308       1
   27530   27733   34309       1
   27684   27734   34310       1
   29486   27781   34311       1
   26106   27782   34312       1
   27758   27783   34313       1
   29404   27784   34314       1
   29332   27805   34315       1
   27760   27806   34316       1
   27604   27807   34317       1
   27758   27808   34318       1
   27760   27857   34319       1
   26182   27858   34320       1
   27834   27859   34321       1
   29480   27860   34322       1
   27606   27881   34323       1
   27836   27882   34324       1
   27680   27883   34325       1
   27834   27884   34326       1
   29636   27931   34327       1
   26256   27932   34328       1
   27908   27933   34329       1
   29554   27934   34330       1
   29482   27955   34331       1
   27910   27956   34332       1
   27754   27957   34333       1
   27908   27958   34334       1
   27910   28007   34335       1
   26332   28008   34336       1
   27984   28009   34337       1
   29630   28010   34338       1
   27756   28031   34339       1
   27986   28032   34340       1
   27830   28033   34341       1
   27984   28034   34342       1
   29786   28081   34343       1
   26406   28082   34344       1
   28058   28083   34345       1
   29704   28084   34346       1
   31282   28105   34347       1
   28060   28106   34348       1
   29554   28107   34349       1
   28058   28108   34350       1
   28060   28157   34351       1
   26482   28158   34352       1
   28134   28159   34353       1
   29780   28160   34354       1
   29556   28181   34355       1
   28136   28182   34356       1
   29630   28183   34357       1
   28134   28184   34358       1
   29936   28231   34359       1
   26556   28232   34360       1
   28208   28233   34361       1
   29854   28234   34362       1
   29782   28255   34363       1
   28210   28256   34364       1
   28054   28257   34365       1
   28208   28258   34366       1
   28210   28307   34367       1
   26632   28308   34368       1
   28284   28309   34369       1
   29930   28310   34370       1
   28056   28331   34371       1
   28286   28332   34372       1
   28130   28333   34373       1
   28284   28334   34374       1
   30086   28381   34375       1
   26706   28382   34376       1
   28358   28383   34377       1
   30004   28384   34378       1
   29932   28405   34379       1
   28360   28406   34380       1
   28204   28407   34381       1
   28358   28408   34382       1
   28360   28457   34383       1
   26782   28458   34384       1
   28434   28459   34385       1
   30080   28460   34386       1
   28206   28481   34387       1
   28436   28482   34388       1
   28280   28483   34389       1
   28434   28484   34390       1
   30236   28531   34391       1
   26856   28532   34392       1
   28508   28533   34393       1
   30154   28534   34394       1
   30082   28555   34395       1
   28510   28556   34396       1
   28354   28557   34397       1
   28508   28558   34398       1
   28510   28607   34399       1
   26932   28608   34400       1
   28584   28609   34401       1
   30230   28610   34402       1
   28356   28631   34403       1
   28586   28632   34404       1
   28430   28633   34405       1
   28584   28634   34406       1
   30386   28681   34407       1
   27006   28682   34408       1
   28658   28683   34409       1
   30304   28684   34410       1
   30232   28705   34411       1
   28660   28706   34412       1
   28504   28707   34413       1
   28658   28708   34414       1
   28660   28757   34415       1
   27082   28758   34416       1
   28734   28759   34417       1
   30380   28760   34418       1
   28506   28781   34419       1
   28736   28782   34420       1
   28580   28783   34421       1
   28734   28784   34422       1
   30536   28831   34423       1
   27156   28832   34424       1
   28808   28833   34425       1
   30454   28834   34426       1
   30382   28855   34427       1
   28810   28856   34428       1
   28654   28857   34429       1
   28808   28858   34430       1
   28810   28907   34431       1
   27232   28908   34432       1
   28884   28909   34433       1
   30530   28910   34434       1
   28656   28931   34435       1
   28886   28932   34436       1
   28730   28933   34437       1
   28884   28934   34438       1
   30686   28981   34439       1
   27306   28982   34440       1
   28958   28983   34441       1
   30604   28984   34442       1
   30532   29005   34443       1
   28960   29006   34444       1
   28804   29007   34445       1
   28958   29008   34446       1
   28960   29057   34447       1
   27382   29058   34448       1
   29034   29059   34449       1
   30680   29060   34450       1
   28806   29081   34451       1
   29036   29082   34452       1
   28880   29083   34453       1
   29034   29084   34454       1
   30836   29131   34455       1
   27456   29132   34456       1
   29108   29133   34457       1
   30754   29134   34458       1
   30682   29155   34459       1
   29110   29156   34460       1
   28954   29157   34461       1
   29108   29158   34462       1
   29110   29207   34463       1
   27532   29208   34464       1
   29184   29209   34465       1
   30830   29210   34466       1
   28956   29231   34467       1
   29186   29232   34468       1
   29030   29233   34469       1
   29184   29234   34470       1
   30986   29281   34471       1
   27606   29282   34472       1
   29258   29283   34473       1
   30904   29284   34474       1
   30832   29305   34475       1
   29260   29306   34476       1
   29104   29307   34477       1
   29258   29308   34478       1
   29260   29357   34479       1
   27682   29358   34480       1
   29334   29359   34481       1
   30980   29360   34482       1
   29106   29381   34483       1
   29336   29382   34484       1
   29180   29383   34485       1
   29334   29384   34486       1
   31136   29431   34487       1
   27756   29432   34488       1
   29408   29433   34489       1
   31054   29434   34490       1
   30982   29455   34491       1
   29410   29456   34492       1
   29254   29457   34493       1
   29408   29458   34494       1
   29410   29507   34495       1
   27832   29508   34496       1
   29484   29509   34497       1
   31130   29510   34498       1
   29256   29531   34499       1
   29486   29532   34500       1
   29330   29533   34501       1
   29484   29534   34502       1
   31286   29581   34503       1
   27906   29582   34504       1
   29558   29583   34505       1
   31204   29584   34506       1
   31132   29605   34507       1
   29560   29606   34508       1
   29404   29607   34509       1
   29558   29608   34510       1
   29560   29657   34511       1
   27982   29658   34512       1
   29634   29659   34513       1
   31280   29660   34514       1
   29406   29681   34515       1
   29636   29682   34516       1
   29480   29683   34517       1
   29634   29684   34518       1
      86   29731   34519       1
   28056   29732   34520       1
   29708   29733   34521       1
       4   29734   34522       1
    1582   29755   34523       1
   29710   29756   34524       1
   31204   29757   34525       1
   29708   29758   34526       1
   29710   29807   34527       1
   28132   29808   34528       1
   29784   29809   34529       1
      80   29810   34530       1
   31206   29831   34531       1
   29786   29832   34532       1
   31280   29833   34533       1
   29784   29834   34534       1
     236   29881   34535       1
   28206   29882   34536       1
   29858   29883   34537       1
     154   29884   34538       1
      82   29905   34539       1
   29860   29906   34540       1
   29704   29907   34541       1
   29858   29908   34542       1
   29860   29957   34543       1
   28282   29958   34544       1
   29934   29959   34545       1
     230   29960   34546       1
   29706   29981   34547       1
   29936   29982   34548       1
   29780   29983   34549       1
   29934   29984   34550       1
     386   30031   34551       1
   28356   30032   34552       1
   30008   30033   34553       1
     304   30034   34554       1
     232   30055   34555       1
   30010   30056   34556       1
   29854   30057   34557       1
   30008   30058   34558       1
   30010   30107   34559       1
   28432   30108   34560       1
   30084   30109   34561       1
     380   30110   34562       1
   29856   30131   34563       1
   30086   30132   34564       1
   29930   30133   34565       1
   30084   30134   34566       1
     536   30181   34567       1
   28506   30182   34568       1
   30158   30183   34569       1
     454   30184   34570       1
     382   30205   34571       1
   30160   30206   34572       1
   30004   30207   34573       1
   30158   30208   34574       1
   30160   30257   34575       1
   28582   30258   34576       1
   30234   30259   34577       1
     530   30260   34578       1
   30006   30281   34579       1
   30236   30282   34580       1
   30080   30283   34581       1
   30234   30284   34582       1
     686   30331   34583       1
   28656   30332   34584       1
   30308   30333   34585       1
     604   30334   34586       1
     532   30355   34587       1
   30310   30356   34588       1
   30154   30357   34589       1
   30308   30358   34590       1
   30310   30407   34591       1
   28732   30408   34592       1
   30384   30409   34593       1
     680   30410   34594       1
   30156   30431   34595       1
   30386   30432   34596       1
   30230   30433   34597       1
   30384   30434   34598       1
     836   30481   34599       1
   28806   30482   34600       1
   30458   30483   34601       1
     754   30484   34602       1
     682   30505   34603       1
   30460   30506   34604       1
   30304   30507   34605       1
   30458   30508   34606       1
   30460   30557   34607       1
   28882   30558   34608       1
   30534   30559   34609       1
     830   30560   34610       1
   30306   30581   34611       1
   30536   30582   34612       1
   30380   30583   34613       1
   30534   30584   34614       1
     986   30631   34615       1
   28956   30632   34616       1
   30608   30633   34617       1
     904   30634   34618       1
     832   30655   34619       1
   30610   30656   34620       1
   30454   30657   34621       1
   30608   30658   34622       1
   30610   30707   34623       1
   29032   30708   34624       1
   30684   30709   34625       1
     980   30710   34626       1
   30456   30731   34627       1
   30686   30732   34628       1
   30530   30733   34629       1
   30684   30734   34630       1
    1136   30781   34631       1
   29106   30782   34632       1
   30758   30783   34633       1
    1054   30784   34634       1
     982   30805   34635       1
   30760   30806   34636       1
   30604   30807   34637       1
   30758   30808   34638       1
   30760   30857   34639       1
   29182   30858   34640       1
   30834   30859   34641       1
    1130   30860   34642       1
   30606   30881   34643       1
   30836   30882   34644       1
   30680   30883   34645       1
   30834   30884   34646       1
    1286   30931   34647       1
   29256   30932   34648       1
   30908   30933   34649       1
    1204   30934   34650       1
    1132   30955   34651       1
   30910   30956   34652       1
   30754   30957   34653       1
   30908   30958   34654       1
   30910   31007   34655       1
   29332   31008   34656       1
   30984   31009   34657       1
    1280   31010   34658       1
   30756   31031   34659       1
   30986   31032   34660       1
   30830   31033   34661       1
   30984   31034   34662       1
    1436   31081   34663       1
   29406   31082   34664       1
   31058   31083   34665       1
    1354   31084   34666       1
    1282   31105   34667       1
   31060   31106   34668       1
   30904   31107   34669       1
   31058   31108   34670       1
   31060   31157   34671       1
   29482   31158   34672       1
   31134   31159   34673       1
    1430   31160   34674       1
   30906   31181   34675       1
   31136   31182   34676       1
   30980   31183   34677       1
   31134   31184   34678       1
    1586   31231   34679       1
   29556   31232   34680       1
   31208   31233   34681       1
    1504   31234   34682       1
    1432   31255   34683       1
   31210   31256   34684       1
   31054   31257   34685       1
   31208   31258   34686       1
   31210   31307   34687       1
   29632   31308   34688       1
   31284   31309   34689       1
    1580   31310   34690       1
   31056   31331   34691       1
   31286   31332   34692       1
   31130   31333   34693       1
   31284   31334   34694       1

